Title
55513
    1DOPE     N    1   4.317   4.228  16.089  0.6986 -0.0093  0.4737
    1DOPE   HN1    2   4.393   4.166  16.054  0.9808  1.3643 -1.4938
    1DOPE   HN2    3   4.251   4.179  16.152  0.4238 -0.6604 -0.3088
    1DOPE   HN3    4   4.265   4.254  16.003 -1.3880  0.4395  1.8025
    1DOPE   C12    5   4.381   4.347  16.153  0.6288  0.1416 -0.0239
    1DOPE  H12A    6   4.425   4.313  16.250 -1.6735  0.0749  1.0551
    1DOPE  H12B    7   4.292   4.411  16.168  0.2746 -0.4057  0.2285
    1DOPE   C11    8   4.486   4.410  16.062  0.1434  0.3439  0.6030
    1DOPE  H11A    9   4.542   4.480  16.127 -0.4419  0.6621  0.7618
    1DOPE  H11B   10   4.441   4.466  15.978  2.5207  0.6434 -0.5434
    1DOPE     P   11   4.660   4.319  15.877 -0.4239  0.2037 -0.2216
    1DOPE   O13   12   4.664   4.182  15.828 -0.4144 -0.2238  0.3688
    1DOPE   O14   13   4.788   4.388  15.900 -0.4567 -0.0644  0.5657
    1DOPE   O11   14   4.567   4.398  15.785 -0.7608  0.0339  0.4209
    1DOPE   O12   15   4.576   4.313  16.008 -0.4841 -0.0798 -0.7881
    1DOPE    C1   16   4.440   4.343  15.734 -0.1999 -0.9847 -0.0933
    1DOPE    HA   17   4.359   4.418  15.726  1.0839  0.2995 -1.6417
    1DOPE    HB   18   4.403   4.254  15.789 -1.4364 -0.0724  0.6055
    1DOPE    C2   19   4.468   4.287  15.590 -0.2437 -0.1692 -0.5460
    1DOPE    HS   20   4.567   4.237  15.587 -0.2646 -0.5615  2.3706
    1DOPE   O21   21   4.466   4.403  15.500  0.0303 -0.9532  0.8580
    1DOPE   C21   22   4.582   4.460  15.472 -0.4074 -0.1743  0.2432
    1DOPE   O22   23   4.695   4.420  15.503 -0.6046  0.4551  0.6500
    1DOPE   C22   24   4.550   4.589  15.398 -0.2424 -0.3222 -0.2017
    1DOPE   H2R   25   4.644   4.648  15.387 -1.0752  1.9090  2.9923
    1DOPE   H2S   26   4.481   4.641  15.468  0.5631  0.5149 -0.0131
    1DOPE    C3   27   4.360   4.186  15.548 -0.4689 -0.6784  0.5287
    1DOPE    HX   28   4.263   4.240  15.548 -0.8652 -1.3765  0.7700
    1DOPE    HY   29   4.356   4.106  15.625 -0.3089 -0.8209  0.3892
    1DOPE   O31   30   4.379   4.148  15.410  0.3046  0.1006  0.1521
    1DOPE   C31   31   4.484   4.090  15.380  0.1888  1.0577 -0.6482
    1DOPE   O32   32   4.569   4.047  15.455 -0.3872  0.8639  0.2940
    1DOPE   C32   33   4.491   4.074  15.230  0.2641  0.4810 -0.0073
    1DOPE   H2X   34   4.390   4.101  15.191 -0.5214  0.2050  1.7458
    1DOPE   H2Y   35   4.556   4.154  15.190  0.0164  0.6760 -0.0260
    1DOPE   C23   36   4.473   4.564  15.274 -0.4154  0.0469  0.5061
    1DOPE   H3R   37   4.431   4.661  15.242 -1.0716 -0.4708 -0.2414
    1DOPE   H3S   38   4.389   4.495  15.296 -0.6929 -0.1040 -0.9469
    1DOPE   C24   39   4.553   4.507  15.157 -0.5250 -0.4416  0.3382
    1DOPE   H4R   40   4.616   4.429  15.206  1.3475  0.8739  0.1240
    1DOPE   H4S   41   4.612   4.594  15.122 -0.4377 -1.0460 -1.1227
    1DOPE   C25   42   4.468   4.444  15.043  0.1377 -0.2425 -0.5165
    1DOPE   H5R   43   4.389   4.374  15.078  0.0625 -0.8662 -1.8900
    1DOPE   H5S   44   4.534   4.380  14.980 -0.4116  0.4950 -1.8701
    1DOPE   C26   45   4.407   4.550  14.961 -0.2633 -0.3886 -0.3631
    1DOPE   H6R   46   4.479   4.623  14.921  0.2625  0.2960  1.7025
    1DOPE   H6S   47   4.335   4.601  15.030  1.2412 -0.4547  1.3231
    1DOPE   C27   48   4.332   4.486  14.859  1.1704  0.2325  0.7293
    1DOPE   H7R   49   4.253   4.425  14.907 -0.6668  4.0588  3.0482
    1DOPE   H7S   50   4.392   4.440  14.778 -2.3501  0.9275 -2.5836
    1DOPE   C28   51   4.237   4.576  14.780  0.2572 -0.1093  0.4079
    1DOPE   H8R   52   4.169   4.627  14.852 -2.1754 -1.7374 -0.5900
    1DOPE   H8S   53   4.162   4.513  14.728  1.3308 -0.6156 -0.5705
    1DOPE   C29   54   4.287   4.672  14.676  0.0002 -0.5059  0.6797
    1DOPE   H9R   55   4.303   4.771  14.721 -2.7064  0.4509 -0.2638
    1DOPE  C210   56   4.302   4.653  14.540  0.6739 -0.8160 -0.4377
    1DOPE  H10R   57   4.326   4.738  14.474 -2.6434  2.3615  2.0309
    1DOPE  C211   58   4.280   4.524  14.464  0.7304 -0.4496 -0.4510
    1DOPE  H11R   59   4.190   4.529  14.399  0.5783  0.5846 -0.1710
    1DOPE  H11S   60   4.262   4.441  14.536 -3.1870 -0.0167 -0.6646
    1DOPE  C212   61   4.404   4.489  14.377  0.3589  0.1721  0.4802
    1DOPE  H12R   62   4.378   4.397  14.320  0.2514 -0.1671  1.0732
    1DOPE  H12S   63   4.500   4.465  14.427  0.6693  0.1292 -0.1187
    1DOPE  C213   64   4.437   4.596  14.273 -0.3280  0.9350 -0.1739
    1DOPE  H13R   65   4.451   4.699  14.314  1.6449  1.4394 -1.9135
    1DOPE  H13S   66   4.367   4.591  14.187  0.5392 -0.5030 -0.8220
    1DOPE  C214   67   4.578   4.565  14.213  0.1753 -0.4415  0.3946
    1DOPE  H14R   68   4.582   4.459  14.180 -0.2524  0.0541 -1.3552
    1DOPE  H14S   69   4.655   4.579  14.293  0.3195  0.5082  0.1029
    1DOPE  C215   70   4.629   4.654  14.101 -0.2542  0.6430  0.3113
    1DOPE  H15R   71   4.590   4.749  14.142 -2.5697 -0.9407  2.0573
    1DOPE  H15S   72   4.586   4.632  14.001  1.3494 -1.1054 -0.0642
    1DOPE  C216   73   4.781   4.657  14.086 -0.1552 -0.2830 -0.8038
    1DOPE  H16R   74   4.825   4.555  14.091  1.9892  0.6527  2.1019
    1DOPE  H16S   75   4.833   4.711  14.168  2.1460 -0.2761 -2.1858
    1DOPE  C217   76   4.837   4.724  13.960 -0.3013 -0.0988  0.4481
    1DOPE  H17R   77   4.948   4.727  13.964 -0.2323 -1.1976 -0.0420
    1DOPE  H17S   78   4.806   4.830  13.959 -0.6838 -0.1837 -1.3810
    1DOPE  C218   79   4.818   4.644  13.830  0.6005  0.3039  0.6723
    1DOPE  H18R   80   4.714   4.649  13.792  0.8888  0.6071 -0.1140
    1DOPE  H18S   81   4.850   4.539  13.847  0.5091  0.3003  0.8199
    1DOPE  H18T   82   4.890   4.690  13.758  2.0747  0.1410  1.9703
    1DOPE   C33   83   4.537   3.939  15.196 -0.1338  0.3621  0.1361
    1DOPE   H3X   84   4.489   3.861  15.258 -0.4372  0.8333  0.5062
    1DOPE   H3Y   85   4.647   3.931  15.206 -0.0370  2.1488  0.9879
    1DOPE   C34   86   4.506   3.907  15.045 -0.3617 -0.8320 -0.0496
    1DOPE   H4X   87   4.489   3.798  15.036 -0.3315 -0.7654 -0.9574
    1DOPE   H4Y   88   4.412   3.960  15.020 -0.2931 -0.3232  0.7224
    1DOPE   C35   89   4.608   3.975  14.947  0.0393 -0.3444 -0.1326
    1DOPE   H5X   90   4.710   3.935  14.969 -0.7319 -2.8725 -0.8118
    1DOPE   H5Y   91   4.603   4.085  14.963  1.7947  0.5344 -4.2149
    1DOPE   C36   92   4.593   3.944  14.802  0.2773 -0.5662  0.0650
    1DOPE   H6X   93   4.605   3.834  14.792 -1.5135 -0.6090 -3.2507
    1DOPE   H6Y   94   4.675   3.992  14.745 -0.2422 -1.7467 -1.7811
    1DOPE   C37   95   4.464   4.005  14.737  0.0635  0.1163 -0.5842
    1DOPE   H7X   96   4.377   3.955  14.784  0.0034  0.6707 -0.0912
    1DOPE   H7Y   97   4.452   4.114  14.756  3.1809  0.4348  0.1533
    1DOPE   C38   98   4.455   3.997  14.580  0.1327 -0.0535  0.5983
    1DOPE   H8X   99   4.351   4.030  14.558  0.7386  0.9737 -0.9135
    1DOPE   H8Y  100   4.463   3.893  14.541  0.5551  0.1137  0.2294
    1DOPE   C39  101   4.565   4.086  14.514  0.1721 -0.3321 -0.4191
    1DOPE   H9X  102   4.632   4.134  14.588 -1.3546 -0.6266  1.2071
    1DOPE  C310  103   4.587   4.094  14.385 -0.5030  0.7230  0.2946
    1DOPE  H10X  104   4.655   4.171  14.345  1.8710 -2.2618 -1.8888
    1DOPE  C311  105   4.515   4.027  14.275  0.0748 -0.5720  0.5281
    1DOPE  H11X  106   4.473   3.927  14.296 -2.7925  0.7510  1.5829
    1DOPE  H11Y  107   4.428   4.092  14.253  1.1998  1.0356  0.5928
    1DOPE  C312  108   4.613   4.028  14.153 -0.7714 -0.2198 -0.0126
    1DOPE  H12X  109   4.712   3.993  14.188 -0.4767 -0.2828 -0.8877
    1DOPE  H12Y  110   4.629   4.128  14.109  1.1189 -0.8777 -0.9242
    1DOPE  C313  111   4.554   3.954  14.035 -0.3594 -0.0047  0.1464
    1DOPE  H13X  112   4.626   3.959  13.951 -1.3018  2.2596 -0.5737
    1DOPE  H13Y  113   4.551   3.848  14.068 -1.0237  0.0875  0.3935
    1DOPE  C314  114   4.422   3.997  13.977  0.3654  0.4130  0.0676
    1DOPE  H14X  115   4.433   3.996  13.866  0.8636  1.1536  0.1073
    1DOPE  H14Y  116   4.386   4.099  14.002 -0.3625 -0.0746  1.0595
    1DOPE  C315  117   4.308   3.901  14.014  0.0507  0.3623 -0.0666
    1DOPE  H15X  118   4.217   3.944  13.968 -0.6036 -0.3996  0.4662
    1DOPE  H15Y  119   4.289   3.901  14.124 -0.3116  1.1267 -0.1246
    1DOPE  C316  120   4.321   3.756  13.957 -0.7727 -0.6543  0.4843
    1DOPE  H16X  121   4.419   3.719  13.993 -0.9468 -0.2619  1.3733
    1DOPE  H16Y  122   4.335   3.773  13.848  2.7087 -0.3613  0.8759
    1DOPE  C317  123   4.206   3.661  13.986  0.6371  0.4445  0.2055
    1DOPE  H17X  124   4.202   3.654  14.097  1.9518  0.3340  0.2652
    1DOPE  H17Y  125   4.117   3.723  13.965  0.5633  0.4155  0.4215
    1DOPE  C318  126   4.212   3.530  13.913  0.5797  0.0937 -0.1073
    1DOPE  H18X  127   4.281   3.454  13.957  0.2098 -0.6058 -0.7136
    1DOPE  H18Y  128   4.123   3.466  13.927  1.8099 -1.3413  1.7948
    1DOPE  H18Z  129   4.244   3.539  13.807 -1.9611  0.1770 -0.9137
    2DOPE     N  130   3.648   6.051  16.030 -0.2860 -0.0257 -0.4142
    2DOPE   HN1  131   3.555   6.014  16.002 -0.4001 -2.1693  2.3301
    2DOPE   HN2  132   3.662   6.043  16.133  1.2788  1.2702 -0.4798
    2DOPE   HN3  133   3.642   6.150  15.997  1.2208  0.2793  0.1382
    2DOPE   C12  134   3.752   5.971  15.962  0.3123  0.1189  0.0569
    2DOPE  H12A  135   3.754   5.868  16.004  1.4039  0.8676  1.9829
    2DOPE  H12B  136   3.850   6.019  15.983  0.1251  0.9512 -0.9070
    2DOPE   C11  137   3.743   5.980  15.810  0.0642  0.1434  0.4179
    2DOPE  H11A  138   3.841   5.950  15.768  0.5114  1.9568  0.0877
    2DOPE  H11B  139   3.743   6.088  15.782 -0.7462 -0.2499 -1.1930
    2DOPE     P  140   3.613   5.763  15.741  0.4324  0.4257  0.2589
    2DOPE   O13  141   3.484   5.734  15.678  0.1897  0.4417  0.5102
    2DOPE   O14  142   3.639   5.689  15.868  0.6702 -0.2396 -0.5245
    2DOPE   O11  143   3.733   5.732  15.645  0.4872  0.4138  0.3452
    2DOPE   O12  144   3.628   5.915  15.753 -0.2652 -0.2201 -0.5802
    2DOPE    C1  145   3.724   5.786  15.512 -0.2794  0.0298  0.3849
    2DOPE    HA  146   3.685   5.890  15.518  1.9043  0.9387 -0.0348
    2DOPE    HB  147   3.653   5.721  15.457 -0.7404 -0.8774  1.9708
    2DOPE    C2  148   3.861   5.786  15.440 -0.6121 -1.2854  0.3495
    2DOPE    HS  149   3.830   5.787  15.334 -0.4699  0.8303  0.2909
    2DOPE   O21  150   3.937   5.666  15.457  0.3616  0.1885  0.2595
    2DOPE   C21  151   3.897   5.555  15.411  0.1361  0.0522  0.0105
    2DOPE   O22  152   3.795   5.534  15.346 -0.4547 -0.5445 -0.0286
    2DOPE   C22  153   3.998   5.448  15.451  0.5583 -0.4248 -0.0346
    2DOPE   H2R  154   3.972   5.349  15.410  1.3660 -0.9079  0.5915
    2DOPE   H2S  155   3.989   5.434  15.561  2.9307  1.7719  0.5283
    2DOPE    C3  156   3.936   5.919  15.470  0.1208 -0.4772 -0.2863
    2DOPE    HX  157   3.973   5.912  15.575  2.1135 -1.0197 -0.9863
    2DOPE    HY  158   3.873   6.010  15.464  1.7113  0.8787  1.7934
    2DOPE   O31  159   4.041   5.932  15.372  0.2774  0.2305 -0.3701
    2DOPE   C31  160   4.158   5.882  15.402 -0.2371  0.0090  0.0978
    2DOPE   O32  161   4.187   5.827  15.507 -0.0596  0.2909  0.0917
    2DOPE   C32  162   4.245   5.900  15.278  0.2709  0.1288 -0.5064
    2DOPE   H2X  163   4.189   5.870  15.187  0.9675 -0.3243 -0.7948
    2DOPE   H2Y  164   4.267   6.007  15.256 -3.2702  0.8501 -1.1608
    2DOPE   C23  165   4.140   5.485  15.412  0.1733 -0.7359  0.0955
    2DOPE   H3R  166   4.169   5.565  15.483 -0.0779  1.0988 -1.7641
    2DOPE   H3S  167   4.144   5.537  15.314 -1.5320 -1.6032 -0.4864
    2DOPE   C24  168   4.245   5.374  15.403  0.3297 -0.1506  0.3648
    2DOPE   H4R  169   4.210   5.309  15.320  0.2619  0.9217 -0.4650
    2DOPE   H4S  170   4.255   5.323  15.502 -0.5479 -0.1279  0.4702
    2DOPE   C25  171   4.382   5.438  15.368 -0.4002  0.5750 -0.0596
    2DOPE   H5R  172   4.404   5.527  15.430  0.0643  1.3934 -1.3455
    2DOPE   H5S  173   4.373   5.480  15.265  1.1461  0.5018 -0.2505
    2DOPE   C26  174   4.499   5.336  15.373  0.3932  0.5963 -0.1114
    2DOPE   H6R  175   4.487   5.262  15.291  0.1346  0.3937  0.1084
    2DOPE   H6S  176   4.496   5.286  15.472 -1.3475 -2.2799 -1.4764
    2DOPE   C27  177   4.636   5.399  15.368 -0.2212 -0.4136  0.4549
    2DOPE   H7R  178   4.654   5.483  15.439  0.2527  0.4950 -0.7236
    2DOPE   H7S  179   4.641   5.441  15.265  0.4480 -2.0911 -0.2261
    2DOPE   C28  180   4.754   5.304  15.375  0.1152  1.3891 -0.2826
    2DOPE   H8R  181   4.760   5.245  15.281 -0.7211 -0.7943  0.9785
    2DOPE   H8S  182   4.748   5.221  15.449  1.7171  1.0108 -0.5362
    2DOPE   C29  183   4.881   5.376  15.405  0.1528  0.0843 -0.4267
    2DOPE   H9R  184   4.863   5.474  15.452 -1.1027  0.1335 -0.9754
    2DOPE  C210  185   4.999   5.330  15.359 -0.1176  0.0952 -0.2008
    2DOPE  H10R  186   5.091   5.373  15.403 -0.0216  0.4824 -0.7732
    2DOPE  C211  187   5.023   5.206  15.278  0.1599  1.2154  0.1761
    2DOPE  H11R  188   4.957   5.197  15.190  3.3621 -0.5823 -2.2686
    2DOPE  H11S  189   5.025   5.118  15.346 -3.2135 -0.6696 -1.9043
    2DOPE  C212  190   5.164   5.198  15.211  0.5158  0.0120 -0.5574
    2DOPE  H12R  191   5.177   5.273  15.131 -0.5632  0.9189  0.0763
    2DOPE  H12S  192   5.169   5.097  15.165 -0.2302 -0.1709 -0.2638
    2DOPE  C213  193   5.276   5.214  15.314 -0.2054  0.1964  0.2537
    2DOPE  H13R  194   5.268   5.156  15.408  0.3608 -0.1719  0.0838
    2DOPE  H13S  195   5.283   5.321  15.342  1.4184  0.2158 -0.1307
    2DOPE  C214  196   5.413   5.177  15.263 -0.3087  0.9634  0.1496
    2DOPE  H14R  197   5.479   5.190  15.353 -0.3579 -2.3456  0.7713
    2DOPE  H14S  198   5.444   5.249  15.184  0.5089 -0.4220 -0.8356
    2DOPE  C215  199   5.413   5.033  15.216  0.1067  0.0933 -0.6948
    2DOPE  H15R  200   5.347   5.010  15.130 -0.9537 -1.7229  0.5200
    2DOPE  H15S  201   5.367   4.971  15.296 -0.6392  0.5577 -0.7473
    2DOPE  C216  202   5.555   4.979  15.179  0.9108 -0.7182 -0.7438
    2DOPE  H16R  203   5.621   5.011  15.262 -1.9793  1.5332  0.8788
    2DOPE  H16S  204   5.579   5.019  15.078 -0.8945 -0.6764 -1.1915
    2DOPE  C217  205   5.553   4.822  15.157  0.4040  0.1542 -0.3740
    2DOPE  H17R  206   5.520   4.796  15.054  0.7925 -0.6022 -0.3200
    2DOPE  H17S  207   5.473   4.787  15.225  1.8187 -1.5932  0.4740
    2DOPE  C218  208   5.698   4.772  15.188  0.7208  0.3173  0.4722
    2DOPE  H18R  209   5.717   4.802  15.294 -0.6282 -2.0253  1.4393
    2DOPE  H18S  210   5.781   4.824  15.135  2.0058  0.9699  2.9564
    2DOPE  H18T  211   5.701   4.665  15.159  0.5266  0.6017 -0.6325
    2DOPE   C33  212   4.377   5.827  15.295  0.2161  0.0809 -0.8421
    2DOPE   H3X  213   4.358   5.723  15.328 -1.4976  0.6363 -0.0034
    2DOPE   H3Y  214   4.442   5.877  15.370  0.6581 -2.5128  0.5962
    2DOPE   C34  215   4.443   5.823  15.160  0.3471 -0.5923  0.1275
    2DOPE   H4X  216   4.383   5.764  15.087 -0.6216 -0.8795  1.1331
    2DOPE   H4Y  217   4.451   5.929  15.130 -2.5954 -0.1822  0.5603
    2DOPE   C35  218   4.587   5.774  15.174 -0.7656 -0.3968  0.1594
    2DOPE   H5X  219   4.589   5.686  15.241 -1.8483  0.7787  1.8120
    2DOPE   H5Y  220   4.652   5.854  15.217  2.2757 -0.8444 -3.1191
    2DOPE   C36  221   4.655   5.743  15.038  0.5119  0.1775 -0.6920
    2DOPE   H6X  222   4.681   5.834  14.981  1.9860  1.0511  1.2623
    2DOPE   H6Y  223   4.595   5.660  14.995  1.7796 -1.3943  0.4593
    2DOPE   C37  224   4.790   5.671  15.072  0.0000 -0.6004  0.1705
    2DOPE   H7X  225   4.859   5.752  15.102  0.6386 -0.8563 -0.5562
    2DOPE   H7Y  226   4.769   5.602  15.156 -1.1617 -1.3900 -0.7205
    2DOPE   C38  227   4.855   5.600  14.953  0.2384 -0.1320 -0.1390
    2DOPE   H8X  228   4.887   5.684  14.888  1.0267  0.7791  1.3691
    2DOPE   H8Y  229   4.783   5.535  14.899 -0.8474  2.9215 -2.7066
    2DOPE   C39  230   4.980   5.532  14.990 -0.6271 -0.6993  0.1146
    2DOPE   H9X  231   5.057   5.599  15.030 -1.4064  0.8188 -0.8112
    2DOPE  C310  232   5.031   5.421  14.929  0.3539  0.1184  0.2982
    2DOPE  H10X  233   5.140   5.410  14.932  0.3301 -0.6308 -1.1080
    2DOPE  C311  234   4.965   5.336  14.829 -0.0042  0.3781 -0.0312
    2DOPE  H11X  235   4.958   5.234  14.873  0.0520  0.2084 -0.4140
    2DOPE  H11Y  236   4.861   5.363  14.801 -0.9086 -2.6061  0.1233
    2DOPE  C312  237   5.037   5.333  14.691  0.4751  0.4202  0.2379
    2DOPE  H12X  238   5.026   5.436  14.650 -1.3182  0.7655  1.4386
    2DOPE  H12Y  239   4.987   5.272  14.613  1.2097 -1.1877  0.9809
    2DOPE  C313  240   5.180   5.289  14.702 -0.3575  0.1870 -0.0977
    2DOPE  H13X  241   5.223   5.298  14.600  1.8121 -1.3539  0.5860
    2DOPE  H13Y  242   5.231   5.365  14.764 -0.7952  0.1420  0.3238
    2DOPE  C314  243   5.201   5.140  14.755 -0.3818 -0.9375  0.0122
    2DOPE  H14X  244   5.141   5.071  14.691  0.1020 -0.1366 -1.3364
    2DOPE  H14Y  245   5.167   5.132  14.861  3.4058 -0.2051  1.4419
    2DOPE  C315  246   5.354   5.105  14.745  0.4706 -0.1802 -0.5749
    2DOPE  H15X  247   5.384   5.109  14.638 -1.2196  0.4263 -1.0597
    2DOPE  H15Y  248   5.357   4.998  14.774  0.0100  0.0138  0.1960
    2DOPE  C316  249   5.449   5.187  14.824  0.5747 -0.7282 -0.2747
    2DOPE  H16X  250   5.433   5.174  14.933  3.8687 -2.0129  0.1579
    2DOPE  H16Y  251   5.445   5.296  14.804 -2.0284 -0.5195  0.9251
    2DOPE  C317  252   5.599   5.146  14.807 -0.1312 -0.2276  0.4996
    2DOPE  H17X  253   5.625   5.048  14.853  0.8947 -0.5659 -0.7559
    2DOPE  H17Y  254   5.600   5.132  14.697 -0.5477 -2.0405  0.6843
    2DOPE  C318  255   5.704   5.257  14.842  0.2486  0.2715 -0.0056
    2DOPE  H18X  256   5.686   5.293  14.945  0.2491  0.4700 -0.0742
    2DOPE  H18Y  257   5.806   5.214  14.831  0.3665 -0.1272  2.1788
    2DOPE  H18Z  258   5.684   5.344  14.776 -2.1272 -2.3326 -3.0341
    3DOPE     N  259   3.245   5.133  15.832  0.1199  0.7209  0.8619
    3DOPE   HN1  260   3.277   5.200  15.760 -0.4423 -0.2475 -0.3311
    3DOPE   HN2  261   3.221   5.194  15.912 -0.4034 -0.3407  1.5418
    3DOPE   HN3  262   3.323   5.069  15.857  1.3307  1.1243 -1.5321
    3DOPE   C12  263   3.123   5.063  15.772  0.5335 -1.2152  0.1615
    3DOPE  H12A  264   3.041   5.138  15.772  2.1925  0.6771  0.5803
    3DOPE  H12B  265   3.081   4.982  15.836  0.3428 -0.8495  0.5041
    3DOPE   C11  266   3.142   5.000  15.630 -0.2624 -0.0529 -0.6241
    3DOPE  H11A  267   3.168   5.074  15.552  0.5397  0.5720  0.2180
    3DOPE  H11B  268   3.043   4.961  15.596  0.1957 -1.6028 -0.2676
    3DOPE     P  269   3.392   4.896  15.616 -0.0088  0.2039 -0.0558
    3DOPE   O13  270   3.452   4.767  15.651  0.9444  0.3201  0.0844
    3DOPE   O14  271   3.437   5.009  15.700  0.4977 -0.8340  0.3027
    3DOPE   O11  272   3.416   4.928  15.466 -0.1178  0.1050 -0.4496
    3DOPE   O12  273   3.234   4.892  15.623 -0.3840 -0.7346  0.5378
    3DOPE    C1  274   3.500   4.840  15.393 -0.1456  0.8899  0.3231
    3DOPE    HA  275   3.462   4.736  15.381  0.3053  0.7896 -0.2873
    3DOPE    HB  276   3.596   4.843  15.448 -0.9310  1.3782  1.7355
    3DOPE    C2  277   3.522   4.893  15.249 -0.4186 -0.2258 -0.0346
    3DOPE    HS  278   3.593   4.827  15.195 -0.2106  0.5960 -0.7975
    3DOPE   O21  279   3.560   5.029  15.240  0.0604  0.0265 -0.3354
    3DOPE   C21  280   3.690   5.041  15.270 -1.1412  0.1019 -0.5193
    3DOPE   O22  281   3.771   4.954  15.290 -0.3855 -0.2766  0.0487
    3DOPE   C22  282   3.730   5.189  15.271  0.2060 -0.5089 -0.2186
    3DOPE   H2R  283   3.726   5.235  15.372 -2.2945 -1.8667  0.3813
    3DOPE   H2S  284   3.644   5.232  15.214  0.4008 -0.0178 -0.1485
    3DOPE    C3  285   3.383   4.883  15.176  0.4361 -0.0699 -0.3591
    3DOPE    HX  286   3.297   4.932  15.228  1.6193 -0.1120  1.7779
    3DOPE    HY  287   3.370   4.773  15.170  4.0110 -0.5733 -1.1903
    3DOPE   O31  288   3.389   4.928  15.042 -0.1710 -0.7310 -0.1556
    3DOPE   C31  289   3.338   5.045  15.005  0.3117 -0.1567 -0.0493
    3DOPE   O32  290   3.257   5.110  15.071  0.2123 -0.6378  0.4100
    3DOPE   C32  291   3.399   5.089  14.873 -0.0744 -0.4367  0.2206
    3DOPE   H2X  292   3.339   5.179  14.845  1.4204  0.8234  0.8802
    3DOPE   H2Y  293   3.499   5.130  14.898 -0.3283  1.3095 -1.3552
    3DOPE   C23  294   3.862   5.221  15.202 -0.2204 -0.6954  0.2776
    3DOPE   H3R  295   3.943   5.150  15.230  1.2749  0.8563  0.0956
    3DOPE   H3S  296   3.890   5.323  15.234  0.8758 -1.2604  1.1944
    3DOPE   C24  297   3.867   5.204  15.048 -0.2269 -0.5068 -0.2475
    3DOPE   H4R  298   3.846   5.101  15.012  1.1624 -0.1034 -2.3689
    3DOPE   H4S  299   3.971   5.226  15.016 -0.1579  0.9188  0.8270
    3DOPE   C25  300   3.782   5.304  14.968  0.0759 -1.0861 -0.1947
    3DOPE   H5R  301   3.799   5.411  14.994 -1.8472 -0.2793 -1.9856
    3DOPE   H5S  302   3.677   5.278  14.992 -0.6927  1.4944 -0.4413
    3DOPE   C26  303   3.815   5.306  14.813  0.0616  0.0879 -0.2515
    3DOPE   H6R  304   3.817   5.197  14.787  0.9688  0.5390 -2.2823
    3DOPE   H6S  305   3.918   5.344  14.799 -0.1358  1.0576  0.8607
    3DOPE   C27  306   3.713   5.378  14.719  0.3245  0.7220  0.3150
    3DOPE   H7R  307   3.614   5.339  14.751  1.1898 -0.7679  1.3058
    3DOPE   H7S  308   3.738   5.348  14.615 -1.3579  0.3199 -0.0001
    3DOPE   C28  309   3.733   5.529  14.715 -0.1346  0.9103 -0.6420
    3DOPE   H8R  310   3.829   5.554  14.665  0.6574 -1.4919 -0.4782
    3DOPE   H8S  311   3.724   5.568  14.819  0.3624  0.8965 -0.5905
    3DOPE   C29  312   3.630   5.580  14.620 -0.4942  0.3542  0.6893
    3DOPE   H9R  313   3.650   5.542  14.519  1.1652 -0.4525  1.2958
    3DOPE  C210  314   3.507   5.630  14.652  0.0250 -0.4791  0.0451
    3DOPE  H10R  315   3.444   5.651  14.565  0.8078 -3.0879 -1.2658
    3DOPE  C211  316   3.476   5.681  14.789  0.6253  0.3650 -0.0489
    3DOPE  H11R  317   3.545   5.766  14.809  0.2179  0.2766  1.8950
    3DOPE  H11S  318   3.491   5.595  14.857 -3.8584  0.3102  1.1516
    3DOPE  C212  319   3.334   5.704  14.835  0.9333 -0.3334  0.2819
    3DOPE  H12R  320   3.267   5.616  14.817 -0.5704  1.0710 -1.4490
    3DOPE  H12S  321   3.294   5.786  14.772  3.1632  1.2037  0.7630
    3DOPE  C213  322   3.319   5.750  14.979 -0.0440 -0.1319 -0.6160
    3DOPE  H13R  323   3.392   5.827  15.011  0.8710 -1.6180  1.0499
    3DOPE  H13S  324   3.331   5.665  15.049  0.5225 -1.1415 -1.8997
    3DOPE  C214  325   3.175   5.804  14.994 -0.7951 -0.3940 -0.0070
    3DOPE  H14R  326   3.104   5.757  14.922 -0.8902 -0.2630  0.0014
    3DOPE  H14S  327   3.192   5.912  14.976  1.0651 -0.6866 -0.1530
    3DOPE  C215  328   3.123   5.801  15.139 -0.0963  0.3773  0.9604
    3DOPE  H15R  329   3.201   5.834  15.211  0.6634  1.5899 -0.3600
    3DOPE  H15S  330   3.091   5.698  15.164 -1.6312  1.2938  3.0245
    3DOPE  C216  331   3.005   5.894  15.162  1.0546  0.0597 -0.2937
    3DOPE  H16R  332   2.927   5.867  15.088 -0.1006  0.6002  0.6959
    3DOPE  H16S  333   3.036   5.997  15.133 -0.5337  0.4214 -0.8085
    3DOPE  C217  334   2.946   5.895  15.302  0.0531  0.3189 -0.7743
    3DOPE  H17R  335   3.029   5.910  15.374 -1.3498  0.1023  0.9284
    3DOPE  H17S  336   2.914   5.792  15.328  0.2906  0.2637 -0.6910
    3DOPE  C218  337   2.824   5.990  15.311 -0.4301 -0.5485 -0.4560
    3DOPE  H18R  338   2.845   6.097  15.287  1.0112 -1.0029 -1.3404
    3DOPE  H18S  339   2.792   5.979  15.417  1.0121 -1.0636 -0.0476
    3DOPE  H18T  340   2.740   5.958  15.247 -0.7037  0.1102 -0.4351
    3DOPE   C33  341   3.415   4.996  14.761  0.0658  0.6433 -0.2176
    3DOPE   H3X  342   3.319   4.946  14.736 -0.3848  0.9643  0.7991
    3DOPE   H3Y  343   3.488   4.922  14.802  1.1644  2.4194  1.2093
    3DOPE   C34  344   3.460   5.059  14.632 -0.0486  0.0751  0.6584
    3DOPE   H4X  345   3.400   5.147  14.601  0.5958  1.2864  2.6299
    3DOPE   H4Y  346   3.562   5.098  14.650  0.8986 -1.2761 -1.4590
    3DOPE   C35  347   3.464   4.962  14.510 -0.3912 -0.1906  0.1131
    3DOPE   H5X  348   3.377   4.893  14.503 -0.9927  0.7002 -1.6820
    3DOPE   H5Y  349   3.559   4.906  14.516  1.1361  2.3676  1.7651
    3DOPE   C36  350   3.469   5.041  14.380 -0.2604 -0.6747  0.1593
    3DOPE   H6X  351   3.372   5.089  14.353 -0.4405 -2.2168 -2.2273
    3DOPE   H6Y  352   3.480   4.970  14.295 -0.2089 -1.7330  1.0367
    3DOPE   C37  353   3.592   5.133  14.387  0.0317 -0.2544  0.1867
    3DOPE   H7X  354   3.577   5.212  14.464 -0.9763  0.9483 -1.1895
    3DOPE   H7Y  355   3.675   5.067  14.422 -1.9046 -2.1303  1.4756
    3DOPE   C38  356   3.623   5.206  14.258  0.2334  0.1013  0.0538
    3DOPE   H8X  357   3.631   5.132  14.176  2.5883  0.5569 -0.1886
    3DOPE   H8Y  358   3.720   5.259  14.258  1.1557 -1.5082 -1.5820
    3DOPE   C39  359   3.515   5.314  14.229 -0.5087  0.7571 -0.0576
    3DOPE   H9X  360   3.482   5.386  14.305 -1.3964  1.0482 -0.6988
    3DOPE  C310  361   3.436   5.312  14.115 -0.1946 -0.2782 -0.9239
    3DOPE  H10X  362   3.349   5.379  14.116  1.0599  1.4579 -0.2168
    3DOPE  C311  363   3.455   5.217  14.004 -0.1528 -0.2212 -0.1281
    3DOPE  H11X  364   3.529   5.135  14.007 -1.4939 -1.5776 -1.8691
    3DOPE  H11Y  365   3.369   5.150  13.982  0.7044 -0.8680 -1.6980
    3DOPE  C312  366   3.472   5.304  13.878  0.3199  0.4956 -0.3914
    3DOPE  H12X  367   3.496   5.246  13.786  0.6263  0.1837 -0.1171
    3DOPE  H12Y  368   3.556   5.375  13.885  0.5265  0.4719 -2.0698
    3DOPE  C313  369   3.345   5.379  13.828 -0.7000 -0.1619  0.3705
    3DOPE  H13X  370   3.299   5.431  13.915 -0.6215  0.1508  0.2255
    3DOPE  H13Y  371   3.377   5.458  13.756  1.3589  0.3037  1.7066
    3DOPE  C314  372   3.241   5.286  13.765  0.6581 -0.0217 -0.0014
    3DOPE  H14X  373   3.211   5.210  13.841  0.9076 -0.7741 -0.6392
    3DOPE  H14Y  374   3.284   5.223  13.684 -0.0715 -0.7239  0.1381
    3DOPE  C315  375   3.119   5.357  13.704  0.8699  0.0681 -0.6084
    3DOPE  H15X  376   3.096   5.442  13.772  0.9344 -0.3381 -0.0723
    3DOPE  H15Y  377   3.034   5.286  13.696 -0.5812  1.8773 -2.1957
    3DOPE  C316  378   3.135   5.395  13.554  0.3710 -0.9762  0.4889
    3DOPE  H16X  379   3.160   5.300  13.503 -0.9107 -0.3818 -1.3744
    3DOPE  H16Y  380   3.218   5.468  13.554 -0.9939  0.6532  0.3865
    3DOPE  C317  381   3.014   5.453  13.488 -0.3173 -0.5635 -0.1864
    3DOPE  H17X  382   2.934   5.376  13.491  0.0152 -0.9084 -0.1602
    3DOPE  H17Y  383   2.966   5.532  13.550 -4.3969 -0.5683 -2.9350
    3DOPE  C318  384   3.029   5.502  13.347  0.2126  0.4660  0.3496
    3DOPE  H18X  385   3.107   5.581  13.334  1.3552 -0.8257 -1.0931
    3DOPE  H18Y  386   3.051   5.419  13.276  1.6242 -0.4440  1.7690
    3DOPE  H18Z  387   2.942   5.556  13.304  0.0268 -0.1120 -0.0166
    4DOPE     N  388   5.830   1.775  16.113  0.3924  0.0638 -0.0489
    4DOPE   HN1  389   5.748   1.714  16.132  1.1987 -0.5966  1.4541
    4DOPE   HN2  390   5.818   1.872  16.149 -3.3086  0.1005 -0.9990
    4DOPE   HN3  391   5.852   1.783  16.012  1.5531  1.2084  0.2605
    4DOPE   C12  392   5.947   1.727  16.193  0.2975  0.0191 -0.0256
    4DOPE  H12A  393   5.971   1.627  16.152  2.2753  0.6044 -0.3571
    4DOPE  H12B  394   5.910   1.711  16.297  2.2455  2.4818  1.1439
    4DOPE   C11  395   6.052   1.827  16.173 -0.6826  0.5951 -0.0162
    4DOPE  H11A  396   6.113   1.805  16.082  2.7932 -0.1872  2.2789
    4DOPE  H11B  397   6.128   1.819  16.254  0.8252  1.1070 -1.3097
    4DOPE     P  398   6.132   2.074  16.158 -0.0057  0.7020  0.3708
    4DOPE   O13  399   6.241   2.037  16.253 -0.4116 -0.1313  0.6702
    4DOPE   O14  400   6.055   2.200  16.171 -0.5827  0.5812 -0.0975
    4DOPE   O11  401   6.177   2.068  16.008 -0.3838 -0.8854  0.8001
    4DOPE   O12  402   6.017   1.963  16.162  0.2907 -0.3656 -0.4342
    4DOPE    C1  403   6.101   1.999  15.903 -0.3094  0.1848  0.2209
    4DOPE    HA  404   5.991   2.000  15.918 -0.0161  0.2512  2.7502
    4DOPE    HB  405   6.129   1.892  15.891 -0.9152  0.1712 -1.2263
    4DOPE    C2  406   6.127   2.057  15.764 -0.7611  0.1439 -0.1224
    4DOPE    HS  407   6.235   2.080  15.750 -1.0612  0.4778 -2.0735
    4DOPE   O21  408   6.032   2.172  15.760 -0.3889  0.9156 -0.0996
    4DOPE   C21  409   6.077   2.274  15.686  0.0560 -0.3381 -0.2415
    4DOPE   O22  410   6.182   2.288  15.625  0.2476 -0.3696  0.1429
    4DOPE   C22  411   5.963   2.386  15.706 -0.2318  0.0934  0.2232
    4DOPE   H2R  412   5.986   2.423  15.808  1.5045 -1.0598  0.2768
    4DOPE   H2S  413   5.860   2.343  15.700 -1.3508  2.4789  0.7823
    4DOPE    C3  414   6.110   1.960  15.648  0.6166  0.3278  0.1247
    4DOPE    HX  415   6.010   1.912  15.647 -0.3150  2.2048  0.1924
    4DOPE    HY  416   6.178   1.872  15.647  1.0529  0.6607  0.3846
    4DOPE   O31  417   6.115   2.028  15.524  0.0070  0.4406  0.1373
    4DOPE   C31  418   6.225   2.023  15.450  0.2185  0.5480 -0.1993
    4DOPE   O32  419   6.326   1.964  15.470  0.1673 -0.4054 -0.5313
    4DOPE   C32  420   6.208   2.118  15.334 -0.3417  0.2018 -0.3924
    4DOPE   H2X  421   6.143   2.197  15.377 -0.5567 -1.7275  3.2862
    4DOPE   H2Y  422   6.310   2.161  15.318  0.0092 -0.4560  0.0039
    4DOPE   C23  423   5.977   2.505  15.612 -0.0593  0.2921 -1.2127
    4DOPE   H3R  424   6.084   2.527  15.594 -0.1306  2.0518  0.2178
    4DOPE   H3S  425   5.937   2.602  15.649  1.0535  1.2485 -2.4612
    4DOPE   C24  426   5.902   2.479  15.478  0.3750  0.0379  0.3482
    4DOPE   H4R  427   5.796   2.508  15.496  0.3323 -0.3054  0.6578
    4DOPE   H4S  428   5.906   2.369  15.462 -1.0470  0.1221 -0.8206
    4DOPE   C25  429   5.967   2.554  15.360  0.7412 -0.6915 -0.2039
    4DOPE   H5R  430   6.075   2.531  15.371  0.7285  0.2417  2.7700
    4DOPE   H5S  431   5.946   2.663  15.372 -0.2445 -1.0629  1.9441
    4DOPE   C26  432   5.912   2.509  15.224 -0.0060 -0.3323 -0.3217
    4DOPE   H6R  433   5.924   2.401  15.202  0.4318 -0.5498  0.9342
    4DOPE   H6S  434   5.964   2.566  15.143 -2.0242  1.0486 -0.7332
    4DOPE   C27  435   5.764   2.553  15.211  0.8947  0.1196 -0.0661
    4DOPE   H7R  436   5.766   2.661  15.235 -0.1242  0.1565 -0.1365
    4DOPE   H7S  437   5.707   2.504  15.293  1.0060  0.5642  0.2806
    4DOPE   C28  438   5.692   2.539  15.077  0.8316 -0.2233  0.9149
    4DOPE   H8R  439   5.735   2.594  14.990  0.0359  1.9121  1.7890
    4DOPE   H8S  440   5.596   2.593  15.095  0.9120  1.2989 -2.4097
    4DOPE   C29  441   5.662   2.394  15.039  0.5137 -0.5019 -0.2579
    4DOPE   H9R  442   5.747   2.336  14.999 -1.3772 -3.0641 -0.7660
    4DOPE  C210  443   5.544   2.334  15.058  0.2823 -0.2896  1.1200
    4DOPE  H10R  444   5.536   2.228  15.028  1.4964 -0.1581  0.2018
    4DOPE  C211  445   5.418   2.387  15.104  0.8252 -0.5398 -0.5881
    4DOPE  H11R  446   5.433   2.462  15.185 -2.5595  0.0730 -0.3764
    4DOPE  H11S  447   5.353   2.312  15.154  0.4955  0.8880  1.2626
    4DOPE  C212  448   5.354   2.463  14.983  0.1512 -0.2485 -0.7131
    4DOPE  H12R  449   5.431   2.537  14.955 -0.2197  0.3239 -0.2403
    4DOPE  H12S  450   5.266   2.524  15.013  1.5719  1.8879 -0.7125
    4DOPE  C213  451   5.295   2.380  14.869 -0.3624  0.2462 -0.0727
    4DOPE  H13R  452   5.217   2.306  14.899 -1.4039  1.3765  0.0744
    4DOPE  H13S  453   5.369   2.312  14.823 -1.0658 -0.4494 -0.1989
    4DOPE  C214  454   5.227   2.459  14.761  0.3737  0.2631 -0.1103
    4DOPE  H14R  455   5.297   2.534  14.716 -0.7375  0.9636 -0.7171
    4DOPE  H14S  456   5.147   2.525  14.801  2.5350  3.1606 -0.2365
    4DOPE  C215  457   5.172   2.371  14.643  0.0516 -0.5923 -0.4060
    4DOPE  H15R  458   5.118   2.279  14.674 -0.6860 -0.2421 -0.6387
    4DOPE  H15S  459   5.260   2.353  14.578 -0.9830 -0.1371 -1.9926
    4DOPE  C216  460   5.071   2.448  14.558 -0.4328 -0.2146 -0.2824
    4DOPE  H16R  461   5.121   2.538  14.518  0.2558  0.0488  1.1063
    4DOPE  H16S  462   4.994   2.480  14.631 -0.1502 -1.4072  0.5796
    4DOPE  C217  463   5.025   2.366  14.448  0.1780 -0.0384 -1.0413
    4DOPE  H17R  464   4.962   2.431  14.383  2.6668  1.2034 -2.3324
    4DOPE  H17S  465   4.972   2.274  14.482  0.7634 -0.7785 -2.0702
    4DOPE  C218  466   5.140   2.316  14.356 -0.2406  0.5956 -0.4924
    4DOPE  H18R  467   5.205   2.248  14.416  0.8551  0.5091 -1.7138
    4DOPE  H18S  468   5.206   2.390  14.307  0.9887 -0.6583 -0.8157
    4DOPE  H18T  469   5.082   2.253  14.286 -0.4356  0.1783  0.0354
    4DOPE   C33  470   6.139   2.051  15.213  0.3432  0.0152  0.0226
    4DOPE   H3X  471   6.049   1.991  15.238  0.3819 -0.5796 -1.1922
    4DOPE   H3Y  472   6.208   1.974  15.172 -0.1889  0.5231 -1.8811
    4DOPE   C34  473   6.100   2.169  15.121  0.3789  0.1955 -0.1271
    4DOPE   H4X  474   6.012   2.218  15.169  0.5413  1.1842 -0.8191
    4DOPE   H4Y  475   6.184   2.241  15.113  2.4114 -1.9850  0.3225
    4DOPE   C35  476   6.044   2.108  14.993 -0.1641  0.3293  0.2691
    4DOPE   H5X  477   5.961   2.039  15.022 -1.3769  2.1734  1.4110
    4DOPE   H5Y  478   6.120   2.042  14.947 -2.4652 -1.3340 -1.3542
    4DOPE   C36  479   5.992   2.207  14.890  0.2650 -0.5094 -0.2779
    4DOPE   H6X  480   6.071   2.280  14.862 -0.8860  0.6375 -0.6956
    4DOPE   H6Y  481   5.923   2.276  14.944  0.1175 -0.3215 -0.6954
    4DOPE   C37  482   5.923   2.151  14.762 -0.2991  0.1284  0.0756
    4DOPE   H7X  483   5.995   2.083  14.713 -0.2121 -0.3495  0.8623
    4DOPE   H7Y  484   5.832   2.096  14.793 -0.3350 -0.3944 -0.9093
    4DOPE   C38  485   5.887   2.250  14.654 -0.1151 -0.5480 -0.3246
    4DOPE   H8X  486   5.861   2.196  14.560  1.4006 -0.7419 -0.6535
    4DOPE   H8Y  487   5.977   2.309  14.627 -1.5748  1.3015 -1.4021
    4DOPE   C39  488   5.790   2.351  14.710 -0.4444  0.6349  0.0378
    4DOPE   H9X  489   5.832   2.427  14.778 -0.6830  1.3570 -0.6053
    4DOPE  C310  490   5.663   2.365  14.674  0.2695  0.0547  0.5956
    4DOPE  H10X  491   5.606   2.434  14.738 -1.8181 -1.4683  0.4728
    4DOPE  C311  492   5.589   2.281  14.577 -0.2077 -0.2178 -0.2139
    4DOPE  H11X  493   5.638   2.181  14.569  0.5189  0.0511  0.7293
    4DOPE  H11Y  494   5.485   2.259  14.608 -0.5759 -0.0385 -1.3006
    4DOPE  C312  495   5.588   2.349  14.441 -0.1012 -1.1634  0.2414
    4DOPE  H12X  496   5.693   2.376  14.417 -0.1682  0.1839  1.3566
    4DOPE  H12Y  497   5.546   2.451  14.454  0.2797 -0.7800 -1.3356
    4DOPE  C313  498   5.512   2.280  14.328  0.5345 -0.1854  0.1964
    4DOPE  H13X  499   5.558   2.182  14.301 -0.1329 -0.0368 -1.6552
    4DOPE  H13Y  500   5.404   2.271  14.350 -0.3730  3.4675 -1.9144
    4DOPE  C314  501   5.527   2.373  14.204  0.3214 -0.1444 -0.6821
    4DOPE  H14X  502   5.637   2.377  14.191  0.3431 -0.1692 -0.4995
    4DOPE  H14Y  503   5.482   2.473  14.225  0.6083 -0.2279  0.4027
    4DOPE  C315  504   5.467   2.309  14.073 -0.0113  0.0480  0.0960
    4DOPE  H15X  505   5.484   2.367  13.980 -1.6769 -1.1982 -1.0385
    4DOPE  H15Y  506   5.357   2.298  14.083 -0.3465 -1.4598 -3.6818
    4DOPE  C316  507   5.521   2.168  14.041  0.2103 -1.0784 -0.3201
    4DOPE  H16X  508   5.491   2.097  14.122 -2.4957  1.9650  1.5919
    4DOPE  H16Y  509   5.631   2.180  14.033 -0.0347  1.4556 -0.7783
    4DOPE  C317  510   5.475   2.105  13.905  0.4238  0.2758  0.8233
    4DOPE  H17X  511   5.366   2.086  13.905  0.6486 -1.1425  0.4384
    4DOPE  H17Y  512   5.495   2.192  13.840  0.6855  1.4891  2.4712
    4DOPE  C318  513   5.545   1.977  13.856 -0.5682 -0.4888  0.4647
    4DOPE  H18X  514   5.502   1.899  13.923 -3.0579  0.1624 -0.2655
    4DOPE  H18Y  515   5.515   1.967  13.750 -0.5730  1.0633  0.2945
    4DOPE  H18Z  516   5.656   1.980  13.864 -0.5456  0.8492 -0.1181
    5DOPE     N  517   2.325   4.204  16.219  0.2230 -0.0461  0.4754
    5DOPE   HN1  518   2.383   4.259  16.152 -0.7177 -0.4183 -0.6746
    5DOPE   HN2  519   2.298   4.266  16.298  0.0843  0.0171  0.3790
    5DOPE   HN3  520   2.393   4.134  16.255 -0.8763 -1.1878  0.3909
    5DOPE   C12  521   2.222   4.127  16.136  0.4357 -0.3400 -0.3554
    5DOPE  H12A  522   2.218   4.023  16.175 -0.7984  0.6479  2.4074
    5DOPE  H12B  523   2.260   4.138  16.032 -0.5110 -1.2080 -0.8123
    5DOPE   C11  524   2.078   4.196  16.148  0.1124  0.3673  0.0733
    5DOPE  H11A  525   2.051   4.176  16.254 -1.7386 -0.4941 -0.5262
    5DOPE  H11B  526   2.015   4.126  16.089  1.3742 -0.6680 -0.0817
    5DOPE     P  527   1.978   4.429  16.141  0.1404  0.0109 -0.2711
    5DOPE   O13  528   2.015   4.494  16.267  0.1975  0.0238 -0.0765
    5DOPE   O14  529   1.842   4.367  16.121  0.5163 -0.2192 -0.0227
    5DOPE   O11  530   2.003   4.537  16.027  0.4019 -0.7076 -0.2103
    5DOPE   O12  531   2.084   4.324  16.107  0.8022 -0.1262 -0.4625
    5DOPE    C1  532   2.013   4.503  15.889  0.1779 -0.7879 -0.3859
    5DOPE    HA  533   1.948   4.580  15.840  1.1782  0.9123  0.8404
    5DOPE    HB  534   1.959   4.407  15.874 -1.7343  0.0662  0.6002
    5DOPE    C2  535   2.158   4.487  15.836  0.3707 -0.7776 -0.0677
    5DOPE    HS  536   2.196   4.413  15.909  0.6524 -0.1466  0.4336
    5DOPE   O21  537   2.213   4.622  15.843  0.1993  0.4038  0.4968
    5DOPE   C21  538   2.337   4.622  15.902  0.1738  0.5120  0.2978
    5DOPE   O22  539   2.389   4.517  15.938  0.5216 -0.2644 -0.0541
    5DOPE   C22  540   2.382   4.764  15.918 -0.5854 -0.4576 -0.2560
    5DOPE   H2R  541   2.485   4.752  15.959  0.2824  1.7651 -1.5994
    5DOPE   H2S  542   2.316   4.828  15.979 -0.6763 -0.0721 -0.7482
    5DOPE    C3  543   2.160   4.438  15.689 -0.5873  0.7009 -0.4300
    5DOPE    HX  544   2.094   4.502  15.626 -0.5587 -0.0400 -1.2367
    5DOPE    HY  545   2.114   4.336  15.692  1.6685 -0.3768  2.4442
    5DOPE   O31  546   2.298   4.437  15.637 -0.0332  0.2819  0.0246
    5DOPE   C31  547   2.369   4.326  15.660  0.1430  0.0815 -0.1668
    5DOPE   O32  548   2.319   4.217  15.685  0.4514 -0.0280  0.0644
    5DOPE   C32  549   2.515   4.365  15.642 -0.4616 -0.4767 -0.0836
    5DOPE   H2X  550   2.538   4.399  15.538  0.3841  1.1427  0.5953
    5DOPE   H2Y  551   2.538   4.442  15.719  1.6796  1.1090 -2.1446
    5DOPE   C23  552   2.397   4.845  15.787  0.6222  0.9640 -0.2422
    5DOPE   H3R  553   2.459   4.934  15.810  0.2013  0.9082  1.2099
    5DOPE   H3S  554   2.299   4.881  15.749 -1.1540 -1.4155  1.8058
    5DOPE   C24  555   2.476   4.764  15.684 -0.5099 -0.1259  1.1596
    5DOPE   H4R  556   2.420   4.686  15.626 -2.3850  0.6450  1.8537
    5DOPE   H4S  557   2.560   4.721  15.742 -1.3554 -3.0167  0.4074
    5DOPE   C25  558   2.547   4.843  15.574  0.2908 -0.5989 -0.8341
    5DOPE   H5R  559   2.592   4.934  15.621  0.1821 -1.0882  0.2465
    5DOPE   H5S  560   2.474   4.878  15.498  1.5732  0.8967 -1.4375
    5DOPE   C26  561   2.661   4.762  15.505 -0.2538 -1.1057  0.3845
    5DOPE   H6R  562   2.624   4.674  15.449  0.1020 -0.2192 -1.3156
    5DOPE   H6S  563   2.739   4.723  15.574  1.1355 -1.2549 -1.2022
    5DOPE   C27  564   2.728   4.841  15.384  0.1404  0.8104  0.6637
    5DOPE   H7R  565   2.762   4.941  15.418 -1.2200  1.5255 -0.0001
    5DOPE   H7S  566   2.647   4.855  15.310  0.4712 -1.0043 -0.0927
    5DOPE   C28  567   2.848   4.769  15.310 -0.6070  0.2602 -0.2095
    5DOPE   H8R  568   2.807   4.687  15.247 -1.4999  0.5956 -0.0859
    5DOPE   H8S  569   2.912   4.715  15.383  0.5856 -1.7592 -2.6036
    5DOPE   C29  570   2.937   4.871  15.236  0.3634  0.0604 -0.4128
    5DOPE   H9R  571   2.949   4.962  15.297 -3.1542  0.8041 -0.6183
    5DOPE  C210  572   2.979   4.866  15.112 -0.0412 -0.6355 -0.3437
    5DOPE  H10R  573   3.042   4.947  15.071 -0.6763 -0.2487 -0.5673
    5DOPE  C211  574   2.974   4.754  15.018 -0.0785 -0.0662  0.5327
    5DOPE  H11R  575   2.933   4.802  14.927  1.6496  2.1060  0.8221
    5DOPE  H11S  576   2.903   4.674  15.051  0.7536 -0.6775  0.8792
    5DOPE  C212  577   3.109   4.680  14.989  0.0177 -0.9459 -1.0935
    5DOPE  H12R  578   3.142   4.621  15.076  0.5148 -0.4985 -0.9713
    5DOPE  H12S  579   3.175   4.768  14.969 -0.2285 -0.5052 -0.0264
    5DOPE  C213  580   3.121   4.598  14.854  0.6459 -0.0173  0.3358
    5DOPE  H13R  581   3.223   4.601  14.811  1.3350 -0.4185  1.8449
    5DOPE  H13S  582   3.048   4.636  14.780 -0.2615 -1.7391  0.3111
    5DOPE  C214  583   3.081   4.453  14.892 -0.0251 -0.6965 -0.3355
    5DOPE  H14R  584   3.025   4.397  14.814  0.5923 -1.0653 -0.5283
    5DOPE  H14S  585   3.010   4.454  14.977 -0.3451  0.3106 -0.6033
    5DOPE  C215  586   3.209   4.386  14.930 -0.0229 -0.4259 -0.4465
    5DOPE  H15R  587   3.265   4.435  15.012 -1.0533 -0.4359  0.2740
    5DOPE  H15S  588   3.277   4.382  14.842 -0.8224 -2.8767 -1.0416
    5DOPE  C216  589   3.195   4.242  14.976 -0.4063  0.8907  0.3279
    5DOPE  H16R  590   3.115   4.252  15.052 -3.6250 -0.7563 -2.5755
    5DOPE  H16S  591   3.290   4.208  15.024  0.2206  2.4086  0.2286
    5DOPE  C217  592   3.144   4.147  14.864  0.1578  0.3048 -0.1728
    5DOPE  H17R  593   3.222   4.159  14.786  1.9491 -0.8067  1.3599
    5DOPE  H17S  594   3.048   4.177  14.815 -0.2957 -0.2913  0.3370
    5DOPE  C218  595   3.131   4.002  14.897  0.4607  0.0057 -0.7518
    5DOPE  H18R  596   3.228   3.963  14.932 -0.3289 -1.8802 -0.5514
    5DOPE  H18S  597   3.111   3.940  14.807  2.2332 -1.5677 -0.1254
    5DOPE  H18T  598   3.054   3.993  14.977 -1.0996  3.2558 -1.7265
    5DOPE   C33  599   2.619   4.249  15.652 -0.6352 -0.2134 -0.3572
    5DOPE   H3X  600   2.590   4.164  15.586  1.6846 -0.9698 -0.4897
    5DOPE   H3Y  601   2.630   4.212  15.756 -2.4931  3.2925  1.2705
    5DOPE   C34  602   2.761   4.304  15.614  0.2848  0.2718 -0.1609
    5DOPE   H4X  603   2.774   4.408  15.653  1.2402 -0.5915  2.0035
    5DOPE   H4Y  604   2.830   4.235  15.667 -0.7394 -0.4002  0.3175
    5DOPE   C35  605   2.792   4.283  15.464 -0.4254  0.0269 -0.5186
    5DOPE   H5X  606   2.738   4.359  15.405 -0.9176 -0.6070 -0.8977
    5DOPE   H5Y  607   2.753   4.183  15.435 -0.6517 -0.1982  0.4930
    5DOPE   C36  608   2.946   4.287  15.450  0.2826 -0.7420  0.0364
    5DOPE   H6X  609   3.004   4.193  15.465  1.8335 -0.3924 -2.9182
    5DOPE   H6Y  610   2.975   4.369  15.518 -2.3226  0.8661 -0.6386
    5DOPE   C37  611   2.982   4.335  15.307 -0.2347 -0.2604  0.6717
    5DOPE   H7X  612   2.952   4.260  15.230  1.4264  0.0422 -0.3074
    5DOPE   H7Y  613   2.916   4.423  15.291 -0.4751 -0.3655  1.0770
    5DOPE   C38  614   3.130   4.368  15.282 -0.4330 -0.5155  0.0954
    5DOPE   H8X  615   3.134   4.418  15.183 -1.0933 -0.4183  0.1175
    5DOPE   H8Y  616   3.187   4.273  15.289  0.3031 -0.0519  0.5988
    5DOPE   C39  617   3.181   4.474  15.381  0.0202  0.5592  0.5785
    5DOPE   H9X  618   3.119   4.564  15.391 -0.5593  0.3523 -0.9829
    5DOPE  C310  619   3.307   4.475  15.438 -0.3431  0.5242 -0.5427
    5DOPE  H10X  620   3.326   4.563  15.501 -0.7107 -0.1191  0.4867
    5DOPE  C311  621   3.412   4.368  15.416  0.1327 -0.4461 -0.5502
    5DOPE  H11X  622   3.448   4.330  15.513 -2.9033  0.9780  1.2977
    5DOPE  H11Y  623   3.372   4.281  15.359  0.0207  0.1991 -1.4947
    5DOPE  C312  624   3.534   4.428  15.346  0.2142 -0.4913  0.2702
    5DOPE  H12X  625   3.608   4.346  15.346  0.1541 -0.5532 -0.7365
    5DOPE  H12Y  626   3.585   4.517  15.388  3.2806 -1.7899 -0.4237
    5DOPE  C313  627   3.504   4.467  15.197  0.2350  0.1110 -0.1951
    5DOPE  H13X  628   3.460   4.377  15.148 -1.0529  1.7095 -2.1099
    5DOPE  H13Y  629   3.426   4.546  15.196  1.5536  1.4594 -1.6222
    5DOPE  C314  630   3.624   4.516  15.122 -0.5509 -0.1966 -0.0802
    5DOPE  H14X  631   3.700   4.435  15.134 -1.0552 -0.4806  1.3178
    5DOPE  H14Y  632   3.662   4.607  15.171 -0.6903  0.0533 -0.4327
    5DOPE  C315  633   3.598   4.540  14.975 -0.1195 -0.4499  1.3318
    5DOPE  H15X  634   3.539   4.631  14.952 -0.2248 -0.8078  0.1395
    5DOPE  H15Y  635   3.544   4.451  14.937 -2.4954  1.5466 -0.2974
    5DOPE  C316  636   3.723   4.554  14.888  0.3026 -0.1452 -0.0676
    5DOPE  H16X  637   3.791   4.470  14.910  2.9134  1.7047 -0.6038
    5DOPE  H16Y  638   3.780   4.643  14.922 -1.5091  1.5262 -1.1828
    5DOPE  C317  639   3.695   4.568  14.737 -0.0506  0.1630 -0.6479
    5DOPE  H17X  640   3.633   4.483  14.702  0.0135  1.2120 -3.5986
    5DOPE  H17Y  641   3.641   4.665  14.730  0.7561  0.7930  1.3512
    5DOPE  C318  642   3.819   4.569  14.647 -0.2191  1.0330 -0.1809
    5DOPE  H18X  643   3.860   4.467  14.662 -1.0989  0.5539 -0.9484
    5DOPE  H18Y  644   3.787   4.575  14.541 -2.0742 -3.3803 -0.0839
    5DOPE  H18Z  645   3.900   4.644  14.658  1.0510 -0.1082 -1.3539
    6DOPE     N  646   1.535   4.651  15.876  0.3718  0.1894 -0.2140
    6DOPE   HN1  647   1.560   4.752  15.873 -0.7538  0.4833 -0.1247
    6DOPE   HN2  648   1.530   4.611  15.780 -0.1998  1.0398 -0.5456
    6DOPE   HN3  649   1.440   4.631  15.913  0.9191 -0.6533  0.8110
    6DOPE   C12  650   1.627   4.581  15.974  0.1116  0.0647  0.3378
    6DOPE  H12A  651   1.728   4.614  15.944  0.0814  0.6627  0.8632
    6DOPE  H12B  652   1.628   4.471  15.961  2.0301 -0.0443  1.1897
    6DOPE   C11  653   1.600   4.633  16.117  0.7951  0.7563  0.4090
    6DOPE  H11A  654   1.679   4.598  16.187 -0.4772 -1.6921  0.7339
    6DOPE  H11B  655   1.510   4.576  16.148 -0.1889  1.0752 -1.6869
    6DOPE     P  656   1.674   4.887  16.116 -0.0618 -0.0382  0.2342
    6DOPE   O13  657   1.802   4.833  16.166 -0.0142 -0.0792 -0.1337
    6DOPE   O14  658   1.628   5.014  16.167  0.6939  0.2889 -0.2121
    6DOPE   O11  659   1.675   4.901  15.959  0.0477 -0.3454 -0.2644
    6DOPE   O12  660   1.562   4.770  16.119  0.0591 -0.0530 -0.3318
    6DOPE    C1  661   1.646   5.027  15.887 -0.4200  0.1243  0.0983
    6DOPE    HA  662   1.708   5.113  15.919 -0.4179  0.5068 -0.9053
    6DOPE    HB  663   1.539   5.052  15.878 -0.0159  1.8763 -0.2265
    6DOPE    C2  664   1.687   5.009  15.730  0.4038 -0.0379 -0.1199
    6DOPE    HS  665   1.630   4.923  15.689  0.1823 -0.2088  0.5462
    6DOPE   O21  666   1.822   4.994  15.722 -0.2810  0.0095  0.1736
    6DOPE   C21  667   1.877   4.872  15.689  0.1788 -1.0053 -0.4620
    6DOPE   O22  668   1.813   4.774  15.669  0.0755 -0.1874 -0.3959
    6DOPE   C22  669   2.034   4.874  15.686 -0.4512 -0.0146 -0.1010
    6DOPE   H2R  670   2.062   4.769  15.711 -1.8052 -0.7343 -1.4139
    6DOPE   H2S  671   2.083   4.935  15.765 -1.0959  0.6094 -0.1753
    6DOPE    C3  672   1.650   5.138  15.649  0.5947  0.5640 -0.3876
    6DOPE    HX  673   1.696   5.224  15.703  1.6482  2.5546 -4.1241
    6DOPE    HY  674   1.541   5.155  15.659  0.6087  0.1628  0.5283
    6DOPE   O31  675   1.701   5.150  15.521 -0.0836 -0.4424  0.2474
    6DOPE   C31  676   1.637   5.081  15.422 -0.5434  0.2580 -0.2615
    6DOPE   O32  677   1.551   5.000  15.441 -0.1631  0.7138  0.0966
    6DOPE   C32  678   1.706   5.096  15.290 -0.5412  0.0106 -0.2889
    6DOPE   H2X  679   1.701   5.197  15.244  1.4409  0.5885  0.6502
    6DOPE   H2Y  680   1.810   5.069  15.322 -0.9516 -2.0037 -0.4941
    6DOPE   C23  681   2.089   4.920  15.550  0.8670  0.4824 -0.1751
    6DOPE   H3R  682   2.192   4.957  15.570  0.9747  0.5420 -0.8116
    6DOPE   H3S  683   2.032   5.008  15.512 -1.3560 -1.0302 -0.5363
    6DOPE   C24  684   2.094   4.804  15.451 -0.2169  0.4342  0.3457
    6DOPE   H4R  685   2.014   4.732  15.477 -0.6800  0.6443 -0.4630
    6DOPE   H4S  686   2.185   4.740  15.462 -0.1249  0.3711 -0.6279
    6DOPE   C25  687   2.093   4.840  15.305 -0.4021 -0.3662 -0.5541
    6DOPE   H5R  688   1.998   4.892  15.281  0.2695  1.3154  0.3319
    6DOPE   H5S  689   2.104   4.754  15.236 -0.7668 -0.4552 -0.5049
    6DOPE   C26  690   2.201   4.940  15.251 -0.2191  0.0469  0.1407
    6DOPE   H6R  691   2.295   4.885  15.274 -0.0623 -0.1599 -0.9295
    6DOPE   H6S  692   2.206   5.036  15.306 -0.7613  0.8841 -1.2358
    6DOPE   C27  693   2.189   4.962  15.097 -0.6902  0.0383 -0.0201
    6DOPE   H7R  694   2.098   5.026  15.089  0.3616  2.0799  2.6981
    6DOPE   H7S  695   2.175   4.864  15.046 -2.5104 -0.4300  1.2897
    6DOPE   C28  696   2.308   5.052  15.043  0.5269 -0.1705 -0.3264
    6DOPE   H8R  697   2.299   5.147  15.101  2.0207 -1.2743  1.8444
    6DOPE   H8S  698   2.290   5.085  14.938 -0.0455  0.3602 -0.0674
    6DOPE   C29  699   2.449   4.995  15.058  0.1622  0.7928  0.3715
    6DOPE   H9R  700   2.475   4.951  15.156  1.2458 -0.6160 -0.5107
    6DOPE  C210  701   2.539   4.982  14.956  0.4270  0.4928 -0.3299
    6DOPE  H10R  702   2.620   4.913  14.982 -0.9468 -2.1293 -2.4979
    6DOPE  C211  703   2.519   5.024  14.812 -0.0297 -0.3062 -0.2268
    6DOPE  H11R  704   2.440   5.097  14.786  1.5621  1.7507  0.3993
    6DOPE  H11S  705   2.489   4.930  14.761 -0.7540 -0.5031  0.5487
    6DOPE  C212  706   2.650   5.087  14.758 -0.6102 -0.0454 -0.0014
    6DOPE  H12R  707   2.732   5.024  14.797 -0.1602  0.8748  0.5732
    6DOPE  H12S  708   2.658   5.193  14.790  0.4842  0.0267 -0.4711
    6DOPE  C213  709   2.662   5.085  14.605  0.0847 -0.1292  0.4685
    6DOPE  H13R  710   2.586   5.157  14.568  1.2075 -0.1566 -2.0378
    6DOPE  H13S  711   2.640   4.987  14.557  0.2564 -0.9429  2.0010
    6DOPE  C214  712   2.800   5.128  14.560  0.6035 -0.1331 -0.3801
    6DOPE  H14R  713   2.874   5.100  14.639  2.0692  0.4531 -1.4971
    6DOPE  H14S  714   2.800   5.238  14.568 -0.1711 -0.1100 -0.6389
    6DOPE  C215  715   2.838   5.080  14.420 -0.2852  0.0372 -0.0438
    6DOPE  H15R  716   2.753   5.101  14.352 -2.1868  0.8903  2.4252
    6DOPE  H15S  717   2.853   4.971  14.435 -3.1841 -0.7119 -1.8642
    6DOPE  C216  718   2.970   5.146  14.371 -0.4440  0.0742 -0.4063
    6DOPE  H16R  719   3.035   5.148  14.461  0.1558  0.4556 -0.8380
    6DOPE  H16S  720   2.936   5.250  14.352 -1.9332  0.2256  2.6447
    6DOPE  C217  721   3.034   5.078  14.252 -0.2904 -0.2322  0.5512
    6DOPE  H17R  722   3.048   4.969  14.262  1.4134  0.0034  1.0083
    6DOPE  H17S  723   3.131   5.129  14.236 -1.6637  1.7218 -2.5565
    6DOPE  C218  724   2.951   5.109  14.123 -0.0327  0.0032 -0.8709
    6DOPE  H18R  725   2.949   5.217  14.097  3.0117  0.1264 -0.8817
    6DOPE  H18S  726   2.844   5.084  14.142 -0.0292 -0.0302 -0.8958
    6DOPE  H18T  727   2.988   5.052  14.035  0.3969 -4.5825  1.9750
    6DOPE   C33  728   1.668   4.987  15.185 -0.2588  0.3208  0.0781
    6DOPE   H3X  729   1.563   4.995  15.149 -0.7425 -1.3079  1.0339
    6DOPE   H3Y  730   1.681   4.884  15.225 -0.7181 -0.2745 -1.2573
    6DOPE   C34  731   1.760   4.991  15.058  0.0454 -0.5942  0.2414
    6DOPE   H4X  732   1.864   5.013  15.093 -0.7513 -0.4145  2.6926
    6DOPE   H4Y  733   1.763   4.891  15.008 -1.7352 -0.8425  0.5746
    6DOPE   C35  734   1.715   5.101  14.950 -0.4493 -0.5465  0.1234
    6DOPE   H5X  735   1.713   5.197  15.006  2.1743 -0.0604 -0.4899
    6DOPE   H5Y  736   1.613   5.070  14.919 -0.5640 -1.5846  1.4172
    6DOPE   C36  737   1.814   5.139  14.839  0.2135 -0.7255 -0.1230
    6DOPE   H6X  738   1.920   5.149  14.871  0.1186  1.2894 -0.3127
    6DOPE   H6Y  739   1.781   5.235  14.796 -1.0136 -1.3961 -0.7467
    6DOPE   C37  740   1.818   5.042  14.720 -0.4972  0.1228 -0.6347
    6DOPE   H7X  741   1.867   4.952  14.762  0.2452  1.0262  0.4685
    6DOPE   H7Y  742   1.716   5.012  14.686 -1.1362  0.7305  0.6613
    6DOPE   C38  743   1.912   5.072  14.605  0.4457  0.6002  1.3457
    6DOPE   H8X  744   1.873   5.157  14.545 -1.1747 -1.7437 -1.2017
    6DOPE   H8Y  745   1.896   4.991  14.530 -0.2442  3.2618 -1.5994
    6DOPE   C39  746   2.055   5.090  14.650  0.2233  0.1693 -0.0197
    6DOPE   H9X  747   2.079   5.197  14.662  3.2386 -0.2615 -1.2433
    6DOPE  C310  748   2.155   4.994  14.661 -0.8929 -0.6531  0.3374
    6DOPE  H10X  749   2.256   5.027  14.686 -0.7217  0.7771 -1.9402
    6DOPE  C311  750   2.150   4.851  14.635  1.1732 -0.1246  0.0961
    6DOPE  H11X  751   2.221   4.799  14.703  0.1850 -0.9738  0.5160
    6DOPE  H11Y  752   2.050   4.818  14.671  0.2549  0.9834 -1.3325
    6DOPE  C312  753   2.143   4.787  14.497  0.4166  0.4065 -1.2520
    6DOPE  H12X  754   2.059   4.830  14.440  1.4154  1.9387 -1.6248
    6DOPE  H12Y  755   2.126   4.677  14.504 -0.9360  0.6447 -0.3765
    6DOPE  C313  756   2.277   4.807  14.432  0.0016 -0.0290  0.1770
    6DOPE  H13X  757   2.290   4.916  14.416  2.2312 -0.3842 -0.8719
    6DOPE  H13Y  758   2.353   4.773  14.506 -1.1741  1.1897  2.0492
    6DOPE  C314  759   2.296   4.740  14.295 -0.0473 -0.1729 -0.3899
    6DOPE  H14X  760   2.191   4.740  14.258 -1.4225 -0.8881  3.1141
    6DOPE  H14Y  761   2.327   4.634  14.300 -0.0933 -0.1369  0.8509
    6DOPE  C315  762   2.369   4.815  14.188  0.2683  0.3422  0.0473
    6DOPE  H15X  763   2.321   4.915  14.184 -1.2015 -0.1829  2.3156
    6DOPE  H15Y  764   2.361   4.772  14.086  1.9309 -0.4263  0.1947
    6DOPE  C316  765   2.519   4.845  14.214  0.1618  0.7488 -0.5327
    6DOPE  H16X  766   2.579   4.751  14.223  0.1481  0.9212  1.9910
    6DOPE  H16Y  767   2.519   4.887  14.316  1.7766  0.0912 -0.2305
    6DOPE  C317  768   2.590   4.949  14.118  0.3570  0.1419  0.0738
    6DOPE  H17X  769   2.558   5.053  14.142  0.6668  0.8237 -2.2300
    6DOPE  H17Y  770   2.693   4.948  14.161 -0.1805 -1.2344  1.4257
    6DOPE  C318  771   2.598   4.926  13.964 -0.2325  0.5890  0.8028
    6DOPE  H18X  772   2.689   4.972  13.920  1.2934 -1.3012  1.7950
    6DOPE  H18Y  773   2.604   4.819  13.934 -2.4661  0.8465 -0.8104
    6DOPE  H18Z  774   2.514   4.972  13.908  0.8095  0.1578 -1.2156
    7DOPE     N  775   4.431   7.077  16.151 -0.2874  0.2326  0.3952
    7DOPE   HN1  776   4.443   6.999  16.219 -0.3217 -0.4745 -0.3909
    7DOPE   HN2  777   4.498   7.059  16.073 -0.3021 -2.2080  0.8699
    7DOPE   HN3  778   4.463   7.169  16.189 -0.1169  0.0858  0.6105
    7DOPE   C12  779   4.287   7.078  16.111  0.6877  0.7217  0.0318
    7DOPE  H12A  780   4.225   7.063  16.202 -0.4966 -0.4972 -0.9414
    7DOPE  H12B  781   4.271   6.988  16.048  0.8666  0.6227  0.1250
    7DOPE   C11  782   4.251   7.206  16.044 -0.3935  0.1185 -0.6999
    7DOPE  H11A  783   4.261   7.291  16.116  0.3601 -0.1368 -0.5020
    7DOPE  H11B  784   4.144   7.208  16.015 -1.1474 -0.8459  1.7351
    7DOPE     P  785   4.318   7.160  15.793  0.2435 -0.0729  0.0039
    7DOPE   O13  786   4.206   7.060  15.806  0.0631 -0.6244 -0.5087
    7DOPE   O14  787   4.442   7.115  15.728 -0.0329  0.2055 -0.1574
    7DOPE   O11  788   4.262   7.294  15.725 -0.2688 -0.2176  0.0029
    7DOPE   O12  789   4.348   7.223  15.934 -0.2686  0.2734 -0.3228
    7DOPE    C1  790   4.351   7.406  15.724  0.1873  0.0337  0.1782
    7DOPE    HA  791   4.453   7.389  15.764  0.8647 -3.3618 -2.4894
    7DOPE    HB  792   4.305   7.491  15.778 -0.6031  0.9656 -1.8590
    7DOPE    C2  793   4.386   7.439  15.572  0.5861  0.2295 -0.1068
    7DOPE    HS  794   4.450   7.530  15.565 -0.1268  0.6541 -1.5733
    7DOPE   O21  795   4.257   7.466  15.507  0.1024 -0.6580  0.2281
    7DOPE   C21  796   4.204   7.587  15.522  0.6900  0.1222 -0.7109
    7DOPE   O22  797   4.246   7.678  15.591 -0.7007  0.2257 -0.0237
    7DOPE   C22  798   4.074   7.603  15.438  0.0544 -0.0845 -0.5311
    7DOPE   H2R  799   4.067   7.714  15.429  0.2323 -0.1533 -1.6874
    7DOPE   H2S  800   3.993   7.561  15.502  0.4157 -0.1775 -0.1287
    7DOPE    C3  801   4.463   7.319  15.492 -0.3534  0.3053  0.3760
    7DOPE    HX  802   4.384   7.242  15.482 -1.3854  1.5108 -1.5547
    7DOPE    HY  803   4.539   7.278  15.562  2.5868  1.2138 -2.0478
    7DOPE   O31  804   4.522   7.356  15.370 -0.5574  0.0580  0.3185
    7DOPE   C31  805   4.442   7.372  15.260  0.1913  0.2457 -0.0696
    7DOPE   O32  806   4.328   7.328  15.264  0.2628 -0.2752  0.0381
    7DOPE   C32  807   4.504   7.432  15.138 -0.3564 -0.2276  0.6650
    7DOPE   H2X  808   4.503   7.349  15.065 -0.6007  1.8940 -1.8710
    7DOPE   H2Y  809   4.430   7.508  15.106 -3.1749 -2.9843  0.2087
    7DOPE   C23  810   4.071   7.545  15.286  0.0936  0.1803 -0.0456
    7DOPE   H3R  811   4.077   7.436  15.308  0.1695 -0.2119 -1.9060
    7DOPE   H3S  812   4.161   7.586  15.236  0.6248 -1.1089 -0.2023
    7DOPE   C24  813   3.948   7.577  15.204  0.2734 -0.4296 -0.1416
    7DOPE   H4R  814   3.965   7.527  15.106 -1.9691 -0.4461 -0.5948
    7DOPE   H4S  815   3.941   7.686  15.185 -3.2879 -0.6317 -0.6746
    7DOPE   C25  816   3.813   7.533  15.262  0.2010  1.1084 -0.4727
    7DOPE   H5R  817   3.812   7.562  15.369  1.2075 -1.4650  0.3269
    7DOPE   H5S  818   3.800   7.423  15.271  1.6938  0.9809  0.4609
    7DOPE   C26  819   3.707   7.594  15.179  0.2224  0.2643  0.0259
    7DOPE   H6R  820   3.718   7.564  15.072  0.2046  1.8754 -0.4551
    7DOPE   H6S  821   3.715   7.705  15.175  2.4226  0.1452 -0.1890
    7DOPE   C27  822   3.574   7.553  15.239  0.4899  0.1619 -0.3176
    7DOPE   H7R  823   3.566   7.611  15.333  1.6815 -1.7568  1.0397
    7DOPE   H7S  824   3.570   7.446  15.269  1.2214  0.9777  3.1103
    7DOPE   C28  825   3.454   7.590  15.153  0.0975 -0.5191 -0.0135
    7DOPE   H8R  826   3.360   7.543  15.190  1.1716 -0.9612  2.3129
    7DOPE   H8S  827   3.474   7.535  15.059  0.3636 -0.9465  0.2905
    7DOPE   C29  828   3.421   7.742  15.142 -0.2558 -0.1977  0.5145
    7DOPE   H9R  829   3.342   7.782  15.206 -1.1648  0.2052 -0.8201
    7DOPE  C210  830   3.449   7.820  15.041 -0.6725  0.2038 -0.0814
    7DOPE  H10R  831   3.410   7.922  15.040  1.6509  1.1920  1.3401
    7DOPE  C211  832   3.553   7.785  14.935 -0.5581 -0.1625  0.0833
    7DOPE  H11R  833   3.635   7.716  14.967 -0.7217  0.4958  2.0278
    7DOPE  H11S  834   3.615   7.876  14.921 -2.4817  0.8719 -2.5042
    7DOPE  C212  835   3.493   7.761  14.801 -0.3003  0.5430  0.3103
    7DOPE  H12R  836   3.420   7.840  14.772 -2.2566 -1.4072 -0.3183
    7DOPE  H12S  837   3.454   7.657  14.802  2.3455 -0.5754 -1.3875
    7DOPE  C213  838   3.609   7.757  14.700  0.3181  0.2130  0.2479
    7DOPE  H13R  839   3.673   7.675  14.739 -0.4491  0.5618  2.4019
    7DOPE  H13S  840   3.664   7.853  14.691 -0.3416  0.5308 -0.5038
    7DOPE  C214  841   3.566   7.717  14.559  0.3428  0.5215  0.8618
    7DOPE  H14R  842   3.496   7.631  14.572 -2.1031  1.9247 -1.8139
    7DOPE  H14S  843   3.655   7.680  14.503 -0.4632 -1.8953  1.0703
    7DOPE  C215  844   3.485   7.816  14.467  0.4307 -0.8702 -0.3345
    7DOPE  H15R  845   3.495   7.915  14.516 -0.1863 -0.7534 -0.4402
    7DOPE  H15S  846   3.374   7.806  14.466  0.2831  0.6408 -0.8971
    7DOPE  C216  847   3.532   7.832  14.326  0.0646 -0.1736 -0.1794
    7DOPE  H16R  848   3.639   7.861  14.326 -0.2761  1.2318 -1.0837
    7DOPE  H16S  849   3.485   7.924  14.284  0.4502  0.7507  1.3546
    7DOPE  C217  850   3.525   7.715  14.228 -0.0116  0.7705  0.1391
    7DOPE  H17R  851   3.418   7.691  14.212  0.1606  0.4132 -0.4942
    7DOPE  H17S  852   3.575   7.625  14.270  1.8918  1.2429 -0.9430
    7DOPE  C218  853   3.580   7.743  14.087  0.5861 -0.6875 -0.2039
    7DOPE  H18R  854   3.686   7.711  14.083  1.0080  0.4184  1.3051
    7DOPE  H18S  855   3.566   7.852  14.070  2.9595 -0.3614 -0.3406
    7DOPE  H18T  856   3.516   7.683  14.019 -1.4704 -0.9577  1.8427
    7DOPE   C33  857   4.650   7.490  15.145  0.3036  0.2367 -0.4130
    7DOPE   H3X  858   4.717   7.421  15.200  0.3172 -0.8952 -1.8073
    7DOPE   H3Y  859   4.638   7.587  15.199  0.2838  0.7642 -1.3499
    7DOPE   C34  860   4.702   7.526  15.009 -0.0243  1.4650 -0.4343
    7DOPE   H4X  861   4.626   7.572  14.943 -1.8590 -0.5704  0.1597
    7DOPE   H4Y  862   4.778   7.607  15.016  0.7906  0.6265  0.6421
    7DOPE   C35  863   4.767   7.409  14.934 -0.4631 -0.7051 -0.8176
    7DOPE   H5X  864   4.699   7.322  14.932 -1.2459 -0.0959 -1.9603
    7DOPE   H5Y  865   4.857   7.381  14.993 -0.7340  1.5115  0.7840
    7DOPE   C36  866   4.810   7.436  14.787  0.2659 -0.3199 -1.0617
    7DOPE   H6X  867   4.731   7.492  14.732 -1.0532 -1.3320 -0.2766
    7DOPE   H6Y  868   4.826   7.341  14.731  0.1571 -1.1734  0.3162
    7DOPE   C37  869   4.945   7.513  14.776 -0.2102 -0.2178  0.0760
    7DOPE   H7X  870   4.953   7.564  14.677 -2.8443 -2.1994 -1.2988
    7DOPE   H7Y  871   4.965   7.583  14.860 -0.4531  0.4220 -0.3887
    7DOPE   C38  872   5.052   7.402  14.774  0.3575  0.6358  0.5518
    7DOPE   H8X  873   5.036   7.352  14.676 -0.4607  0.1089  0.9443
    7DOPE   H8Y  874   5.049   7.329  14.857  0.2248 -0.8724 -0.7239
    7DOPE   C39  875   5.194   7.454  14.778 -0.1175 -0.0512  0.9964
    7DOPE   H9X  876   5.236   7.461  14.879  0.3706  1.1707  0.7263
    7DOPE  C310  877   5.272   7.483  14.670 -0.2808 -0.3202  0.3629
    7DOPE  H10X  878   5.372   7.525  14.686 -0.0944 -0.8648  0.6205
    7DOPE  C311  879   5.222   7.464  14.529 -0.0307  0.4857 -0.4872
    7DOPE  H11X  880   5.272   7.375  14.484 -1.4290  0.4763 -2.1523
    7DOPE  H11Y  881   5.112   7.451  14.519 -0.4222  0.5636  2.6490
    7DOPE  C312  882   5.265   7.566  14.421 -0.0881 -0.0164  0.2248
    7DOPE  H12X  883   5.235   7.524  14.322 -2.0922  2.8986 -0.5447
    7DOPE  H12Y  884   5.375   7.573  14.423 -0.1206  0.4617  0.4407
    7DOPE  C313  885   5.196   7.695  14.454 -0.3514  0.2663  0.5245
    7DOPE  H13X  886   5.090   7.680  14.424 -0.0352  2.1855 -1.8656
    7DOPE  H13Y  887   5.199   7.708  14.565 -0.2837 -0.7943  0.6570
    7DOPE  C314  888   5.247   7.822  14.378  0.1357 -0.4019  0.1567
    7DOPE  H14X  889   5.348   7.844  14.418 -0.3439  1.7642  0.3154
    7DOPE  H14Y  890   5.188   7.911  14.408  1.7662  0.4520  0.9554
    7DOPE  C315  891   5.233   7.807  14.232 -0.1068  0.0436 -0.8241
    7DOPE  H15X  892   5.130   7.807  14.192 -0.4808  0.1863  0.1246
    7DOPE  H15Y  893   5.268   7.705  14.205  2.5324  0.7731 -0.5102
    7DOPE  C316  894   5.315   7.912  14.156  0.4174  0.4703  0.1762
    7DOPE  H16X  895   5.325   7.890  14.047  0.3368  0.9774  0.0607
    7DOPE  H16Y  896   5.416   7.910  14.202 -0.9647 -0.7286  3.4325
    7DOPE  C317  897   5.254   8.048  14.181 -0.3451 -0.8831  0.2619
    7DOPE  H17X  898   5.145   8.051  14.159 -0.4654 -0.7328  0.8440
    7DOPE  H17Y  899   5.266   8.091  14.283  0.9675 -0.8117  0.0909
    7DOPE  C318  900   5.319   8.132  14.065  0.4416 -0.1521 -0.0733
    7DOPE  H18X  901   5.309   8.242  14.079 -2.2363 -0.2556 -0.6407
    7DOPE  H18Y  902   5.428   8.115  14.060  0.0867 -2.4690 -3.2196
    7DOPE  H18Z  903   5.281   8.115  13.962  2.3999  2.0780 -1.2549
    8DOPE     N  904   7.188   6.581  15.867  0.2690 -0.0902 -0.4219
    8DOPE   HN1  905   7.271   6.644  15.870  0.0224  0.2552 -0.8926
    8DOPE   HN2  906   7.206   6.478  15.875  2.1781  0.0404 -2.1569
    8DOPE   HN3  907   7.152   6.604  15.773  1.8512  2.2917 -0.5170
    8DOPE   C12  908   7.080   6.629  15.970 -0.8245  0.1882 -0.0634
    8DOPE  H12A  909   7.089   6.567  16.062 -0.9582  0.9092  0.4368
    8DOPE  H12B  910   6.988   6.605  15.913  1.0777 -0.0709 -3.2885
    8DOPE   C11  911   7.085   6.777  16.011  0.3852  0.2051 -0.2051
    8DOPE  H11A  912   7.179   6.797  16.066 -1.3814 -0.8236  3.6063
    8DOPE  H11B  913   7.000   6.799  16.081  1.7737  2.0457  0.9969
    8DOPE     P  914   7.091   7.017  15.905  0.3314 -0.1224  0.3513
    8DOPE   O13  915   7.220   7.061  15.971  0.0673 -0.1885  0.0974
    8DOPE   O14  916   6.957   7.060  15.956  0.0293 -0.5800 -0.1464
    8DOPE   O11  917   7.100   7.031  15.746  0.6122 -0.4306 -0.4104
    8DOPE   O12  918   7.088   6.861  15.899 -0.7543 -0.6771  0.2454
    8DOPE    C1  919   7.226   7.045  15.689  0.3198  0.2299  0.5544
    8DOPE    HA  920   7.217   7.025  15.580  0.4932 -0.1083  0.6029
    8DOPE    HB  921   7.311   6.980  15.717  1.4686  0.9198 -1.1492
    8DOPE    C2  922   7.280   7.192  15.703 -0.1860  0.7387  0.0761
    8DOPE    HS  923   7.327   7.203  15.803 -0.4899  0.8327  0.2136
    8DOPE   O21  924   7.182   7.296  15.683 -0.1621  0.2921 -0.0857
    8DOPE   C21  925   7.215   7.418  15.721 -0.2273  0.2072  0.1409
    8DOPE   O22  926   7.321   7.442  15.776 -0.1067  0.2412  0.0284
    8DOPE   C22  927   7.105   7.519  15.690 -0.3212  0.0807 -0.2487
    8DOPE   H2R  928   7.157   7.613  15.719  0.0190 -0.0433 -0.4465
    8DOPE   H2S  929   7.018   7.497  15.756  1.5808 -1.3419  1.9907
    8DOPE    C3  930   7.381   7.217  15.585  0.2325  0.1296 -0.1639
    8DOPE    HX  931   7.427   7.318  15.597  1.0784 -0.1417 -0.9688
    8DOPE    HY  932   7.312   7.224  15.498 -1.1762  0.7641  0.9569
    8DOPE   O31  933   7.470   7.104  15.554 -0.1889 -0.0510  0.3720
    8DOPE   C31  934   7.580   7.095  15.641 -0.4276 -0.2779  0.2671
    8DOPE   O32  935   7.602   7.181  15.723  0.4644  0.6547 -0.0907
    8DOPE   C32  936   7.662   6.972  15.608  0.6064  0.0158 -0.1506
    8DOPE   H2X  937   7.677   6.911  15.699 -1.7540 -0.0576  0.2493
    8DOPE   H2Y  938   7.613   6.913  15.527 -0.2215 -0.4011  0.6374
    8DOPE   C23  939   7.064   7.521  15.544 -0.3699  0.2461  0.3144
    8DOPE   H3R  940   6.975   7.583  15.518 -0.5944 -0.0648  0.3354
    8DOPE   H3S  941   7.073   7.420  15.498 -0.3151 -0.0188  0.9015
    8DOPE   C24  942   7.175   7.588  15.462 -0.6735  0.6185 -0.4962
    8DOPE   H4R  943   7.267   7.527  15.478 -0.9657  0.1011 -0.7833
    8DOPE   H4S  944   7.208   7.689  15.493  0.3379  0.2575 -0.3671
    8DOPE   C25  945   7.147   7.586  15.314 -0.7923 -0.4748 -0.2067
    8DOPE   H5R  946   7.054   7.641  15.291 -0.4376 -0.4129 -1.5966
    8DOPE   H5S  947   7.122   7.482  15.282 -1.9621  0.0873 -1.1621
    8DOPE   C26  948   7.265   7.628  15.226  0.4228 -0.3569 -0.0748
    8DOPE   H6R  949   7.280   7.738  15.227 -0.0336 -0.2766  1.3833
    8DOPE   H6S  950   7.231   7.603  15.124  0.5723  0.2376 -0.2673
    8DOPE   C27  951   7.402   7.553  15.246 -0.5588  0.1417  0.0543
    8DOPE   H7R  952   7.439   7.584  15.346 -0.1658  1.1624 -0.3987
    8DOPE   H7S  953   7.476   7.588  15.172 -1.3428  1.8233  0.0277
    8DOPE   C28  954   7.379   7.405  15.232 -0.3581 -0.2614 -0.2944
    8DOPE   H8R  955   7.316   7.360  15.311  0.9374  2.6108  2.5823
    8DOPE   H8S  956   7.477   7.371  15.273 -1.3477 -0.7711  1.7968
    8DOPE   C29  957   7.368   7.354  15.090 -0.5842 -0.6897 -0.3202
    8DOPE   H9R  958   7.268   7.353  15.044 -0.8632 -0.6426  0.2813
    8DOPE  C210  959   7.466   7.337  15.002 -1.0401  0.1636  0.5949
    8DOPE  H10R  960   7.437   7.288  14.907 -0.0858  0.6198  0.0523
    8DOPE  C211  961   7.618   7.347  15.019  0.2249 -0.2595 -0.1227
    8DOPE  H11R  962   7.665   7.268  15.081  1.9187  1.7346  1.2817
    8DOPE  H11S  963   7.645   7.438  15.078 -1.3950  0.6258 -0.6873
    8DOPE  C212  964   7.693   7.349  14.885 -0.1562  0.2342 -0.3047
    8DOPE  H12R  965   7.666   7.255  14.831  0.6682 -0.9095  1.2110
    8DOPE  H12S  966   7.801   7.342  14.909 -0.0903 -1.6374 -0.9482
    8DOPE  C213  967   7.685   7.480  14.812 -0.1002  0.2826 -0.5483
    8DOPE  H13R  968   7.724   7.569  14.867 -0.4394  0.4481 -0.5711
    8DOPE  H13S  969   7.577   7.502  14.799 -0.1743  0.3425  0.1330
    8DOPE  C214  970   7.761   7.470  14.675  0.5673  0.5337 -0.0702
    8DOPE  H14R  971   7.744   7.564  14.618  0.2283  0.1795 -0.5581
    8DOPE  H14S  972   7.716   7.394  14.608  1.2639  1.2635 -1.4364
    8DOPE  C215  973   7.903   7.448  14.678 -0.5429 -0.8191 -0.9635
    8DOPE  H15R  974   7.927   7.376  14.759 -0.5888  2.7605  2.6011
    8DOPE  H15S  975   7.967   7.528  14.721 -2.0472 -0.8156  1.4292
    8DOPE  C216  976   7.963   7.393  14.546  0.1505 -0.4993 -0.3096
    8DOPE  H16R  977   8.072   7.382  14.565  0.3030  3.0319  1.6314
    8DOPE  H16S  978   7.951   7.468  14.464  2.0461 -0.4794 -0.6135
    8DOPE  C217  979   7.915   7.264  14.488 -0.5578  0.4588 -0.2342
    8DOPE  H17R  980   7.963   7.239  14.392 -2.8142 -2.4640 -0.7612
    8DOPE  H17S  981   7.810   7.283  14.455 -0.9396 -0.8457  0.1449
    8DOPE  C218  982   7.921   7.136  14.577  0.8960 -0.2810 -0.6705
    8DOPE  H18R  983   7.894   7.170  14.679 -0.3204 -0.6756 -0.8511
    8DOPE  H18S  984   8.027   7.102  14.587  0.5907 -0.5823  2.5801
    8DOPE  H18T  985   7.862   7.052  14.535 -0.2460  0.0698  0.1732
    8DOPE   C33  986   7.811   7.012  15.573  0.3562  0.2890 -0.4693
    8DOPE   H3X  987   7.875   6.931  15.615  1.4453  1.1618 -0.3878
    8DOPE   H3Y  988   7.845   7.097  15.636 -1.6720 -0.2137  1.4165
    8DOPE   C34  989   7.835   7.042  15.422 -0.3857 -0.0641 -0.0114
    8DOPE   H4X  990   7.793   7.134  15.376 -1.0808  0.0161  0.7444
    8DOPE   H4Y  991   7.945   7.050  15.409 -0.3122 -3.1517 -2.6241
    8DOPE   C35  992   7.799   6.920  15.335 -0.7820  0.4876  0.2466
    8DOPE   H5X  993   7.689   6.911  15.336 -0.8455  1.1933  0.7524
    8DOPE   H5Y  994   7.843   6.829  15.383 -1.3480  0.5673  0.9344
    8DOPE   C36  995   7.853   6.925  15.194  0.9656  0.4827 -0.0852
    8DOPE   H6X  996   7.964   6.931  15.187  0.7678  2.6195 -4.2410
    8DOPE   H6Y  997   7.810   7.015  15.145 -1.4326 -0.0752  0.8813
    8DOPE   C37  998   7.803   6.799  15.103 -0.1853  0.0248  0.1207
    8DOPE   H7X  999   7.839   6.704  15.150  0.9496 -0.0069 -0.7755
    8DOPE   H7Y 1000   7.692   6.804  15.105 -0.2373  0.2595 -1.7615
    8DOPE   C38 1001   7.835   6.805  14.954 -0.6569  0.5882  0.3235
    8DOPE   H8X 1002   7.801   6.710  14.907  1.6377 -0.3491  0.4480
    8DOPE   H8Y 1003   7.945   6.808  14.941 -0.8515  1.4687 -1.3491
    8DOPE   C39 1004   7.796   6.922  14.869  0.6640  0.4663  0.3536
    8DOPE   H9X 1005   7.858   7.012  14.875 -0.9458  1.8682 -2.1699
    8DOPE  C310 1006   7.686   6.937  14.797  0.3239 -0.0992  0.5190
    8DOPE  H10X 1007   7.674   7.037  14.753  1.3719 -0.0053  0.4217
    8DOPE  C311 1008   7.575   6.834  14.786 -0.2565 -0.2869 -0.1332
    8DOPE  H11X 1009   7.576   6.783  14.688 -1.0241  0.6563 -0.6528
    8DOPE  H11Y 1010   7.581   6.762  14.871 -0.0644  0.5003  0.5411
    8DOPE  C312 1011   7.443   6.909  14.808 -0.1916 -0.1988 -0.0513
    8DOPE  H12X 1012   7.455   6.966  14.903 -2.2834  0.8488 -0.3554
    8DOPE  H12Y 1013   7.365   6.833  14.828 -0.2908 -0.2772 -0.7000
    8DOPE  C313 1014   7.399   7.011  14.701 -0.0932  0.4032 -0.1032
    8DOPE  H13X 1015   7.482   7.082  14.679 -0.1247 -0.1469 -2.2018
    8DOPE  H13Y 1016   7.377   6.952  14.610 -1.9440 -0.1393  0.6630
    8DOPE  C314 1017   7.261   7.078  14.722 -0.2136 -0.5017 -0.5070
    8DOPE  H14X 1018   7.246   7.143  14.634 -0.8514 -1.4554 -1.1173
    8DOPE  H14Y 1019   7.272   7.148  14.808  0.2092 -1.1555 -0.0141
    8DOPE  C315 1020   7.146   6.983  14.748  0.1088  0.2938 -0.0979
    8DOPE  H15X 1021   7.155   6.917  14.836 -0.4367 -0.9919 -0.9739
    8DOPE  H15Y 1022   7.143   6.922  14.655  1.1306 -0.3880  0.2963
    8DOPE  C316 1023   7.012   7.051  14.756  0.3058 -0.3919  0.1737
    8DOPE  H16X 1024   6.974   7.086  14.658  1.2524 -0.4070 -0.2103
    8DOPE  H16Y 1025   7.025   7.142  14.818 -1.2061 -0.7786  1.0987
    8DOPE  C317 1026   6.907   6.967  14.835 -0.0305  0.0125  0.8233
    8DOPE  H17X 1027   6.901   6.872  14.778 -2.5462  1.6359 -1.9187
    8DOPE  H17Y 1028   6.944   6.943  14.936 -0.3027 -0.9781  0.6948
    8DOPE  C318 1029   6.769   7.024  14.835 -0.5191 -0.5213  0.6052
    8DOPE  H18X 1030   6.705   6.998  14.747  0.4878 -0.8075 -0.0530
    8DOPE  H18Y 1031   6.773   7.135  14.837  2.2087 -0.4139 -2.6517
    8DOPE  H18Z 1032   6.710   6.990  14.924  0.4964  0.4871  1.6887
    9DOPE     N 1033   1.467   4.056  15.660 -1.1106  0.5746  0.2486
    9DOPE   HN1 1034   1.478   4.056  15.764  2.5987  3.0913  0.0561
    9DOPE   HN2 1035   1.390   4.124  15.645 -1.1912  0.2687 -0.7452
    9DOPE   HN3 1036   1.450   3.958  15.631  0.0134  0.1393  0.9748
    9DOPE   C12 1037   1.604   4.107  15.613 -0.6743 -0.4131 -0.0235
    9DOPE  H12A 1038   1.609   4.106  15.502  0.1347 -2.3804 -0.0170
    9DOPE  H12B 1039   1.686   4.039  15.645 -0.8585 -0.9349 -0.6278
    9DOPE   C11 1040   1.618   4.253  15.662 -0.8279  0.2984  0.5485
    9DOPE  H11A 1041   1.713   4.286  15.613 -0.4955 -1.7970 -0.3024
    9DOPE  H11B 1042   1.626   4.265  15.773 -1.9845  0.4157  0.6253
    9DOPE     P 1043   1.489   4.442  15.515 -0.1931 -0.1213 -0.1855
    9DOPE   O13 1044   1.467   4.568  15.590 -0.3789  0.8090  0.8091
    9DOPE   O14 1045   1.384   4.419  15.418  0.0146  0.4344 -0.1703
    9DOPE   O11 1046   1.637   4.455  15.437 -0.0145 -0.0148 -0.1887
    9DOPE   O12 1047   1.503   4.320  15.621  0.3694 -0.0522  1.2371
    9DOPE    C1 1048   1.649   4.373  15.310  0.3112  0.3395 -0.1790
    9DOPE    HA 1049   1.557   4.363  15.249  0.7813  1.8604 -1.1918
    9DOPE    HB 1050   1.685   4.273  15.344 -2.6435 -0.1084  2.0802
    9DOPE    C2 1051   1.747   4.440  15.210  0.3386 -0.3237 -0.1768
    9DOPE    HS 1052   1.762   4.388  15.113  2.5209 -1.6132  0.7764
    9DOPE   O21 1053   1.877   4.467  15.267 -0.4318  0.9044 -0.6967
    9DOPE   C21 1054   1.945   4.353  15.299  0.1653 -1.1082 -0.2653
    9DOPE   O22 1055   1.919   4.240  15.279  0.1238  0.1310  0.1629
    9DOPE   C22 1056   2.073   4.398  15.365  0.5380 -0.2701 -0.2777
    9DOPE   H2R 1057   2.111   4.311  15.423 -0.3788 -0.4430  0.0777
    9DOPE   H2S 1058   2.067   4.492  15.423 -0.3714 -0.5192  0.0568
    9DOPE    C3 1059   1.677   4.571  15.158 -0.2828 -0.4836  0.0260
    9DOPE    HX 1060   1.690   4.642  15.242 -1.0669  0.7592 -0.8593
    9DOPE    HY 1061   1.568   4.563  15.139 -0.3331  2.2722 -1.2024
    9DOPE   O31 1062   1.743   4.637  15.045 -0.4567  0.4724 -0.7097
    9DOPE   C31 1063   1.693   4.600  14.926 -0.2338 -0.2046 -0.4358
    9DOPE   O32 1064   1.619   4.505  14.905  0.1074 -0.4393 -0.0121
    9DOPE   C32 1065   1.749   4.691  14.818  0.1028 -1.0116  0.1849
    9DOPE   H2X 1066   1.672   4.770  14.802  3.0438  2.3510  1.4571
    9DOPE   H2Y 1067   1.830   4.758  14.854 -2.2031  1.4489  1.1603
    9DOPE   C23 1068   2.191   4.430  15.266 -1.0626 -0.1269  0.3202
    9DOPE   H3R 1069   2.163   4.515  15.201  0.8480 -0.3736 -0.8908
    9DOPE   H3S 1070   2.210   4.345  15.198 -3.3070 -0.6401  0.2803
    9DOPE   C24 1071   2.333   4.464  15.328  0.4306 -0.7454  0.1054
    9DOPE   H4R 1072   2.365   4.370  15.377  2.4832 -0.3233 -0.3481
    9DOPE   H4S 1073   2.326   4.546  15.402  1.7578 -1.5662  1.2030
    9DOPE   C25 1074   2.442   4.509  15.227  0.2530 -0.7027  0.3500
    9DOPE   H5R 1075   2.504   4.585  15.280 -2.7929  0.3526  2.7250
    9DOPE   H5S 1076   2.393   4.569  15.147  3.0579 -2.5586 -3.0460
    9DOPE   C26 1077   2.529   4.395  15.187 -0.4110  0.1498  0.9809
    9DOPE   H6R 1078   2.477   4.301  15.156  0.6620  0.0090 -0.5086
    9DOPE   H6S 1079   2.585   4.377  15.281  1.3025 -0.2129 -0.0674
    9DOPE   C27 1080   2.633   4.434  15.083 -0.5102 -0.4071  0.2918
    9DOPE   H7R 1081   2.720   4.365  15.085  0.1297  0.3794  0.2212
    9DOPE   H7S 1082   2.679   4.535  15.092 -1.6203  0.4476 -2.4403
    9DOPE   C28 1083   2.590   4.414  14.935 -0.6444 -0.6711 -0.8176
    9DOPE   H8R 1084   2.537   4.316  14.929 -1.8434 -0.1608  0.7212
    9DOPE   H8S 1085   2.681   4.410  14.872 -0.3646  1.2372 -0.5869
    9DOPE   C29 1086   2.499   4.521  14.889  0.0877 -0.7149  0.2546
    9DOPE   H9R 1087   2.393   4.505  14.913  0.0097  1.1000  1.3623
    9DOPE  C210 1088   2.528   4.632  14.820  0.6032 -0.0214  0.1658
    9DOPE  H10R 1089   2.443   4.693  14.785  0.6092 -1.2879 -2.3302
    9DOPE  C211 1090   2.665   4.669  14.768 -0.1044  0.5083 -0.0077
    9DOPE  H11R 1091   2.755   4.613  14.802 -0.1358 -0.2833 -1.1587
    9DOPE  H11S 1092   2.679   4.771  14.810  0.2878  0.6144 -0.3909
    9DOPE  C212 1093   2.670   4.673  14.613 -0.0046  0.4721  0.0675
    9DOPE  H12R 1094   2.606   4.757  14.578 -1.1304 -0.9043 -1.3349
    9DOPE  H12S 1095   2.622   4.584  14.568 -0.4801  1.9272 -2.4903
    9DOPE  C213 1096   2.809   4.694  14.556 -0.1390 -0.1356  0.3581
    9DOPE  H13R 1097   2.883   4.645  14.623  1.6154  0.9312 -0.7458
    9DOPE  H13S 1098   2.834   4.801  14.566 -1.2709  0.0511  1.5418
    9DOPE  C214 1099   2.825   4.643  14.410 -0.7293 -1.0812 -0.9546
    9DOPE  H14R 1100   2.913   4.693  14.364 -1.9329 -0.2034 -2.3965
    9DOPE  H14S 1101   2.732   4.669  14.354 -1.1563 -0.7097 -0.0953
    9DOPE  C215 1102   2.839   4.489  14.389  0.4798 -0.4082  0.0424
    9DOPE  H15R 1103   2.815   4.467  14.282  0.8741 -2.2555  0.2960
    9DOPE  H15S 1104   2.756   4.449  14.451  1.2695 -3.1511 -0.5053
    9DOPE  C216 1105   2.977   4.445  14.435  0.1242  0.1003  1.0622
    9DOPE  H16R 1106   3.007   4.498  14.528 -0.9726  3.9971 -0.5685
    9DOPE  H16S 1107   3.044   4.480  14.354 -0.2055  2.3916  1.6833
    9DOPE  C217 1108   2.986   4.295  14.459  0.5273 -0.7388 -0.2931
    9DOPE  H17R 1109   2.946   4.232  14.376 -1.8719 -1.4214  1.2768
    9DOPE  H17S 1110   2.921   4.280  14.548  1.9237  0.2154  0.9361
    9DOPE  C218 1111   3.130   4.245  14.502  0.0305 -0.0259 -0.7982
    9DOPE  H18R 1112   3.128   4.136  14.523  2.1464  0.0385 -0.0205
    9DOPE  H18S 1113   3.174   4.286  14.596 -0.9282 -1.6191  0.4032
    9DOPE  H18T 1114   3.208   4.264  14.425  4.2506  0.0543  3.0180
    9DOPE   C33 1115   1.786   4.621  14.686 -0.2555 -0.3947 -0.2250
    9DOPE   H3X 1116   1.727   4.528  14.678 -0.2107 -0.3636 -1.0490
    9DOPE   H3Y 1117   1.886   4.572  14.691 -1.5090 -2.9567  2.1220
    9DOPE   C34 1118   1.755   4.715  14.573 -0.1398 -0.3570  0.0907
    9DOPE   H4X 1119   1.646   4.732  14.561 -0.1750 -0.8504 -0.3731
    9DOPE   H4Y 1120   1.816   4.806  14.592  0.4801 -0.9932  1.2708
    9DOPE   C35 1121   1.799   4.657  14.434  0.6053  0.4142 -0.3728
    9DOPE   H5X 1122   1.724   4.587  14.392  1.2033 -0.6848  0.3415
    9DOPE   H5Y 1123   1.903   4.618  14.438  0.5636  0.3921  1.2342
    9DOPE   C36 1124   1.821   4.770  14.324  0.0940  0.0349 -0.3840
    9DOPE   H6X 1125   1.873   4.728  14.235  1.3768  3.1479 -1.2285
    9DOPE   H6Y 1126   1.882   4.851  14.371  1.5440 -0.2175 -1.7280
    9DOPE   C37 1127   1.693   4.828  14.276  0.3927  0.1108 -0.2767
    9DOPE   H7X 1128   1.634   4.756  14.216 -1.0327  0.6646  0.4178
    9DOPE   H7Y 1129   1.630   4.866  14.360  1.6294  0.5287  0.4842
    9DOPE   C38 1130   1.715   4.954  14.187 -0.6610 -0.4510 -0.0592
    9DOPE   H8X 1131   1.769   5.029  14.250  0.4035  1.6771 -3.2346
    9DOPE   H8Y 1132   1.624   5.015  14.167  0.3428  2.3579  3.0749
    9DOPE   C39 1133   1.800   4.930  14.060 -0.1064 -0.4533 -0.2789
    9DOPE   H9X 1134   1.755   4.887  13.970  0.0245 -0.2423 -0.4443
    9DOPE  C310 1135   1.934   4.958  14.052 -0.3049  1.2807  0.7532
    9DOPE  H10X 1136   1.987   4.920  13.964 -1.4341  0.2544  0.4828
    9DOPE  C311 1137   2.031   5.005  14.158  0.6047 -0.5872 -0.1007
    9DOPE  H11X 1138   1.969   5.009  14.250 -2.0153  1.5670 -1.8302
    9DOPE  H11Y 1139   2.110   4.927  14.166  0.7318 -0.5278 -0.7782
    9DOPE  C312 1140   2.095   5.140  14.124 -0.9808  0.1461  0.1130
    9DOPE  H12X 1141   2.013   5.215  14.114 -1.4619 -0.2244  1.0940
    9DOPE  H12Y 1142   2.147   5.136  14.026 -0.9153 -0.1878  0.1598
    9DOPE  C313 1143   2.194   5.185  14.227  1.3868  0.3709  0.1890
    9DOPE  H13X 1144   2.143   5.190  14.326  0.2319 -0.1786 -0.3509
    9DOPE  H13Y 1145   2.276   5.111  14.232  0.1455 -1.0018  1.3834
    9DOPE  C314 1146   2.233   5.336  14.209 -0.1276 -0.2136 -0.2556
    9DOPE  H14X 1147   2.152   5.396  14.256 -1.4646 -2.5021  0.5370
    9DOPE  H14Y 1148   2.243   5.363  14.101  2.4044  2.8852  0.6282
    9DOPE  C315 1149   2.367   5.379  14.278 -0.0917 -0.5629 -0.2921
    9DOPE  H15X 1150   2.450   5.316  14.239 -0.8885 -0.9394 -1.4488
    9DOPE  H15Y 1151   2.368   5.370  14.388  1.3918  1.4731 -0.0913
    9DOPE  C316 1152   2.396   5.522  14.246 -0.7846 -0.3311 -0.4498
    9DOPE  H16X 1153   2.316   5.584  14.292  0.1448  0.1432  0.5679
    9DOPE  H16Y 1154   2.389   5.539  14.136 -0.1475  3.3752 -0.0519
    9DOPE  C317 1155   2.530   5.576  14.296 -0.1516 -0.0378 -0.1030
    9DOPE  H17X 1156   2.532   5.555  14.406 -0.0087 -1.2983 -0.3320
    9DOPE  H17Y 1157   2.612   5.522  14.245 -2.0077 -1.2324 -1.9715
    9DOPE  C318 1158   2.530   5.730  14.281 -0.6113  0.1877  0.4377
    9DOPE  H18X 1159   2.529   5.763  14.175  1.8029  2.0528  0.9102
    9DOPE  H18Y 1160   2.442   5.779  14.328  0.8218  3.7778 -0.3067
    9DOPE  H18Z 1161   2.611   5.789  14.329 -0.0991  1.3998 -1.7889
   10DOPE     N 1162   1.782   5.326  16.314 -0.0771 -0.0221  0.1326
   10DOPE   HN1 1163   1.861   5.344  16.379  0.3213  2.3864 -0.9418
   10DOPE   HN2 1164   1.742   5.420  16.298 -2.2059 -0.7443  0.8152
   10DOPE   HN3 1165   1.708   5.262  16.352 -0.3405  0.9314  1.2871
   10DOPE   C12 1166   1.813   5.277  16.172  0.0554 -0.3354 -0.3894
   10DOPE  H12A 1167   1.714   5.270  16.121  0.2911  0.7116 -1.0181
   10DOPE  H12B 1168   1.860   5.177  16.185 -1.7800 -1.0461  1.3752
   10DOPE   C11 1169   1.907   5.378  16.113 -0.0284 -0.8475 -0.0442
   10DOPE  H11A 1170   1.946   5.331  16.020  2.1677  1.1358 -0.2031
   10DOPE  H11B 1171   1.991   5.397  16.183 -0.1877  3.9137 -0.8181
   10DOPE     P 1172   1.892   5.637  16.075 -0.0368  0.2093  0.0602
   10DOPE   O13 1173   2.010   5.642  16.167  0.0282  0.2288  0.4280
   10DOPE   O14 1174   1.786   5.738  16.102  0.6625  0.1252 -0.1513
   10DOPE   O11 1175   1.951   5.662  15.929  0.1705  0.7621  0.1904
   10DOPE   O12 1176   1.835   5.492  16.069 -0.4352  0.4267 -0.4598
   10DOPE    C1 1177   1.954   5.562  15.823  0.5960 -0.2898 -0.1342
   10DOPE    HA 1178   1.891   5.474  15.849  0.6285 -0.1205  0.5323
   10DOPE    HB 1179   2.057   5.521  15.811  0.0266 -1.7490 -0.2811
   10DOPE    C2 1180   1.889   5.627  15.698 -0.0576  0.6505 -0.6543
   10DOPE    HS 1181   1.853   5.543  15.635 -1.5779  0.2879  0.6175
   10DOPE   O21 1182   1.987   5.720  15.640  0.2995 -0.3709  1.2090
   10DOPE   C21 1183   2.060   5.668  15.543 -1.1592  0.3691 -0.2455
   10DOPE   O22 1184   2.054   5.551  15.508 -0.1476 -0.4188 -0.5596
   10DOPE   C22 1185   2.152   5.784  15.487  0.3129  0.8399 -0.6505
   10DOPE   H2R 1186   2.138   5.878  15.546 -1.0269 -0.7228  1.7109
   10DOPE   H2S 1187   2.112   5.805  15.386 -1.5477  0.4776 -0.0260
   10DOPE    C3 1188   1.764   5.709  15.720  0.2878  0.5929 -0.3308
   10DOPE    HX 1189   1.804   5.794  15.779 -0.3059  1.4882 -1.1988
   10DOPE    HY 1190   1.700   5.652  15.790  0.7257  0.0550 -0.3575
   10DOPE   O31 1191   1.694   5.744  15.596 -0.7485  0.0686 -0.4824
   10DOPE   C31 1192   1.593   5.667  15.571 -0.3568 -0.6627 -0.0015
   10DOPE   O32 1193   1.554   5.570  15.630 -0.1255 -0.4502  0.1039
   10DOPE   C32 1194   1.538   5.717  15.437  0.2702  0.8286  0.9622
   10DOPE   H2X 1195   1.439   5.670  15.426 -0.5549  2.8392 -1.0005
   10DOPE   H2Y 1196   1.522   5.827  15.424 -1.9312  0.4042 -0.3806
   10DOPE   C23 1197   2.299   5.744  15.480 -0.8488  0.7447 -0.2764
   10DOPE   H3R 1198   2.311   5.643  15.435  2.4382  0.9561 -0.0942
   10DOPE   H3S 1199   2.337   5.725  15.582  1.4998  0.7982 -1.0728
   10DOPE   C24 1200   2.388   5.839  15.400 -0.3240 -0.4127  0.1126
   10DOPE   H4R 1201   2.490   5.832  15.443 -0.7645 -2.7457  0.8983
   10DOPE   H4S 1202   2.334   5.935  15.415  1.6314  0.7810 -0.1370
   10DOPE   C25 1203   2.414   5.804  15.251 -0.2532 -0.1285 -0.2120
   10DOPE   H5R 1204   2.321   5.774  15.198  0.9049 -1.5734 -1.5445
   10DOPE   H5S 1205   2.485   5.719  15.235 -0.1450  0.1139 -1.0796
   10DOPE   C26 1206   2.456   5.937  15.172 -0.4688 -0.1979 -0.2861
   10DOPE   H6R 1207   2.520   6.004  15.232 -0.5467  0.3850 -0.8394
   10DOPE   H6S 1208   2.366   5.998  15.151 -0.9690 -1.1761 -1.0984
   10DOPE   C27 1209   2.523   5.914  15.035  0.6691  0.8082  0.0032
   10DOPE   H7R 1210   2.619   5.861  15.055  0.6494  0.8720  0.2716
   10DOPE   H7S 1211   2.551   6.016  15.002 -1.4119  0.4812 -3.1096
   10DOPE   C28 1212   2.433   5.850  14.932  0.0811  0.5054 -0.3566
   10DOPE   H8R 1213   2.338   5.908  14.937  0.2605  0.9159 -1.5510
   10DOPE   H8S 1214   2.406   5.749  14.968  1.2969 -0.2106 -1.3992
   10DOPE   C29 1215   2.501   5.845  14.797 -1.0649  0.2761 -0.2656
   10DOPE   H9R 1216   2.554   5.749  14.785  0.9142  1.1488  0.8927
   10DOPE  C210 1217   2.472   5.927  14.690 -0.3473  0.1366 -0.5442
   10DOPE  H10R 1218   2.548   5.918  14.611 -0.2729 -0.5406 -0.4042
   10DOPE  C211 1219   2.371   6.043  14.688 -0.9452  0.6067 -0.0187
   10DOPE  H11R 1220   2.359   6.067  14.796  1.8349 -1.6745  0.9148
   10DOPE  H11S 1221   2.272   6.017  14.646 -1.3313  0.0905  1.1669
   10DOPE  C212 1222   2.422   6.168  14.608  0.0645  0.1198 -0.0740
   10DOPE  H12R 1223   2.459   6.135  14.509 -1.3158 -2.0871  0.0580
   10DOPE  H12S 1224   2.508   6.206  14.667  0.3447  0.1949 -0.5301
   10DOPE  C213 1225   2.318   6.289  14.598 -0.2092 -0.5660 -0.5750
   10DOPE  H13R 1226   2.226   6.275  14.537  0.4942 -1.0711 -1.5615
   10DOPE  H13S 1227   2.369   6.369  14.540  0.9736  0.3662  1.6338
   10DOPE  C214 1228   2.293   6.350  14.739  1.3034 -0.1327  0.2759
   10DOPE  H14R 1229   2.395   6.391  14.754  1.5357 -1.0542  1.3027
   10DOPE  H14S 1230   2.257   6.278  14.815 -2.1249  0.1534 -0.9038
   10DOPE  C215 1231   2.189   6.461  14.728 -0.0174  0.6274  0.2130
   10DOPE  H15R 1232   2.165   6.499  14.829  1.4807  1.7968  0.1650
   10DOPE  H15S 1233   2.097   6.416  14.683 -0.1486  1.5692 -0.4894
   10DOPE  C216 1234   2.232   6.582  14.645 -0.0388 -0.4567  0.2942
   10DOPE  H16R 1235   2.259   6.547  14.544  1.7563  1.8205 -0.0996
   10DOPE  H16S 1236   2.324   6.631  14.685 -1.0486  1.6004  0.2213
   10DOPE  C217 1237   2.122   6.691  14.617  0.0485  0.7858  0.3116
   10DOPE  H17R 1238   2.022   6.642  14.612 -0.1603  1.2680 -0.3529
   10DOPE  H17S 1239   2.129   6.742  14.519 -0.2953 -0.6746 -0.5104
   10DOPE  C218 1240   2.121   6.796  14.733 -0.4865  0.2137  0.3995
   10DOPE  H18R 1241   2.222   6.841  14.742 -0.1123  0.5518 -3.6864
   10DOPE  H18S 1242   2.085   6.755  14.830 -1.3315  2.2463  1.0062
   10DOPE  H18T 1243   2.042   6.872  14.714 -0.1275  1.0658  2.0902
   10DOPE   C33 1244   1.644   5.672  15.334 -0.5471 -0.4530  0.3826
   10DOPE   H3X 1245   1.751   5.676  15.360 -0.7999  0.0214  1.4007
   10DOPE   H3Y 1246   1.633   5.735  15.243 -0.6863  0.7241  1.1890
   10DOPE   C34 1247   1.618   5.524  15.282  0.3599  0.0791  0.5953
   10DOPE   H4X 1248   1.619   5.459  15.372  0.5523  1.2243  1.4527
   10DOPE   H4Y 1249   1.516   5.527  15.238  0.2591 -1.4687  0.6797
   10DOPE   C35 1250   1.716   5.487  15.178 -0.4882 -0.5635  0.0501
   10DOPE   H5X 1251   1.742   5.563  15.101  0.7202  0.6399  1.5630
   10DOPE   H5Y 1252   1.677   5.405  15.114  0.2871 -0.5720 -0.4267
   10DOPE   C36 1253   1.852   5.459  15.235 -0.3140 -0.1783  0.4741
   10DOPE   H6X 1254   1.853   5.395  15.326 -1.1490  2.1416  2.2040
   10DOPE   H6Y 1255   1.895   5.555  15.270 -2.8326  1.0373  0.4263
   10DOPE   C37 1256   1.940   5.372  15.137 -0.4113 -0.4406  0.5763
   10DOPE   H7X 1257   1.878   5.283  15.115  1.1298 -0.8183 -2.7763
   10DOPE   H7Y 1258   1.958   5.429  15.044 -1.8809 -1.2866 -0.2552
   10DOPE   C38 1259   2.077   5.324  15.197 -0.3060 -0.0835 -0.7481
   10DOPE   H8X 1260   2.107   5.236  15.136 -1.7577 -1.2792  0.1814
   10DOPE   H8Y 1261   2.073   5.284  15.301  1.8126  0.9364 -0.2226
   10DOPE   C39 1262   2.187   5.421  15.207  0.0629 -0.0608 -0.1112
   10DOPE   H9X 1263   2.208   5.444  15.312  0.2529  1.1883 -0.4001
   10DOPE  C310 1264   2.270   5.457  15.107 -0.3940 -0.1134  0.4662
   10DOPE  H10X 1265   2.361   5.517  15.120 -0.2864  0.2461 -1.5255
   10DOPE  C311 1266   2.238   5.411  14.954 -0.3583  0.3107  0.2532
   10DOPE  H11X 1267   2.327   5.363  14.908 -0.6023 -0.2732  0.3792
   10DOPE  H11Y 1268   2.163   5.330  14.943  2.1114 -1.9030 -1.6829
   10DOPE  C312 1269   2.196   5.535  14.881 -0.0738 -0.4039  0.2842
   10DOPE  H12X 1270   2.282   5.606  14.878  0.4085 -1.0234 -1.3818
   10DOPE  H12Y 1271   2.116   5.586  14.938  0.8665  0.8212  0.5618
   10DOPE  C313 1272   2.163   5.502  14.736 -0.7833  0.1794  0.5652
   10DOPE  H13X 1273   2.236   5.429  14.693 -0.3051  0.4600  0.9004
   10DOPE  H13Y 1274   2.063   5.453  14.728 -0.1041 -0.9899 -1.6832
   10DOPE  C314 1275   2.152   5.628  14.648  0.2639  0.3085  0.2362
   10DOPE  H14X 1276   2.173   5.589  14.545  0.0237 -0.3324  0.4230
   10DOPE  H14Y 1277   2.232   5.697  14.682  1.4824 -0.3135 -1.2169
   10DOPE  C315 1278   2.015   5.704  14.646  0.6908  0.2070 -0.2780
   10DOPE  H15X 1279   1.976   5.705  14.750  0.4732  0.5904 -0.3613
   10DOPE  H15Y 1280   1.943   5.641  14.590 -1.7455  2.2160  0.4596
   10DOPE  C316 1281   2.019   5.834  14.568 -0.5250 -0.1117 -0.0932
   10DOPE  H16X 1282   1.998   5.799  14.465  0.4058  1.2725 -0.7982
   10DOPE  H16Y 1283   2.121   5.878  14.563 -0.7202  0.4282  0.5369
   10DOPE  C317 1284   1.920   5.941  14.621  0.0176  0.2921 -0.5231
   10DOPE  H17X 1285   1.908   6.014  14.539 -0.1411 -1.2252 -1.9096
   10DOPE  H17Y 1286   1.828   5.888  14.653  0.1712  0.6688  0.5980
   10DOPE  C318 1287   1.974   6.007  14.744 -0.4840 -0.7437  0.5624
   10DOPE  H18X 1288   2.070   6.061  14.728  0.5538 -2.4332  0.8295
   10DOPE  H18Y 1289   1.896   6.078  14.781 -0.5967  0.7894 -2.3602
   10DOPE  H18Z 1290   2.005   5.940  14.827  0.3833  1.8441  2.4757
   11DOPE     N 1291   2.997   2.578  15.857  0.3392 -0.4896  0.2349
   11DOPE   HN1 1292   2.990   2.520  15.942 -0.6141 -0.5612  0.1193
   11DOPE   HN2 1293   2.906   2.628  15.844 -0.1858 -1.1720  1.1642
   11DOPE   HN3 1294   2.994   2.517  15.772 -2.2146 -0.9349  0.5519
   11DOPE   C12 1295   3.113   2.676  15.845  0.0561  0.1686 -0.3997
   11DOPE  H12A 1296   3.195   2.605  15.821  0.1470 -0.7015  2.1713
   11DOPE  H12B 1297   3.120   2.722  15.946 -0.4605 -2.4952  0.9383
   11DOPE   C11 1298   3.096   2.780  15.742 -0.3712 -0.1792 -0.0062
   11DOPE  H11A 1299   3.065   2.728  15.649  1.8616 -1.9564  0.1534
   11DOPE  H11B 1300   3.189   2.840  15.733  0.1127 -1.0836 -1.2898
   11DOPE     P 1301   2.993   3.020  15.832  0.2519 -0.2251  0.0653
   11DOPE   O13 1302   3.081   3.022  15.950  0.0830 -0.0467 -0.5006
   11DOPE   O14 1303   2.851   3.064  15.855 -0.4802  0.6246  0.1067
   11DOPE   O11 1304   3.062   3.088  15.710  0.7264 -0.2914  0.4969
   11DOPE   O12 1305   2.986   2.866  15.781 -0.2744 -0.1443  0.0713
   11DOPE    C1 1306   2.994   3.111  15.582  0.4801  0.0135 -0.0455
   11DOPE    HA 1307   3.050   3.198  15.541  0.7852 -1.1486 -2.2643
   11DOPE    HB 1308   2.884   3.126  15.578  0.5891  0.5673 -2.1078
   11DOPE    C2 1309   3.022   3.002  15.482 -0.2194  0.3783  0.0393
   11DOPE    HS 1310   2.975   2.907  15.512 -0.8624  0.1859 -1.5116
   11DOPE   O21 1311   3.163   2.977  15.470 -0.1042  0.8676  0.6797
   11DOPE   C21 1312   3.206   2.856  15.431  0.0712  0.1809  0.7374
   11DOPE   O22 1313   3.138   2.753  15.422  0.1146  0.1806 -0.2407
   11DOPE   C22 1314   3.358   2.864  15.410  0.7002 -1.3154 -0.2426
   11DOPE   H2R 1315   3.401   2.775  15.461  2.9939  0.5272  1.2715
   11DOPE   H2S 1316   3.398   2.952  15.465 -1.5954 -0.9532  0.9952
   11DOPE    C3 1317   2.956   3.036  15.341 -0.9275  0.2507 -0.4594
   11DOPE    HX 1318   2.958   2.947  15.275 -2.1442 -0.8175  0.8787
   11DOPE    HY 1319   3.026   3.114  15.304 -1.3162  0.7263 -0.2005
   11DOPE   O31 1320   2.825   3.092  15.345  0.4742 -0.3916 -0.4303
   11DOPE   C31 1321   2.724   3.007  15.361  0.3079  1.2281  0.6778
   11DOPE   O32 1322   2.736   2.885  15.377  0.0024  0.0664 -0.5115
   11DOPE   C32 1323   2.595   3.082  15.341 -1.2630 -0.0557  0.0534
   11DOPE   H2X 1324   2.596   3.158  15.422  1.7927 -1.5670  1.6231
   11DOPE   H2Y 1325   2.601   3.122  15.238 -2.2514 -1.0946 -0.4296
   11DOPE   C23 1326   3.404   2.869  15.264  0.0508  0.1024  0.0720
   11DOPE   H3R 1327   3.371   2.966  15.223 -2.0428 -1.0358 -1.1072
   11DOPE   H3S 1328   3.356   2.791  15.202  1.3551 -1.2888  0.7319
   11DOPE   C24 1329   3.554   2.834  15.236 -0.0992 -0.1173  0.1711
   11DOPE   H4R 1330   3.574   2.725  15.244 -1.3240 -0.4951 -1.4214
   11DOPE   H4S 1331   3.614   2.879  15.318  1.6929 -0.8869 -0.6631
   11DOPE   C25 1332   3.600   2.899  15.104  0.7653  0.2805  0.6457
   11DOPE   H5R 1333   3.593   3.006  15.131 -1.3200  0.1240  0.8998
   11DOPE   H5S 1334   3.525   2.872  15.026 -0.5284  2.3258  1.0856
   11DOPE   C26 1335   3.741   2.867  15.061 -0.2025  0.1581 -0.1226
   11DOPE   H6R 1336   3.748   2.757  15.047 -1.3263  0.2942 -2.1086
   11DOPE   H6S 1337   3.805   2.891  15.148 -1.0313 -1.5874  1.0346
   11DOPE   C27 1338   3.791   2.940  14.937  0.3632  0.4797 -0.3981
   11DOPE   H7R 1339   3.898   2.918  14.922 -0.3677 -2.5672 -1.9533
   11DOPE   H7S 1340   3.767   3.048  14.942 -0.2346  0.5686 -3.3202
   11DOPE   C28 1341   3.727   2.878  14.814  0.0241 -0.0380 -0.4761
   11DOPE   H8R 1342   3.616   2.887  14.823  0.0599 -1.0455  1.4051
   11DOPE   H8S 1343   3.744   2.770  14.797 -0.3985 -0.0060 -1.1369
   11DOPE   C29 1344   3.779   2.952  14.688  0.0217 -0.0053 -0.2499
   11DOPE   H9R 1345   3.864   2.898  14.644 -0.8050 -1.2691 -0.3273
   11DOPE  C210 1346   3.716   3.054  14.624 -0.2327 -0.2521 -0.2950
   11DOPE  H10R 1347   3.751   3.084  14.524 -1.4418 -2.0349 -1.3039
   11DOPE  C211 1348   3.585   3.113  14.665  0.0220  0.5522 -0.2073
   11DOPE  H11R 1349   3.615   3.214  14.701  3.5014  0.0134 -1.1415
   11DOPE  H11S 1350   3.522   3.069  14.745 -0.3403 -0.0568 -0.8223
   11DOPE  C212 1351   3.488   3.117  14.544  0.0391  1.1676  0.6926
   11DOPE  H12R 1352   3.388   3.150  14.579 -1.1368 -2.3675  1.0347
   11DOPE  H12S 1353   3.476   3.017  14.499  1.5865  0.5151  1.6668
   11DOPE  C213 1354   3.532   3.218  14.436 -0.8756  0.3768 -0.3299
   11DOPE  H13R 1355   3.623   3.186  14.380 -0.0052  0.6036  0.9157
   11DOPE  H13S 1356   3.552   3.317  14.483 -1.7727  0.9842 -1.1935
   11DOPE  C214 1357   3.420   3.243  14.339  0.4795  0.3662 -0.4207
   11DOPE  H14R 1358   3.450   3.341  14.295  2.6879 -0.2689 -0.4555
   11DOPE  H14S 1359   3.321   3.240  14.390  0.8390  0.3475  0.2840
   11DOPE  C215 1360   3.429   3.162  14.214 -0.0036  1.0615 -0.2616
   11DOPE  H15R 1361   3.408   3.055  14.234  1.2613  0.0763 -3.5500
   11DOPE  H15S 1362   3.534   3.167  14.177 -0.0491  1.2079 -0.3721
   11DOPE  C216 1363   3.333   3.195  14.097  0.7271 -0.9012 -0.1275
   11DOPE  H16R 1364   3.366   3.287  14.045  0.4198 -1.8590 -2.1053
   11DOPE  H16S 1365   3.228   3.215  14.126  0.8913 -2.1588  1.4808
   11DOPE  C217 1366   3.318   3.088  13.986 -0.1480 -0.5050 -0.7042
   11DOPE  H17R 1367   3.249   3.134  13.913 -0.7334 -1.9164 -1.0855
   11DOPE  H17S 1368   3.273   3.000  14.037  1.7180  0.2075  2.4545
   11DOPE  C218 1369   3.446   3.051  13.913  0.1595 -0.0705 -0.1938
   11DOPE  H18R 1370   3.431   3.041  13.803 -2.0284 -2.0195  0.1823
   11DOPE  H18S 1371   3.492   2.956  13.949 -1.0316 -1.2788 -1.6816
   11DOPE  H18T 1372   3.516   3.135  13.928  0.4811 -0.3934  0.1265
   11DOPE   C33 1373   2.463   3.013  15.361  0.1906  0.0231 -0.7581
   11DOPE   H3X 1374   2.457   2.987  15.469 -1.1707  1.8644 -0.3365
   11DOPE   H3Y 1375   2.473   2.919  15.302 -0.4881 -1.5299  1.4840
   11DOPE   C34 1376   2.339   3.094  15.310  0.2384  0.7811 -0.1653
   11DOPE   H4X 1377   2.250   3.036  15.343 -0.9436  1.5983 -1.7367
   11DOPE   H4Y 1378   2.330   3.193  15.360  0.0902  0.4969  0.3829
   11DOPE   C35 1379   2.340   3.092  15.158  0.1669 -0.2946  0.1770
   11DOPE   H5X 1380   2.342   2.987  15.123 -2.8307 -1.1779  2.3100
   11DOPE   H5Y 1381   2.431   3.147  15.123 -0.2100  0.5147  0.4349
   11DOPE   C36 1382   2.220   3.159  15.091 -0.1044  0.2017 -0.6895
   11DOPE   H6X 1383   2.199   3.263  15.122 -0.5004  0.5980 -2.2046
   11DOPE   H6Y 1384   2.135   3.097  15.127 -1.0440  1.3141 -0.9518
   11DOPE   C37 1385   2.247   3.151  14.936  0.5291 -0.3110  0.2211
   11DOPE   H7X 1386   2.349   3.178  14.901 -0.0009 -1.1415 -2.1224
   11DOPE   H7Y 1387   2.226   3.044  14.917 -3.0262  0.1943  0.6338
   11DOPE   C38 1388   2.156   3.243  14.854 -0.3435 -0.4293 -0.3691
   11DOPE   H8X 1389   2.189   3.255  14.748 -1.2834 -1.8808 -0.8540
   11DOPE   H8Y 1390   2.165   3.336  14.913 -2.2172 -1.6371  1.9804
   11DOPE   C39 1391   2.012   3.208  14.867  0.8188  0.2663 -0.5860
   11DOPE   H9X 1392   1.983   3.176  14.969 -0.2297  2.4741 -0.1330
   11DOPE  C310 1393   1.924   3.188  14.767  0.1429  0.2549 -0.2564
   11DOPE  H10X 1394   1.818   3.183  14.796  0.9549 -1.0065  2.8863
   11DOPE  C311 1395   1.952   3.216  14.624  0.0866 -0.0716  0.2365
   11DOPE  H11X 1396   2.061   3.208  14.600  0.3468 -1.8244  1.7731
   11DOPE  H11Y 1397   1.902   3.132  14.572 -1.5881  0.9920  0.0612
   11DOPE  C312 1398   1.908   3.352  14.569  0.0307  0.4828 -0.4100
   11DOPE  H12X 1399   1.801   3.361  14.597 -0.2139  1.2174 -1.4780
   11DOPE  H12Y 1400   1.913   3.355  14.458  0.4831 -3.0187 -0.5873
   11DOPE  C313 1401   1.996   3.469  14.617  0.6659 -0.2690  0.1643
   11DOPE  H13X 1402   2.026   3.458  14.723 -0.6133  1.5449  0.7716
   11DOPE  H13Y 1403   2.090   3.453  14.561  1.2767  0.9073  0.8223
   11DOPE  C314 1404   1.938   3.606  14.582 -0.6863 -0.0819  0.7937
   11DOPE  H14X 1405   1.837   3.605  14.629 -0.0995 -1.4633  2.1060
   11DOPE  H14Y 1406   1.939   3.625  14.473 -0.6724  2.1043  1.1202
   11DOPE  C315 1407   2.013   3.730  14.645 -0.0020  0.6936 -0.2399
   11DOPE  H15X 1408   2.036   3.692  14.747  0.6629 -3.2992 -1.7195
   11DOPE  H15Y 1409   1.955   3.825  14.650 -2.8370 -0.9509  0.3201
   11DOPE  C316 1410   2.139   3.770  14.565 -0.0736 -0.1510  0.4931
   11DOPE  H16X 1411   2.188   3.677  14.528 -1.6675 -1.6201  1.8597
   11DOPE  H16Y 1412   2.213   3.809  14.639 -0.2320 -1.7875  1.5819
   11DOPE  C317 1413   2.123   3.871  14.448 -0.0058  0.1839  0.4814
   11DOPE  H17X 1414   2.045   3.824  14.385  0.7406 -1.6887  0.8770
   11DOPE  H17Y 1415   2.075   3.962  14.490  0.0471 -0.2090  1.4246
   11DOPE  C318 1416   2.252   3.909  14.379 -0.0591 -0.2167  0.7455
   11DOPE  H18X 1417   2.229   3.991  14.307  0.3306 -2.4758 -2.1687
   11DOPE  H18Y 1418   2.330   3.937  14.453  1.5516 -0.2676 -0.8515
   11DOPE  H18Z 1419   2.276   3.820  14.316  0.4397 -0.5776  1.4373
   12DOPE     N 1420   2.814   8.105  15.987  0.4138 -0.7326 -0.1560
   12DOPE   HN1 1421   2.740   8.093  15.914 -0.2566 -1.0257  0.5494
   12DOPE   HN2 1422   2.800   8.199  16.027  2.9547  0.9268 -2.7636
   12DOPE   HN3 1423   2.903   8.115  15.935  1.1436 -2.8378  0.5781
   12DOPE   C12 1424   2.825   8.009  16.102  0.3118  0.4498 -0.1127
   12DOPE  H12A 1425   2.732   8.003  16.163 -0.2934 -1.5473 -1.1471
   12DOPE  H12B 1426   2.905   8.046  16.169  0.9799 -0.0897 -0.6084
   12DOPE   C11 1427   2.849   7.868  16.046 -0.6882  0.5881 -0.2281
   12DOPE  H11A 1428   2.854   7.786  16.121  0.0838  0.4833 -0.3909
   12DOPE  H11B 1429   2.947   7.882  15.996 -0.1593 -0.8494  0.3489
   12DOPE     P 1430   2.747   7.736  15.840 -0.2476  0.0528  0.2703
   12DOPE   O13 1431   2.605   7.726  15.794  0.8526  0.2175 -0.3195
   12DOPE   O14 1432   2.816   7.613  15.884 -0.4305  0.0403  0.4481
   12DOPE   O11 1433   2.847   7.811  15.735  0.2727 -0.2362 -0.3765
   12DOPE   O12 1434   2.737   7.835  15.962 -0.1716 -0.5799  0.2569
   12DOPE    C1 1435   2.968   7.739  15.703  1.0770  0.1597 -0.2657
   12DOPE    HA 1436   2.947   7.639  15.660  0.7222 -0.2871  0.9054
   12DOPE    HB 1437   3.030   7.726  15.794 -1.5259 -1.3034  1.4378
   12DOPE    C2 1438   3.058   7.810  15.605  0.2361  0.1466  0.4710
   12DOPE    HS 1439   3.087   7.909  15.647  0.4433  0.5484 -0.5833
   12DOPE   O21 1440   2.986   7.828  15.480  0.0263 -0.2917  0.4792
   12DOPE   C21 1441   3.056   7.901  15.389 -0.2625  0.5064  0.5063
   12DOPE   O22 1442   3.170   7.940  15.395  0.0278  0.2050 -0.2309
   12DOPE   C22 1443   2.964   7.941  15.271 -0.0127  0.8577 -0.0325
   12DOPE   H2R 1444   2.873   7.988  15.314  0.1488 -1.2102  2.8322
   12DOPE   H2S 1445   2.943   7.842  15.226  1.8686 -0.3286  1.5311
   12DOPE    C3 1446   3.187   7.715  15.582 -0.2149 -0.3297 -0.1239
   12DOPE    HX 1447   3.239   7.727  15.680 -1.1447  0.5287  0.2859
   12DOPE    HY 1448   3.268   7.764  15.524  2.3270  0.0450  3.4200
   12DOPE   O31 1449   3.160   7.577  15.560 -0.0656  0.3601 -0.3343
   12DOPE   C31 1450   3.272   7.504  15.570  0.6762 -0.6098 -0.1774
   12DOPE   O32 1451   3.388   7.548  15.572  0.4881 -0.1670  0.0816
   12DOPE   C32 1452   3.239   7.353  15.554 -0.0694 -0.1646 -0.1927
   12DOPE   H2X 1453   3.288   7.311  15.644  3.5097  1.9272 -0.9770
   12DOPE   H2Y 1454   3.132   7.322  15.556  0.5953 -2.6305 -0.1206
   12DOPE   C23 1455   3.033   8.027  15.162 -0.5007 -0.0222 -0.2818
   12DOPE   H3R 1456   3.141   8.002  15.161  0.3435  3.1112  1.4872
   12DOPE   H3S 1457   3.040   8.134  15.187  1.8735 -0.6103  1.9872
   12DOPE   C24 1458   2.990   7.987  15.022 -0.3366  0.1175  0.4782
   12DOPE   H4R 1459   2.881   8.008  15.012 -0.3748 -1.0992 -2.6792
   12DOPE   H4S 1460   3.008   7.878  15.014  1.6308  0.5204 -1.1624
   12DOPE   C25 1461   3.073   8.057  14.912  0.1350  0.0466  0.5184
   12DOPE   H5R 1462   3.176   8.018  14.905  0.0106 -0.1091 -0.5777
   12DOPE   H5S 1463   3.069   8.168  14.919  0.2878  0.3568 -2.6122
   12DOPE   C26 1464   3.010   8.031  14.773 -0.1083  0.2194  0.1431
   12DOPE   H6R 1465   3.069   8.088  14.698 -1.9049  0.9767 -0.7408
   12DOPE   H6S 1466   2.902   8.056  14.786 -0.1861 -0.4069  0.7923
   12DOPE   C27 1467   3.018   7.883  14.725 -0.8053  0.2899  0.4176
   12DOPE   H7R 1468   2.975   7.818  14.804 -0.9667 -0.5366 -0.3316
   12DOPE   H7S 1469   3.126   7.859  14.715 -0.7376  0.9956 -0.7329
   12DOPE   C28 1470   2.933   7.858  14.600 -0.7917 -0.8924  0.3979
   12DOPE   H8R 1471   2.972   7.931  14.526  0.4517  0.3836  2.2198
   12DOPE   H8S 1472   2.826   7.881  14.622 -0.2156  0.2755  2.1987
   12DOPE   C29 1473   2.945   7.718  14.545 -0.0602 -0.1740  0.4392
   12DOPE   H9R 1474   2.914   7.639  14.615  0.1269 -0.4401  0.2253
   12DOPE  C210 1475   3.001   7.674  14.432 -0.7337 -0.1751 -0.5378
   12DOPE  H10R 1476   2.982   7.572  14.394  1.9176 -0.1381 -2.2124
   12DOPE  C211 1477   3.076   7.758  14.334  0.3843  0.4997  0.3766
   12DOPE  H11R 1478   3.182   7.724  14.323  0.0682  0.2935 -2.8103
   12DOPE  H11S 1479   3.076   7.869  14.342  0.3780  0.8416 -2.9629
   12DOPE  C212 1480   3.013   7.722  14.191  0.0742  0.2571 -0.1687
   12DOPE  H12R 1481   2.907   7.748  14.210  0.2438  0.8059  0.0416
   12DOPE  H12S 1482   3.024   7.615  14.165 -3.4069 -0.3779  0.5190
   12DOPE  C213 1483   3.078   7.809  14.082 -0.1506  0.0983 -0.0033
   12DOPE  H13R 1484   3.187   7.789  14.097 -0.7157 -2.2162  1.3942
   12DOPE  H13S 1485   3.060   7.916  14.106  0.9208 -0.3354  3.2177
   12DOPE  C214 1486   3.030   7.772  13.940 -0.2661 -0.2502 -0.0146
   12DOPE  H14R 1487   3.080   7.675  13.916 -0.1900 -0.7639  2.0186
   12DOPE  H14S 1488   3.059   7.845  13.861 -2.6329  0.8177  0.0382
   12DOPE  C215 1489   2.877   7.757  13.929  0.5377  0.1603  0.2254
   12DOPE  H15R 1490   2.819   7.843  13.967 -1.4016 -0.1790 -1.7653
   12DOPE  H15S 1491   2.854   7.670  13.995  4.4967 -0.9292  0.4307
   12DOPE  C216 1492   2.814   7.735  13.787 -0.6047  0.3698 -0.2155
   12DOPE  H16R 1493   2.842   7.641  13.734  1.2336  1.4725 -1.3181
   12DOPE  H16S 1494   2.851   7.821  13.727 -0.4619  0.5287  0.0988
   12DOPE  C217 1495   2.659   7.744  13.791 -0.7538  0.2859 -0.3267
   12DOPE  H17R 1496   2.626   7.775  13.689 -0.9135 -0.5002 -0.5247
   12DOPE  H17S 1497   2.636   7.825  13.862  2.1587  0.2582  0.7792
   12DOPE  C218 1498   2.582   7.619  13.831  0.5157 -0.8244  0.0827
   12DOPE  H18R 1499   2.474   7.632  13.805  1.0273 -0.7730 -2.2265
   12DOPE  H18S 1500   2.596   7.600  13.939  3.3951 -1.3198 -0.3074
   12DOPE  H18T 1501   2.615   7.535  13.766 -1.7201 -0.2925 -1.9093
   12DOPE   C33 1502   3.314   7.300  15.425  0.7012  0.0103  0.1446
   12DOPE   H3X 1503   3.421   7.330  15.429  1.5287 -2.6209 -0.2238
   12DOPE   H3Y 1504   3.261   7.331  15.333 -0.0989  2.6170  1.3766
   12DOPE   C34 1505   3.299   7.148  15.434 -0.0357  1.0602 -0.2103
   12DOPE   H4X 1506   3.384   7.113  15.495 -0.4038  0.6040  0.0483
   12DOPE   H4Y 1507   3.202   7.111  15.474 -0.0159  1.6913  0.4503
   12DOPE   C35 1508   3.303   7.088  15.293 -0.9829 -0.1033 -0.2399
   12DOPE   H5X 1509   3.215   7.123  15.236 -0.8728  0.5075 -0.0362
   12DOPE   H5Y 1510   3.278   6.981  15.310  0.7473 -0.8917 -2.2007
   12DOPE   C36 1511   3.427   7.115  15.213 -0.5844 -0.0502  0.1977
   12DOPE   H6X 1512   3.467   7.013  15.195 -0.3634 -0.3136  2.0097
   12DOPE   H6Y 1513   3.501   7.163  15.281  0.3076 -0.6065 -0.3586
   12DOPE   C37 1514   3.380   7.189  15.089 -1.1573 -0.1223  0.3099
   12DOPE   H7X 1515   3.289   7.135  15.053 -0.5311 -2.2016  1.6452
   12DOPE   H7Y 1516   3.357   7.297  15.099  1.6920  0.5279  0.6323
   12DOPE   C38 1517   3.483   7.182  14.968  0.0046  0.2349 -0.0955
   12DOPE   H8X 1518   3.432   7.211  14.874 -1.0506  0.7259  0.6110
   12DOPE   H8Y 1519   3.499   7.074  14.948 -1.3070  0.0923 -0.4671
   12DOPE   C39 1520   3.616   7.243  14.991  0.3492 -0.2647 -0.7494
   12DOPE   H9X 1521   3.660   7.201  15.083 -1.6222 -0.4524  0.1736
   12DOPE  C310 1522   3.674   7.334  14.911 -0.1204  0.3707  0.5365
   12DOPE  H10X 1523   3.772   7.376  14.938  1.0198 -2.5736  1.4210
   12DOPE  C311 1524   3.642   7.385  14.769  0.3889  0.0544 -0.2006
   12DOPE  H11X 1525   3.540   7.429  14.771  0.1391 -0.4907 -0.5563
   12DOPE  H11Y 1526   3.716   7.465  14.746  0.4431 -0.3715 -1.5923
   12DOPE  C312 1527   3.630   7.286  14.655  0.3341  0.0374  0.2185
   12DOPE  H12X 1528   3.571   7.336  14.575  0.1910 -0.6046 -0.0771
   12DOPE  H12Y 1529   3.577   7.195  14.689  0.6490 -0.1950  0.0904
   12DOPE  C313 1530   3.759   7.237  14.599  0.6021  0.5720  0.2085
   12DOPE  H13X 1531   3.819   7.326  14.570 -0.1980  1.1390  0.2645
   12DOPE  H13Y 1532   3.804   7.163  14.669  0.4434 -0.1163 -0.4045
   12DOPE  C314 1533   3.746   7.165  14.461  0.5358 -0.7831 -0.3208
   12DOPE  H14X 1534   3.707   7.242  14.391  0.4399  0.2195  0.7992
   12DOPE  H14Y 1535   3.666   7.089  14.469 -1.5196  1.3287  0.2912
   12DOPE  C315 1536   3.874   7.101  14.416 -0.6403  0.5242 -0.7657
   12DOPE  H15X 1537   3.899   7.023  14.492 -0.2081  0.7612 -0.6633
   12DOPE  H15Y 1538   3.948   7.183  14.428 -0.3769  0.3940 -1.4746
   12DOPE  C316 1539   3.869   7.029  14.279 -0.5265  0.0678 -0.6660
   12DOPE  H16X 1540   3.968   7.007  14.233 -0.1972  0.5622 -0.2161
   12DOPE  H16Y 1541   3.815   7.103  14.217 -2.2227 -0.2677  0.3415
   12DOPE  C317 1542   3.768   6.913  14.265  0.1480  1.3082  0.0416
   12DOPE  H17X 1543   3.673   6.963  14.294 -1.6117 -0.9607 -1.4007
   12DOPE  H17Y 1544   3.751   6.878  14.160  1.9479 -0.3749  0.2607
   12DOPE  C318 1545   3.795   6.798  14.357  0.4630  0.8388  0.2942
   12DOPE  H18X 1546   3.779   6.832  14.461  0.4978 -0.2271  0.6549
   12DOPE  H18Y 1547   3.725   6.720  14.321  1.2950 -0.6259  1.7166
   12DOPE  H18Z 1548   3.899   6.762  14.343  0.8560  1.7974  0.6977
   13DOPE     N 1549   3.051   0.489  15.792 -0.0613  0.0129 -0.1076
   13DOPE   HN1 1550   3.070   0.528  15.697 -0.4758 -0.3403 -0.3373
   13DOPE   HN2 1551   3.147   0.462  15.822 -0.0148  1.3782  1.1167
   13DOPE   HN3 1552   2.979   0.415  15.785  1.2101 -1.1692 -1.1066
   13DOPE   C12 1553   2.985   0.596  15.857 -0.4683 -0.8788  0.1139
   13DOPE  H12A 1554   3.056   0.678  15.882 -1.4894  1.0291 -2.7423
   13DOPE  H12B 1555   2.956   0.563  15.959  0.7453 -0.1649  0.7178
   13DOPE   C11 1556   2.865   0.644  15.778 -0.7661 -0.1891  0.3861
   13DOPE  H11A 1557   2.905   0.689  15.685 -0.0528 -1.6368 -0.0470
   13DOPE  H11B 1558   2.813   0.723  15.836 -0.3179  1.1908 -1.0434
   13DOPE     P 1559   2.611   0.534  15.762  0.2623  0.1772  0.2312
   13DOPE   O13 1560   2.567   0.651  15.844  0.3927 -0.0818  0.0320
   13DOPE   O14 1561   2.570   0.395  15.804  0.0410 -0.3862  0.2965
   13DOPE   O11 1562   2.555   0.557  15.614 -0.4304  0.1031  0.2473
   13DOPE   O12 1563   2.770   0.543  15.744  0.1223 -0.0157  0.2034
   13DOPE    C1 1564   2.611   0.484  15.500 -0.1712 -0.9249  0.4699
   13DOPE    HA 1565   2.537   0.468  15.420 -0.9183 -1.9744  1.3417
   13DOPE    HB 1566   2.622   0.378  15.533  2.2360 -0.6520  0.7236
   13DOPE    C2 1567   2.746   0.548  15.445  0.4226  0.6526  0.5229
   13DOPE    HS 1568   2.796   0.615  15.519 -1.4945  2.7193  0.0626
   13DOPE   O21 1569   2.718   0.625  15.329 -0.6183  0.1948  0.2659
   13DOPE   C21 1570   2.669   0.740  15.356 -0.1237 -0.3333 -0.5596
   13DOPE   O22 1571   2.681   0.801  15.462  0.6757 -0.1982 -0.2558
   13DOPE   C22 1572   2.600   0.795  15.229  0.3999 -0.8453  0.0281
   13DOPE   H2R 1573   2.527   0.721  15.190  0.4658  0.0589 -1.9874
   13DOPE   H2S 1574   2.669   0.827  15.148  1.0631 -0.3997  0.7626
   13DOPE    C3 1575   2.842   0.431  15.420  0.3121 -0.1113 -0.5745
   13DOPE    HX 1576   2.789   0.352  15.362 -0.3994 -0.0720  0.0028
   13DOPE    HY 1577   2.868   0.383  15.516 -0.5310  0.0017 -0.2765
   13DOPE   O31 1578   2.956   0.474  15.339  0.2804  0.8426 -0.3076
   13DOPE   C31 1579   3.057   0.531  15.404  0.2153 -0.1798  0.5890
   13DOPE   O32 1580   3.073   0.533  15.524  0.1942  0.1886  0.0690
   13DOPE   C32 1581   3.157   0.590  15.303 -0.1173 -0.0467 -0.4250
   13DOPE   H2X 1582   3.252   0.536  15.322 -0.1965 -0.4545 -1.1296
   13DOPE   H2Y 1583   3.132   0.564  15.198  3.3734  1.3835 -1.7531
   13DOPE   C23 1584   2.520   0.928  15.254  0.0509 -0.0429  0.0681
   13DOPE   H3R 1585   2.487   0.926  15.361 -0.7582  1.4352 -0.1314
   13DOPE   H3S 1586   2.431   0.935  15.188 -0.8224 -0.2978  1.1826
   13DOPE   C24 1587   2.595   1.066  15.239 -0.4298 -0.3583  0.4057
   13DOPE   H4R 1588   2.641   1.095  15.143 -0.4455 -0.5454  0.3412
   13DOPE   H4S 1589   2.676   1.061  15.315  0.2357 -1.4113 -0.3417
   13DOPE   C25 1590   2.508   1.182  15.286  0.4491  0.4849 -0.0703
   13DOPE   H5R 1591   2.576   1.266  15.313  1.6927 -1.0243  1.6831
   13DOPE   H5S 1592   2.448   1.145  15.372 -1.5337 -1.8937 -2.3241
   13DOPE   C26 1593   2.409   1.228  15.182  0.2598 -0.9198 -0.1775
   13DOPE   H6R 1594   2.331   1.151  15.166 -0.4087 -0.2853  0.0045
   13DOPE   H6S 1595   2.467   1.235  15.087  1.6596 -0.6514  0.6672
   13DOPE   C27 1596   2.338   1.361  15.222 -0.2287  0.3796 -0.6551
   13DOPE   H7R 1597   2.326   1.367  15.333  1.4523  2.4095 -0.5091
   13DOPE   H7S 1598   2.235   1.355  15.180 -0.4842  3.1996 -0.6488
   13DOPE   C28 1599   2.397   1.501  15.167 -0.1382  0.2299  0.2239
   13DOPE   H8R 1600   2.322   1.582  15.172 -0.4323  0.1644 -2.1739
   13DOPE   H8S 1601   2.415   1.473  15.061  1.5603 -1.7848  0.9677
   13DOPE   C29 1602   2.523   1.546  15.232  0.2086  0.8323 -0.4691
   13DOPE   H9R 1603   2.534   1.511  15.336 -2.3701  0.0148 -0.4253
   13DOPE  C210 1604   2.611   1.624  15.176 -0.0814 -0.2328 -0.9866
   13DOPE  H10R 1605   2.705   1.648  15.230  0.6914 -2.6615 -1.1498
   13DOPE  C211 1606   2.604   1.667  15.031 -0.0109  0.5736  0.0822
   13DOPE  H11R 1607   2.570   1.584  14.966  2.5452 -0.3432 -0.1987
   13DOPE  H11S 1608   2.710   1.684  15.002  0.1152  2.6504  1.5348
   13DOPE  C212 1609   2.533   1.796  14.995  0.5095 -1.0511 -0.2678
   13DOPE  H12R 1610   2.582   1.887  15.035 -0.5637 -0.8049  0.5166
   13DOPE  H12S 1611   2.428   1.785  15.029  0.7678  0.5181  1.1966
   13DOPE  C213 1612   2.517   1.819  14.842 -0.7769  0.3257  0.2168
   13DOPE  H13R 1613   2.471   1.918  14.821 -0.9820  0.0979 -0.4384
   13DOPE  H13S 1614   2.460   1.733  14.803 -2.8057  1.6581  0.1221
   13DOPE  C214 1615   2.647   1.831  14.762  0.1882 -0.2183 -0.6105
   13DOPE  H14R 1616   2.616   1.845  14.656 -0.0752 -0.2745 -0.5426
   13DOPE  H14S 1617   2.702   1.735  14.773  0.4444  0.0173  0.2164
   13DOPE  C215 1618   2.732   1.955  14.805  0.9809  0.4956 -0.0011
   13DOPE  H15R 1619   2.834   1.942  14.763  1.2985  0.2489  0.8200
   13DOPE  H15S 1620   2.741   1.949  14.916  0.6941 -0.1551 -0.0080
   13DOPE  C216 1621   2.692   2.102  14.769  0.1707  0.1800  0.1033
   13DOPE  H16R 1622   2.600   2.130  14.825 -0.0055  0.7720 -0.4651
   13DOPE  H16S 1623   2.665   2.106  14.661 -0.4605  2.4338  0.3040
   13DOPE  C217 1624   2.808   2.211  14.790 -0.1989 -0.3482  0.0078
   13DOPE  H17R 1625   2.895   2.179  14.729  0.0001 -0.3799  0.3059
   13DOPE  H17S 1626   2.852   2.227  14.890  0.3243  0.7920 -0.3934
   13DOPE  C218 1627   2.758   2.343  14.745  0.2640  0.0734 -0.1043
   13DOPE  H18R 1628   2.674   2.374  14.810  1.4350 -0.0551  1.5391
   13DOPE  H18S 1629   2.720   2.339  14.640  0.8740 -0.1562 -0.3241
   13DOPE  H18T 1630   2.833   2.425  14.748 -0.3122  0.6107 -0.1937
   13DOPE   C33 1631   3.172   0.739  15.337  0.4177 -0.3690  0.1879
   13DOPE   H3X 1632   3.245   0.783  15.265  1.3711  0.4975  1.6315
   13DOPE   H3Y 1633   3.225   0.760  15.432  0.9448  0.5158 -0.2814
   13DOPE   C34 1634   3.034   0.818  15.343  0.0071  0.3030 -0.2751
   13DOPE   H4X 1635   2.952   0.760  15.390  2.3122 -1.8966  1.3076
   13DOPE   H4Y 1636   3.042   0.910  15.404 -0.6193 -0.8971  1.7120
   13DOPE   C35 1637   2.987   0.858  15.202 -0.0585  0.3812 -0.0571
   13DOPE   H5X 1638   2.881   0.891  15.203  0.2204  1.2926  1.3414
   13DOPE   H5Y 1639   3.000   0.771  15.134 -0.7481  0.4403 -0.2665
   13DOPE   C36 1640   3.069   0.983  15.158 -0.5122 -0.3533  0.1656
   13DOPE   H6X 1641   3.178   0.963  15.156 -0.1347  1.5902 -1.0064
   13DOPE   H6Y 1642   3.035   1.056  15.235 -2.4191 -2.0484  1.0126
   13DOPE   C37 1643   3.020   1.021  15.021  0.0424 -0.3004  0.2175
   13DOPE   H7X 1644   3.060   0.940  14.957  1.3255  0.1491  0.4301
   13DOPE   H7Y 1645   2.909   1.014  15.014 -0.0018  0.5652 -0.0415
   13DOPE   C38 1646   3.055   1.161  14.972  0.3693  0.7699 -0.2245
   13DOPE   H8X 1647   3.022   1.180  14.868 -0.1629 -0.7179 -0.3535
   13DOPE   H8Y 1648   3.165   1.173  14.977  0.4169 -0.1266  1.6590
   13DOPE   C39 1649   3.000   1.269  15.063  0.0007 -0.2973  0.6874
   13DOPE   H9X 1650   3.066   1.291  15.148  0.9328 -0.5784  0.0579
   13DOPE  C310 1651   2.884   1.336  15.047  0.0511  0.1059  0.0940
   13DOPE  H10X 1652   2.854   1.419  15.112 -1.1008 -1.8361  2.1759
   13DOPE  C311 1653   2.787   1.307  14.938 -0.6584  0.3875 -0.0353
   13DOPE  H11X 1654   2.805   1.209  14.890 -1.9622  0.3214 -0.4198
   13DOPE  H11Y 1655   2.688   1.296  14.986 -0.5298 -0.2684  0.0809
   13DOPE  C312 1656   2.788   1.409  14.824  0.5237  0.2253 -1.0861
   13DOPE  H12X 1657   2.890   1.401  14.781  0.4303 -0.1803 -1.2422
   13DOPE  H12Y 1658   2.759   1.511  14.857 -0.0039  0.0634 -1.0404
   13DOPE  C313 1659   2.684   1.374  14.722  0.6057 -0.3015  0.4866
   13DOPE  H13X 1660   2.689   1.268  14.689 -0.6988 -0.6394  1.3317
   13DOPE  H13Y 1661   2.587   1.387  14.774 -0.5542 -0.6212 -1.4750
   13DOPE  C314 1662   2.697   1.463  14.602  0.4607  0.6723  0.2397
   13DOPE  H14X 1663   2.796   1.464  14.551  0.1405  1.1298 -0.3832
   13DOPE  H14Y 1664   2.674   1.560  14.651  0.1514  1.4461 -1.3498
   13DOPE  C315 1665   2.579   1.449  14.504  0.4005  0.6674 -0.0000
   13DOPE  H15X 1666   2.596   1.365  14.433  0.5126 -0.2841  1.1249
   13DOPE  H15Y 1667   2.585   1.534  14.433  0.9728 -0.1634 -0.9740
   13DOPE  C316 1668   2.436   1.426  14.570  0.3542 -0.1988  0.1363
   13DOPE  H16X 1669   2.405   1.521  14.618 -0.4613  0.7819 -2.1899
   13DOPE  H16Y 1670   2.438   1.346  14.647 -0.0337 -2.5698 -2.1549
   13DOPE  C317 1671   2.324   1.385  14.478  0.6254 -0.3223 -0.2031
   13DOPE  H17X 1672   2.298   1.470  14.412  2.6215 -0.0241 -0.6655
   13DOPE  H17Y 1673   2.362   1.301  14.416  1.1832 -0.5610  0.4479
   13DOPE  C318 1674   2.197   1.347  14.561 -0.2844 -0.1940 -0.5756
   13DOPE  H18X 1675   2.233   1.266  14.628 -0.0847  1.7995  1.8690
   13DOPE  H18Y 1676   2.158   1.435  14.616 -0.8002 -1.2304  0.7704
   13DOPE  H18Z 1677   2.123   1.316  14.484 -0.8861 -1.8882  0.6242
   14DOPE     N 1678   7.909   4.701  16.381 -0.8245 -0.6528  0.1971
   14DOPE   HN1 1679   7.897   4.602  16.350  1.2454 -1.1014  0.6501
   14DOPE   HN2 1680   7.969   4.741  16.306 -0.1014  0.0212  1.1160
   14DOPE   HN3 1681   7.966   4.702  16.468 -1.0486 -1.1515  0.3567
   14DOPE   C12 1682   7.771   4.771  16.407 -0.7071 -0.2266  0.0072
   14DOPE  H12A 1683   7.796   4.877  16.429 -1.3494 -0.1997  0.6780
   14DOPE  H12B 1684   7.725   4.714  16.491  0.1898 -1.2991 -0.1999
   14DOPE   C11 1685   7.681   4.752  16.280 -0.4882  0.2538 -0.0436
   14DOPE  H11A 1686   7.744   4.785  16.194 -0.7189 -0.0677 -0.3435
   14DOPE  H11B 1687   7.597   4.824  16.280 -1.7212 -1.1208  0.1249
   14DOPE     P 1688   7.698   4.516  16.159  0.2092 -0.3132  0.1537
   14DOPE   O13 1689   7.689   4.379  16.218 -0.4632 -0.3258 -0.2545
   14DOPE   O14 1690   7.830   4.562  16.118 -0.1850  0.1030  0.3590
   14DOPE   O11 1691   7.599   4.530  16.031  0.1323 -0.1615  0.0656
   14DOPE   O12 1692   7.633   4.619  16.266 -0.7565  0.0978  1.0024
   14DOPE    C1 1693   7.455   4.539  16.060  0.2367  0.2427  0.1303
   14DOPE    HA 1694   7.433   4.596  16.152  0.1768  1.0008 -0.3471
   14DOPE    HB 1695   7.422   4.434  16.077 -0.8669  0.8735  2.1181
   14DOPE    C2 1696   7.381   4.604  15.942 -0.1012  0.4064 -1.0090
   14DOPE    HS 1697   7.273   4.584  15.952  0.0997  0.1027  1.0846
   14DOPE   O21 1698   7.433   4.566  15.815 -0.2889 -0.8835  0.0624
   14DOPE   C21 1699   7.419   4.436  15.782 -0.3331 -0.4614  0.1201
   14DOPE   O22 1700   7.367   4.350  15.855  0.1963 -0.6342  0.8483
   14DOPE   C22 1701   7.497   4.400  15.651 -0.2340 -0.0464  0.0298
   14DOPE   H2R 1702   7.449   4.305  15.620  0.3548  0.1183 -1.4787
   14DOPE   H2S 1703   7.605   4.382  15.671 -0.7299  0.1864  3.4214
   14DOPE    C3 1704   7.390   4.756  15.953  0.5260  0.3111 -0.7101
   14DOPE    HX 1705   7.490   4.798  15.976 -0.6017  1.8694  1.6915
   14DOPE    HY 1706   7.328   4.787  16.040 -0.1066  1.0710 -1.4321
   14DOPE   O31 1707   7.322   4.821  15.843  0.3601 -0.3074 -0.1101
   14DOPE   C31 1708   7.383   4.916  15.777  0.0207 -0.0611  0.6777
   14DOPE   O32 1709   7.492   4.965  15.799  0.3286 -0.5532  0.1949
   14DOPE   C32 1710   7.288   4.966  15.664  0.3098  0.6687  0.4626
   14DOPE   H2X 1711   7.183   4.933  15.677  0.4465  0.3138  0.7011
   14DOPE   H2Y 1712   7.293   5.077  15.667 -1.5909  0.7726  1.2468
   14DOPE   C23 1713   7.489   4.512  15.551  0.4292 -0.0694  0.3951
   14DOPE   H3R 1714   7.550   4.599  15.585  1.5124 -0.0455 -1.5103
   14DOPE   H3S 1715   7.384   4.534  15.520  1.1127  0.6189 -1.5979
   14DOPE   C24 1716   7.563   4.473  15.423 -0.6024  0.5993 -0.4438
   14DOPE   H4R 1717   7.524   4.375  15.386 -1.7183  0.8103  0.1365
   14DOPE   H4S 1718   7.673   4.460  15.434 -0.5004  1.2542 -0.6519
   14DOPE   C25 1719   7.524   4.563  15.308  0.9288 -0.1682  0.2463
   14DOPE   H5R 1720   7.451   4.639  15.342 -1.3207 -1.8722 -0.5272
   14DOPE   H5S 1721   7.459   4.502  15.241 -0.9103  0.8375  1.0475
   14DOPE   C26 1722   7.631   4.635  15.229 -0.5741 -0.4078 -0.0199
   14DOPE   H6R 1723   7.582   4.688  15.145  0.0540 -3.5346 -2.5180
   14DOPE   H6S 1724   7.708   4.561  15.199 -0.5249 -0.6654  0.7166
   14DOPE   C27 1725   7.719   4.719  15.329  0.3309 -0.8612  0.0329
   14DOPE   H7R 1726   7.787   4.657  15.390 -0.1315  0.6693  2.2223
   14DOPE   H7S 1727   7.641   4.764  15.395 -0.8605  1.6238 -2.8269
   14DOPE   C28 1728   7.803   4.826  15.260  0.2380 -0.0270  0.2831
   14DOPE   H8R 1729   7.865   4.764  15.192 -2.3997 -0.7026 -1.6293
   14DOPE   H8S 1730   7.866   4.881  15.334 -0.0113 -2.3134  2.2985
   14DOPE   C29 1731   7.731   4.933  15.185  0.2599  0.7125 -0.3976
   14DOPE   H9R 1732   7.712   4.904  15.080 -3.1967 -0.0633  0.3248
   14DOPE  C210 1733   7.702   5.058  15.228 -0.3674  0.4967 -1.0757
   14DOPE  H10R 1734   7.658   5.127  15.154  1.0040  0.2344 -2.1756
   14DOPE  C211 1735   7.713   5.126  15.359 -0.6251  0.4907  0.6540
   14DOPE  H11R 1736   7.721   5.063  15.449  0.2328  2.5293  2.0928
   14DOPE  H11S 1737   7.620   5.186  15.372  0.6457  2.7827 -0.1648
   14DOPE  C212 1738   7.826   5.232  15.342 -0.1709 -0.0507  0.0394
   14DOPE  H12R 1739   7.804   5.272  15.241  2.7719 -1.3205 -1.2250
   14DOPE  H12S 1740   7.931   5.197  15.336  0.9490  3.0002  0.0633
   14DOPE  C213 1741   7.809   5.348  15.436  0.7115  0.0679  0.1202
   14DOPE  H13R 1742   7.850   5.316  15.535  1.7455 -0.1144 -0.3447
   14DOPE  H13S 1743   7.701   5.366  15.450  0.5040  0.0771 -1.3112
   14DOPE  C214 1744   7.881   5.479  15.400  0.6579 -0.1365  0.5679
   14DOPE  H14R 1745   7.827   5.534  15.320  0.0734 -1.8154 -0.2526
   14DOPE  H14S 1746   7.981   5.452  15.359  0.4031  0.4420 -0.4683
   14DOPE  C215 1747   7.908   5.563  15.528  0.1878  0.1120  0.5370
   14DOPE  H15R 1748   7.966   5.506  15.604  0.6191 -1.5056 -0.9358
   14DOPE  H15S 1749   7.808   5.577  15.574  0.7486  3.3015  1.0324
   14DOPE  C216 1750   7.981   5.698  15.496 -0.6975 -0.2015 -0.1084
   14DOPE  H16R 1751   7.975   5.769  15.581  0.8962  0.6894 -0.7039
   14DOPE  H16S 1752   7.932   5.740  15.406 -1.5103 -0.2417  0.3054
   14DOPE  C217 1753   8.132   5.679  15.458 -0.0582 -1.1491  0.6079
   14DOPE  H17R 1754   8.147   5.603  15.379  2.6007  0.1293 -0.2427
   14DOPE  H17S 1755   8.181   5.648  15.553  2.7289 -0.4122 -0.4982
   14DOPE  C218 1756   8.194   5.814  15.408  0.6008  0.6909  0.3337
   14DOPE  H18R 1757   8.136   5.839  15.316 -0.6103  1.0241  1.1576
   14DOPE  H18S 1758   8.302   5.805  15.382  0.9287  1.2846  1.4518
   14DOPE  H18T 1759   8.160   5.896  15.476 -2.7785 -0.7800  0.6091
   14DOPE   C33 1760   7.338   4.919  15.526  0.0636  0.7753 -0.3815
   14DOPE   H3X 1761   7.286   4.822  15.516  0.4656  0.5599 -0.4235
   14DOPE   H3Y 1762   7.447   4.898  15.532 -0.6486 -3.5710  0.5104
   14DOPE   C34 1763   7.320   5.020  15.409  0.2541  1.3871  0.5370
   14DOPE   H4X 1764   7.215   5.052  15.395 -0.7951 -2.2903 -1.2504
   14DOPE   H4Y 1765   7.380   5.111  15.430  0.1773  1.1670  1.8300
   14DOPE   C35 1766   7.349   4.961  15.267 -0.8518 -0.3667  0.3283
   14DOPE   H5X 1767   7.259   4.904  15.236 -0.3407 -2.1876  2.0508
   14DOPE   H5Y 1768   7.438   4.896  15.270  0.9175  1.7768 -1.7046
   14DOPE   C36 1769   7.374   5.072  15.156  0.3510  0.7339 -0.3555
   14DOPE   H6X 1770   7.453   5.145  15.185  2.7571 -1.7427 -0.2478
   14DOPE   H6Y 1771   7.277   5.125  15.148  0.6469  1.8964  2.4827
   14DOPE   C37 1772   7.418   5.018  15.016  0.2789  0.5315  0.1311
   14DOPE   H7X 1773   7.405   5.100  14.942 -2.8108  0.0918  0.0574
   14DOPE   H7Y 1774   7.527   4.996  15.019  0.1814 -0.7157 -2.5527
   14DOPE   C38 1775   7.321   4.917  14.955  0.1075  0.3587 -0.7412
   14DOPE   H8X 1776   7.222   4.959  14.929  0.1834  0.3553 -1.0393
   14DOPE   H8Y 1777   7.303   4.836  15.030 -1.3580  2.0679  0.8517
   14DOPE   C39 1778   7.373   4.865  14.823  0.0561 -0.6827  0.3716
   14DOPE   H9X 1779   7.342   4.931  14.741  0.0453 -0.8782  0.2186
   14DOPE  C310 1780   7.407   4.736  14.789 -0.0176 -0.6008  0.4845
   14DOPE  H10X 1781   7.432   4.701  14.688  1.1629 -1.0095  0.8950
   14DOPE  C311 1782   7.426   4.630  14.896  0.1010 -0.1932 -0.0560
   14DOPE  H11X 1783   7.531   4.653  14.924 -0.0475  2.3780 -1.2916
   14DOPE  H11Y 1784   7.365   4.658  14.985  0.8556  2.6836 -0.3174
   14DOPE  C312 1785   7.414   4.482  14.853  0.0388  0.8933 -0.4324
   14DOPE  H12X 1786   7.503   4.465  14.789  0.1694  3.4661 -1.0728
   14DOPE  H12Y 1787   7.321   4.458  14.797 -1.4486  2.0611  1.4052
   14DOPE  C313 1788   7.418   4.386  14.978  0.4692 -0.4066  0.3160
   14DOPE  H13X 1789   7.510   4.418  15.032  0.7108  0.0953 -0.3900
   14DOPE  H13Y 1790   7.327   4.408  15.039  2.2112  2.0415  2.2378
   14DOPE  C314 1791   7.433   4.236  14.942  0.2424 -0.1248 -0.1236
   14DOPE  H14X 1792   7.520   4.215  14.876  1.9712  3.7316  0.6373
   14DOPE  H14Y 1793   7.340   4.217  14.885 -0.7461 -0.6636  1.5841
   14DOPE  C315 1794   7.430   4.147  15.072  0.5013 -0.4658  0.0221
   14DOPE  H15X 1795   7.413   4.045  15.033  1.5230 -0.4731 -0.4352
   14DOPE  H15Y 1796   7.340   4.177  15.131  1.1274  1.9742 -0.1363
   14DOPE  C316 1797   7.556   4.163  15.153  0.3332 -0.1926 -0.4631
   14DOPE  H16X 1798   7.568   4.079  15.225 -0.5672 -0.5099 -0.6682
   14DOPE  H16Y 1799   7.528   4.253  15.211 -2.2375 -1.4007  0.3253
   14DOPE  C317 1800   7.691   4.184  15.079 -0.7099 -0.0170 -0.1732
   14DOPE  H17X 1801   7.710   4.103  15.005 -3.7696 -0.5375 -0.5418
   14DOPE  H17Y 1802   7.678   4.275  15.016 -2.4175 -0.9135 -1.1902
   14DOPE  C318 1803   7.803   4.199  15.174  0.5976  0.9991 -0.9158
   14DOPE  H18X 1804   7.777   4.275  15.251 -1.7522  0.0169 -0.6682
   14DOPE  H18Y 1805   7.823   4.097  15.213 -1.0001  0.9786 -0.0900
   14DOPE  H18Z 1806   7.895   4.238  15.125  1.2107  1.0710  0.2516
   15DOPE     N 1807   0.535   2.818  15.680  0.1647 -0.0936 -0.3924
   15DOPE   HN1 1808   0.632   2.855  15.683  0.0679  0.1948 -0.7046
   15DOPE   HN2 1809   0.476   2.879  15.741  0.0200 -2.1899  1.6884
   15DOPE   HN3 1810   0.549   2.720  15.710 -1.2225  0.0224  0.7405
   15DOPE   C12 1811   0.499   2.826  15.532  0.5338 -0.1306  0.3467
   15DOPE  H12A 1812   0.489   2.933  15.502  0.7367 -0.7405 -2.1951
   15DOPE  H12B 1813   0.401   2.777  15.515  1.1316 -0.8799 -1.1856
   15DOPE   C11 1814   0.598   2.753  15.442  0.1092  0.3027 -0.2026
   15DOPE  H11A 1815   0.565   2.747  15.336 -0.4159 -1.1506  0.0175
   15DOPE  H11B 1816   0.615   2.648  15.473  2.6162  0.1280 -1.8426
   15DOPE     P 1817   0.856   2.744  15.416 -0.1683  0.0155  0.1416
   15DOPE   O13 1818   0.885   2.647  15.519  0.6358  0.9408  0.1950
   15DOPE   O14 1819   0.956   2.848  15.379  0.0133  0.4104 -0.8150
   15DOPE   O11 1820   0.831   2.672  15.284 -0.4107  0.2034  0.0549
   15DOPE   O12 1821   0.720   2.822  15.442  0.0143  0.0904 -0.4833
   15DOPE    C1 1822   0.811   2.743  15.162  0.0184  0.5981 -0.1020
   15DOPE    HA 1823   0.789   2.850  15.181  0.5942  0.4565  1.5183
   15DOPE    HB 1824   0.730   2.697  15.101 -0.7203  1.5445  0.1428
   15DOPE    C2 1825   0.938   2.716  15.076 -0.8252 -0.3501  0.3755
   15DOPE    HS 1826   1.026   2.750  15.135 -1.6809  0.4920  1.1993
   15DOPE   O21 1827   0.934   2.789  14.953 -0.1123 -0.1428  0.2580
   15DOPE   C21 1828   1.003   2.905  14.936  0.4438  0.7118  0.0781
   15DOPE   O22 1829   1.069   2.961  15.022  0.3702 -0.6582 -0.0326
   15DOPE   C22 1830   0.972   2.967  14.803  0.0363  0.4604  0.1301
   15DOPE   H2R 1831   0.863   2.986  14.804  0.1808  1.3383  0.3937
   15DOPE   H2S 1832   0.985   2.894  14.720 -3.0962 -1.1590  0.9213
   15DOPE    C3 1833   0.969   2.566  15.047  0.4661  0.6283  0.0559
   15DOPE    HX 1834   1.009   2.527  15.142  0.8541  0.2475 -0.2590
   15DOPE    HY 1835   1.052   2.557  14.973 -0.7153  0.1431 -1.2543
   15DOPE   O31 1836   0.853   2.494  15.010  0.2728 -0.3112  0.0371
   15DOPE   C31 1837   0.881   2.369  14.994 -0.3681  0.6300  0.1816
   15DOPE   O32 1838   0.995   2.317  15.002  0.0764  0.2338  0.1370
   15DOPE   C32 1839   0.752   2.288  14.955 -0.1224 -0.2355 -0.0798
   15DOPE   H2X 1840   0.729   2.226  15.045 -0.8555 -0.5699 -0.4875
   15DOPE   H2Y 1841   0.667   2.360  14.956  0.3031  0.3064 -1.0878
   15DOPE   C23 1842   1.062   3.090  14.780  0.4275 -0.1955 -0.5653
   15DOPE   H3R 1843   1.169   3.063  14.777  0.1913 -1.4464  0.9610
   15DOPE   H3S 1844   1.041   3.161  14.864  1.0032  1.0765 -1.4610
   15DOPE   C24 1845   1.034   3.154  14.640  0.5426 -0.2098  0.1991
   15DOPE   H4R 1846   1.082   3.254  14.644  2.0932 -0.8503 -1.2081
   15DOPE   H4S 1847   0.925   3.169  14.626  1.0878  3.1446 -1.6674
   15DOPE   C25 1848   1.099   3.076  14.524  0.5068 -0.4532  0.2522
   15DOPE   H5R 1849   1.068   2.970  14.536 -2.4720  0.4881  1.8873
   15DOPE   H5S 1850   1.205   3.084  14.555  0.0916 -2.1107  2.3025
   15DOPE   C26 1851   1.068   3.145  14.387  0.6810 -0.9837 -0.6683
   15DOPE   H6R 1852   1.055   3.253  14.411  0.9293 -1.0723 -0.1073
   15DOPE   H6S 1853   0.967   3.112  14.356  0.2006  0.2904 -0.5326
   15DOPE   C27 1854   1.162   3.109  14.268  1.0038  0.0945  0.4872
   15DOPE   H7R 1855   1.155   3.000  14.251 -1.0666  0.4712 -1.6130
   15DOPE   H7S 1856   1.271   3.123  14.284  0.5791  4.4491  0.9950
   15DOPE   C28 1857   1.127   3.187  14.136  0.1475  0.3565 -0.6312
   15DOPE   H8R 1858   1.021   3.163  14.113  0.6349  0.6077 -3.4228
   15DOPE   H8S 1859   1.180   3.141  14.050  0.3874  1.0162 -0.8406
   15DOPE   C29 1860   1.157   3.340  14.130  0.9430  0.3268 -0.1177
   15DOPE   H9R 1861   1.067   3.400  14.152 -0.2309  0.0264 -3.4589
   15DOPE  C210 1862   1.250   3.405  14.055 -0.4615  0.1648 -0.7488
   15DOPE  H10R 1863   1.249   3.515  14.057  0.6790  0.1799 -0.3628
   15DOPE  C211 1864   1.367   3.340  13.985  0.2797 -0.1562 -0.0734
   15DOPE  H11R 1865   1.336   3.248  13.930 -0.0872  0.6807 -1.3285
   15DOPE  H11S 1866   1.438   3.298  14.059 -0.6254  0.0355  0.9258
   15DOPE  C212 1867   1.441   3.444  13.906 -0.2819 -0.0653  0.2600
   15DOPE  H12R 1868   1.466   3.527  13.976 -1.0844  0.0812  0.3837
   15DOPE  H12S 1869   1.376   3.481  13.823  0.1030  0.1466  0.0492
   15DOPE  C213 1870   1.575   3.396  13.840  0.8547  0.0999 -0.1005
   15DOPE  H13R 1871   1.626   3.324  13.908  2.0883  0.4780 -0.6072
   15DOPE  H13S 1872   1.625   3.489  13.806  0.3691  0.9496  1.3795
   15DOPE  C214 1873   1.547   3.314  13.712  0.7592 -0.4532 -1.1055
   15DOPE  H14R 1874   1.463   3.360  13.656  2.4091  0.2162 -3.2078
   15DOPE  H14S 1875   1.516   3.212  13.744  1.1914 -0.7587 -1.6411
   15DOPE  C215 1876   1.667   3.314  13.621 -0.2977  0.2451  0.7581
   15DOPE  H15R 1877   1.755   3.274  13.676  0.4733 -1.2687 -1.4848
   15DOPE  H15S 1878   1.696   3.417  13.590 -2.1175  0.3251 -0.8320
   15DOPE  C216 1879   1.657   3.217  13.503  0.2590  0.0645 -0.0721
   15DOPE  H16R 1880   1.601   3.127  13.536 -1.3562  1.9622  2.7580
   15DOPE  H16S 1881   1.756   3.191  13.461 -0.5539  0.0677 -2.1013
   15DOPE  C217 1882   1.568   3.268  13.378 -0.1593  0.4597 -0.0974
   15DOPE  H17R 1883   1.611   3.370  13.363 -1.0269  0.9481  0.6671
   15DOPE  H17S 1884   1.463   3.258  13.413 -0.4245 -0.6798 -1.1330
   15DOPE  C218 1885   1.585   3.184  13.255 -0.0065  0.7400  0.1878
   15DOPE  H18R 1886   1.535   3.084  13.257 -1.8136  1.5725 -0.7081
   15DOPE  H18S 1887   1.685   3.179  13.207 -0.8531  0.3159 -1.6269
   15DOPE  H18T 1888   1.533   3.221  13.165  1.8986  1.0561 -0.8291
   15DOPE   C33 1889   0.772   2.207  14.830  0.9548 -0.4812  0.3622
   15DOPE   H3X 1890   0.793   2.101  14.856 -0.4961 -1.1865 -1.1911
   15DOPE   H3Y 1891   0.857   2.234  14.765 -0.6149 -1.9975 -2.5023
   15DOPE   C34 1892   0.658   2.207  14.743  0.7324 -0.0840  0.2563
   15DOPE   H4X 1893   0.570   2.168  14.800  0.2260  0.7546  0.0747
   15DOPE   H4Y 1894   0.625   2.310  14.717 -2.4543  0.0267  3.8158
   15DOPE   C35 1895   0.693   2.122  14.622 -0.3188  0.1492  0.3905
   15DOPE   H5X 1896   0.727   2.021  14.656 -1.8169 -0.3232  0.5946
   15DOPE   H5Y 1897   0.780   2.165  14.569 -0.2726 -0.9484 -0.4652
   15DOPE   C36 1898   0.566   2.118  14.516  0.6276  0.3234  0.6870
   15DOPE   H6X 1899   0.539   2.210  14.461  0.0188 -2.3365 -4.0602
   15DOPE   H6Y 1900   0.476   2.096  14.576 -1.8745  2.3535 -2.0276
   15DOPE   C37 1901   0.572   2.003  14.410 -0.2913  0.0946 -0.1499
   15DOPE   H7X 1902   0.658   2.020  14.343  1.8433 -0.2225  2.3410
   15DOPE   H7Y 1903   0.590   1.907  14.463 -0.5460 -1.4364 -2.6912
   15DOPE   C38 1904   0.442   1.996  14.328 -0.3263 -0.0949  0.3514
   15DOPE   H8X 1905   0.450   1.910  14.257 -2.4536  0.7789 -1.0362
   15DOPE   H8Y 1906   0.430   2.092  14.275 -0.1755  0.3077  1.0335
   15DOPE   C39 1907   0.320   1.969  14.411 -0.5026 -0.2556  0.4037
   15DOPE   H9X 1908   0.287   1.864  14.424 -0.2350 -0.5012 -0.8009
   15DOPE  C310 1909   0.220   2.057  14.425  0.6278  1.1644  0.8253
   15DOPE  H10X 1910   0.133   2.023  14.484 -0.1873  0.8561 -0.5129
   15DOPE  C311 1911   0.215   2.200  14.396 -0.3804 -0.5835  0.2449
   15DOPE  H11X 1912   0.302   2.243  14.342 -1.1404 -0.0945 -0.6143
   15DOPE  H11Y 1913   0.127   2.217  14.330  0.7592  2.6634 -0.6487
   15DOPE  C312 1914   0.197   2.282  14.528 -0.8376  0.0976  0.6111
   15DOPE  H12X 1915   0.297   2.292  14.575 -0.5373 -0.5690  0.1369
   15DOPE  H12Y 1916   0.127   2.232  14.599  0.7819 -1.8390  0.9546
   15DOPE  C313 1917   0.133   2.418  14.507 -0.3140  0.2856  0.3183
   15DOPE  H13X 1918   0.053   2.395  14.433  0.0931  1.1776 -0.4169
   15DOPE  H13Y 1919   0.095   2.473  14.596 -0.3118 -0.0321  0.5165
   15DOPE  C314 1920   0.227   2.526  14.443  0.4761  0.4160  0.5760
   15DOPE  H14X 1921   0.233   2.502  14.335 -2.0776  0.9596  0.2363
   15DOPE  H14Y 1922   0.322   2.536  14.500  1.5174 -2.6175 -0.4488
   15DOPE  C315 1923   0.174   2.662  14.440  0.4135  0.2587  0.3465
   15DOPE  H15X 1924   0.134   2.687  14.541  1.9504 -0.7055  1.2245
   15DOPE  H15Y 1925   0.078   2.660  14.384 -0.9722  1.8821  2.4885
   15DOPE  C316 1926   0.272   2.766  14.387  0.1478  0.3954 -0.4307
   15DOPE  H16X 1927   0.297   2.747  14.280 -0.0160 -1.2886 -0.1970
   15DOPE  H16Y 1928   0.368   2.755  14.442 -1.0988  2.0412  2.3002
   15DOPE  C317 1929   0.232   2.911  14.417 -0.4431 -0.7094  0.0732
   15DOPE  H17X 1930   0.126   2.929  14.386  0.6184  1.4103 -2.7466
   15DOPE  H17Y 1931   0.240   2.930  14.525 -1.2489 -1.6348  0.3213
   15DOPE  C318 1932   0.319   3.016  14.348 -0.6901 -0.1450  0.1345
   15DOPE  H18X 1933   0.304   3.119  14.385  0.8131 -0.2388  1.0848
   15DOPE  H18Y 1934   0.422   2.981  14.373 -1.4395 -2.1739  0.5500
   15DOPE  H18Z 1935   0.315   3.017  14.237  2.8849  0.4382 -0.1333
   16DOPE     N 1936   2.328   1.959  15.557  0.0022 -0.1864 -0.2785
   16DOPE   HN1 1937   2.346   2.039  15.621 -0.8504 -1.1929  1.2874
   16DOPE   HN2 1938   2.243   1.975  15.498 -1.7826 -0.5655  2.0279
   16DOPE   HN3 1939   2.292   1.883  15.618 -1.5455  0.2176 -0.6294
   16DOPE   C12 1940   2.451   1.915  15.484 -0.3042 -0.1848 -0.0335
   16DOPE  H12A 1941   2.470   1.997  15.411  0.7276  0.0937  0.5205
   16DOPE  H12B 1942   2.427   1.816  15.439  0.2035 -0.5499  0.4922
   16DOPE   C11 1943   2.564   1.896  15.589  0.7427  0.3885 -0.4669
   16DOPE  H11A 1944   2.657   1.882  15.529  1.1686 -0.1521  0.2892
   16DOPE  H11B 1945   2.545   1.801  15.644  2.4799  1.2952  1.8849
   16DOPE     P 1946   2.711   2.034  15.760 -0.0568  0.6724  0.0226
   16DOPE   O13 1947   2.714   1.924  15.853  0.5357  0.2683  0.3202
   16DOPE   O14 1948   2.706   2.173  15.809  0.0427  0.4367 -0.7283
   16DOPE   O11 1949   2.820   2.013  15.642 -0.7397 -0.5653  0.1358
   16DOPE   O12 1950   2.574   2.009  15.680  0.5151 -0.4269  0.1495
   16DOPE    C1 1951   2.804   2.114  15.537 -0.6148  0.2881  0.4423
   16DOPE    HA 1952   2.824   2.217  15.573 -0.7855 -0.5018  3.0132
   16DOPE    HB 1953   2.708   2.117  15.482 -0.5313 -0.9876  0.2044
   16DOPE    C2 1954   2.906   2.087  15.421  0.3085  0.3153 -0.2223
   16DOPE    HS 1955   3.011   2.104  15.455  0.9220 -1.3900 -1.1434
   16DOPE   O21 1956   2.871   2.170  15.307  0.4648  0.5553  0.5316
   16DOPE   C21 1957   2.929   2.290  15.323 -0.5438  0.2153  0.2642
   16DOPE   O22 1958   2.976   2.331  15.426  0.3940  0.0137 -0.1544
   16DOPE   C22 1959   2.939   2.365  15.191 -0.2461  0.9282 -0.0992
   16DOPE   H2R 1960   2.888   2.463  15.194 -0.6702  0.6834  2.7023
   16DOPE   H2S 1961   2.881   2.303  15.119 -2.0502  0.7385  1.4616
   16DOPE    C3 1962   2.905   1.935  15.386 -0.3750 -0.6136 -0.3344
   16DOPE    HX 1963   2.802   1.922  15.345 -1.5592  0.3476  2.1262
   16DOPE    HY 1964   2.927   1.869  15.473  1.9147 -0.6208 -0.8683
   16DOPE   O31 1965   3.010   1.910  15.296  0.1339  0.0256 -0.5765
   16DOPE   C31 1966   3.019   1.786  15.249 -0.1382 -0.7443  0.6741
   16DOPE   O32 1967   2.941   1.698  15.272  0.0652 -0.0695  0.2825
   16DOPE   C32 1968   3.132   1.777  15.145 -0.3582 -0.3850  0.3329
   16DOPE   H2X 1969   3.107   1.690  15.081 -2.4993  1.1816 -1.0866
   16DOPE   H2Y 1970   3.129   1.865  15.077  0.1918  1.7984  2.9764
   16DOPE   C23 1971   3.084   2.379  15.130 -0.4259  0.5082  0.4605
   16DOPE   H3R 1972   3.077   2.399  15.021 -0.8542 -1.7332  0.0391
   16DOPE   H3S 1973   3.145   2.288  15.144  2.0063  2.3138  2.6444
   16DOPE   C24 1974   3.169   2.486  15.186 -0.5491 -0.2329 -0.1900
   16DOPE   H4R 1975   3.274   2.463  15.212  0.3626  0.6687 -2.7822
   16DOPE   H4S 1976   3.127   2.515  15.285  0.4410 -3.9375  1.4613
   16DOPE   C25 1977   3.172   2.618  15.110 -0.3492 -0.2146  0.1533
   16DOPE   H5R 1978   3.192   2.713  15.164 -2.3020  0.1024  0.4035
   16DOPE   H5S 1979   3.066   2.639  15.081  0.2385  0.2000 -1.8781
   16DOPE   C26 1980   3.247   2.606  14.985  0.0693 -0.5604  0.7492
   16DOPE   H6R 1981   3.211   2.518  14.927 -0.0219  0.0217 -0.0984
   16DOPE   H6S 1982   3.354   2.584  15.009 -0.0323  1.4308  3.6037
   16DOPE   C27 1983   3.227   2.734  14.899 -0.2891 -0.3819  0.3856
   16DOPE   H7R 1984   3.261   2.817  14.965 -0.4430 -1.0161  1.2907
   16DOPE   H7S 1985   3.125   2.756  14.864 -0.0051  0.8727  0.2854
   16DOPE   C28 1986   3.315   2.735  14.771  0.3212 -1.0253  0.1708
   16DOPE   H8R 1987   3.418   2.704  14.798  0.1355 -1.3594  0.5028
   16DOPE   H8S 1988   3.321   2.843  14.745  0.6769 -0.9832  0.4198
   16DOPE   C29 1989   3.268   2.640  14.661 -0.0897 -0.3247  0.3355
   16DOPE   H9R 1990   3.283   2.532  14.676 -1.6863 -0.4537  1.2535
   16DOPE  C210 1991   3.208   2.674  14.549  0.6137 -0.0889  0.2022
   16DOPE  H10R 1992   3.170   2.588  14.491 -1.2668  0.8589 -0.0501
   16DOPE  C211 1993   3.178   2.812  14.497  0.2108 -0.5698  0.3308
   16DOPE  H11R 1994   3.207   2.880  14.580  0.5104 -1.1382  0.7000
   16DOPE  H11S 1995   3.070   2.817  14.470  1.0996  0.7172 -3.7958
   16DOPE  C212 1996   3.260   2.850  14.370  0.0727 -0.4665 -0.0038
   16DOPE  H12R 1997   3.357   2.795  14.372 -0.0385 -0.6671 -0.1334
   16DOPE  H12S 1998   3.295   2.956  14.376 -0.1369 -0.1569 -2.9376
   16DOPE  C213 1999   3.186   2.811  14.243 -0.6564  0.2169  0.0154
   16DOPE  H13R 2000   3.153   2.705  14.252  2.1607 -0.8004 -0.4605
   16DOPE  H13S 2001   3.255   2.820  14.156 -3.2165  1.3371 -2.0201
   16DOPE  C214 2002   3.072   2.908  14.212  0.1737 -0.1736 -0.2132
   16DOPE  H14R 2003   3.110   3.012  14.207  1.3354 -0.6190 -1.5569
   16DOPE  H14S 2004   2.988   2.918  14.284 -1.1381 -0.1718 -1.6836
   16DOPE  C215 2005   3.003   2.863  14.073  0.2592  0.5934  0.0484
   16DOPE  H15R 2006   2.975   2.755  14.074  2.6729 -0.0982  0.9502
   16DOPE  H15S 2007   3.064   2.863  13.980 -1.5187 -2.1851 -1.2569
   16DOPE  C216 2008   2.877   2.938  14.041 -0.1325 -0.0161  0.1334
   16DOPE  H16R 2009   2.818   2.943  14.135 -1.1677  0.0050 -0.5060
   16DOPE  H16S 2010   2.805   2.884  13.977  0.5856 -1.4322  0.4906
   16DOPE  C217 2011   2.901   3.077  13.985  0.5084 -0.3739  0.0439
   16DOPE  H17R 2012   2.966   3.140  14.049  1.8819 -1.5468 -0.1257
   16DOPE  H17S 2013   2.802   3.126  13.991  0.0362 -1.2846 -0.1412
   16DOPE  C218 2014   2.944   3.088  13.837 -0.3657  1.0209 -0.9014
   16DOPE  H18R 2015   3.051   3.060  13.824  0.0363  2.4978 -1.0182
   16DOPE  H18S 2016   2.932   3.195  13.809 -1.3550  1.3504  0.6692
   16DOPE  H18T 2017   2.885   3.015  13.777  1.8285 -0.7685 -1.0124
   16DOPE   C33 2018   3.282   1.761  15.200  0.7555 -1.0572 -0.4050
   16DOPE   H3X 2019   3.347   1.730  15.116 -0.7016 -1.0487 -1.5795
   16DOPE   H3Y 2020   3.290   1.677  15.272 -0.4900 -0.8824 -0.0356
   16DOPE   C34 2021   3.331   1.893  15.276 -0.0760  0.0927 -0.0522
   16DOPE   H4X 2022   3.242   1.930  15.330  0.9482  1.6983  0.6130
   16DOPE   H4Y 2023   3.408   1.853  15.345  0.7715  2.0266  0.1823
   16DOPE   C35 2024   3.401   1.996  15.194  0.2977  0.5285 -0.1196
   16DOPE   H5X 2025   3.501   1.959  15.164  0.5959  1.0583  0.2023
   16DOPE   H5Y 2026   3.401   2.089  15.255  1.6190  1.0512 -0.8657
   16DOPE   C36 2027   3.328   2.046  15.061 -0.9660  0.1088  0.0020
   16DOPE   H6X 2028   3.221   2.066  15.083 -1.1586 -0.2476 -0.5888
   16DOPE   H6Y 2029   3.334   1.964  14.986  4.3233  1.4637 -1.5350
   16DOPE   C37 2030   3.402   2.164  14.993 -0.1336  0.5028  0.2193
   16DOPE   H7X 2031   3.424   2.247  15.065 -1.1585 -0.6568  1.9492
   16DOPE   H7Y 2032   3.502   2.119  14.977  0.0236  1.3372 -1.2636
   16DOPE   C38 2033   3.328   2.215  14.871 -0.2144  0.1045  0.4991
   16DOPE   H8X 2034   3.385   2.301  14.829 -0.1451 -0.7815 -1.3191
   16DOPE   H8Y 2035   3.229   2.254  14.905 -0.6443  0.1974 -0.8091
   16DOPE   C39 2036   3.320   2.119  14.759  0.1579  0.0654  0.3569
   16DOPE   H9X 2037   3.360   2.018  14.773  2.0566  0.8365  0.8178
   16DOPE  C310 2038   3.256   2.141  14.642  0.7120  0.6245 -0.2222
   16DOPE  H10X 2039   3.248   2.060  14.568 -1.2114  0.3071  0.2662
   16DOPE  C311 2040   3.194   2.275  14.607  0.4615 -0.1622 -0.2752
   16DOPE  H11X 2041   3.144   2.317  14.697  0.2977 -0.3229 -0.2913
   16DOPE  H11Y 2042   3.269   2.351  14.575 -0.3685  0.8900  0.2113
   16DOPE  C312 2043   3.075   2.273  14.506 -0.6502  0.2690 -0.3912
   16DOPE  H12X 2044   3.063   2.382  14.490 -1.0662  0.1504 -0.9089
   16DOPE  H12Y 2045   3.001   2.223  14.572  1.4808 -2.0239  0.4438
   16DOPE  C313 2046   3.103   2.200  14.382  0.5116  0.2865  0.5189
   16DOPE  H13X 2047   3.109   2.090  14.400  0.2100 -0.0412 -1.1786
   16DOPE  H13Y 2048   3.018   2.208  14.311 -1.7058  1.1488  3.1040
   16DOPE  C314 2049   3.233   2.231  14.306  0.0558 -0.7135 -0.2171
   16DOPE  H14X 2050   3.258   2.155  14.229  1.5732  2.7338 -3.4407
   16DOPE  H14Y 2051   3.318   2.229  14.378 -0.7159 -1.6998  0.6998
   16DOPE  C315 2052   3.232   2.373  14.231 -0.6854  1.0643  0.2267
   16DOPE  H15X 2053   3.238   2.459  14.301  0.4467 -0.7833  2.5455
   16DOPE  H15Y 2054   3.138   2.373  14.170  0.9906  0.3032 -2.5390
   16DOPE  C316 2055   3.344   2.380  14.133 -0.2668 -0.0413  0.0122
   16DOPE  H16X 2056   3.329   2.299  14.058 -2.7493  0.4711 -0.1260
   16DOPE  H16Y 2057   3.439   2.341  14.175  0.7121  1.4941 -0.7208
   16DOPE  C317 2058   3.361   2.518  14.072 -0.5385 -0.2419  0.3200
   16DOPE  H17X 2059   3.274   2.554  14.012 -0.8241  1.7510  1.8282
   16DOPE  H17Y 2060   3.381   2.591  14.153 -2.3352 -0.2554  0.8325
   16DOPE  C318 2061   3.478   2.511  13.967  0.2799  0.0458  0.4850
   16DOPE  H18X 2062   3.572   2.475  14.013  0.8907  2.1309  1.0125
   16DOPE  H18Y 2063   3.439   2.456  13.879  2.0231  2.0422 -1.6630
   16DOPE  H18Z 2064   3.491   2.612  13.921  0.2909 -0.7613 -1.3797
   17DOPE     N 2065   2.277   0.667  16.208  0.3058  0.1659 -0.0459
   17DOPE   HN1 2066   2.292   0.770  16.207  0.4121  0.1471 -0.4165
   17DOPE   HN2 2067   2.218   0.648  16.292  0.0633 -0.4104 -0.3427
   17DOPE   HN3 2068   2.372   0.624  16.213  1.5709  2.7774  0.1565
   17DOPE   C12 2069   2.210   0.620  16.083  0.0982 -0.2606 -0.0808
   17DOPE  H12A 2070   2.275   0.657  16.001  2.0496 -0.8877  1.1147
   17DOPE  H12B 2071   2.109   0.666  16.078  0.1700 -0.0460  0.4615
   17DOPE   C11 2072   2.217   0.465  16.066  0.0474  0.3185  0.4225
   17DOPE  H11A 2073   2.269   0.423  16.155  0.2044  2.1841  1.2523
   17DOPE  H11B 2074   2.281   0.439  15.979  0.1326 -0.5251  0.7246
   17DOPE     P 2075   2.010   0.372  15.932 -0.2143  0.3668 -0.3943
   17DOPE   O13 2076   1.901   0.473  15.908  0.3552 -0.1916  0.7969
   17DOPE   O14 2077   1.965   0.232  15.939  0.1303  0.3799 -0.1194
   17DOPE   O11 2078   2.127   0.393  15.824  0.8711  0.0465  0.0232
   17DOPE   O12 2079   2.089   0.420  16.061  0.0403 -0.1286 -0.5225
   17DOPE    C1 2080   2.107   0.447  15.693 -0.2559 -0.0507  0.3818
   17DOPE    HA 2081   2.159   0.544  15.681  0.7023 -0.4521  1.1243
   17DOPE    HB 2082   2.000   0.472  15.682  0.1446  0.7604 -2.6259
   17DOPE    C2 2083   2.139   0.344  15.577  0.1537  0.7777 -0.5687
   17DOPE    HS 2084   2.074   0.360  15.488 -0.0891 -1.1312 -0.7598
   17DOPE   O21 2085   2.125   0.211  15.625 -0.3293 -0.2102 -0.0460
   17DOPE   C21 2086   2.001   0.172  15.620  1.3560 -0.3225 -0.4557
   17DOPE   O22 2087   1.902   0.242  15.601  0.1570 -0.2917 -0.4377
   17DOPE   C22 2088   1.998   0.023  15.651 -0.2890  0.3642  0.2466
   17DOPE   H2R 2089   1.931   0.010  15.738 -1.0294 -1.0053 -0.4944
   17DOPE   H2S 2090   2.096  -0.016  15.686 -0.7917 -1.3836 -0.2127
   17DOPE    C3 2091   2.281   0.357  15.527 -0.1689 -0.4207 -0.6666
   17DOPE    HX 2092   2.344   0.337  15.616 -1.1777 -0.2479  0.1051
   17DOPE    HY 2093   2.291   0.465  15.503  1.0779 -0.1415  0.9084
   17DOPE   O31 2094   2.317   0.281  15.411  0.1373 -0.0054  0.1881
   17DOPE   C31 2095   2.413   0.187  15.420  0.8062 -0.9324 -0.1188
   17DOPE   O32 2096   2.483   0.168  15.516  0.1890 -0.4568  0.0343
   17DOPE   C32 2097   2.409   0.106  15.296  0.3392  0.1858 -1.0635
   17DOPE   H2X 2098   2.414   0.004  15.339  0.9155  0.4697 -0.4457
   17DOPE   H2Y 2099   2.316   0.130  15.240 -0.3044 -0.8112 -0.4348
   17DOPE   C23 2100   1.949  -0.076  15.536 -0.7162 -0.2181  0.0713
   17DOPE   H3R 2101   1.851  -0.036  15.502 -0.1152  1.4091  0.1381
   17DOPE   H3S 2102   1.915  -0.178  15.562 -0.6154 -0.4988 -0.8665
   17DOPE   C24 2103   2.040  -0.085  15.420  0.4185  0.4666 -0.1471
   17DOPE   H4R 2104   2.133  -0.140  15.444  0.9500  0.7106 -1.5678
   17DOPE   H4S 2105   2.060   0.021  15.395  1.2733  0.1984 -0.6305
   17DOPE   C25 2106   1.971  -0.152  15.299 -1.0547  0.7072  0.4389
   17DOPE   H5R 2107   1.901  -0.078  15.255  1.8936  2.4766 -1.5835
   17DOPE   H5S 2108   1.906  -0.234  15.337 -1.4928  0.9117  0.1474
   17DOPE   C26 2109   2.080  -0.208  15.206 -0.0000 -0.5642  0.5602
   17DOPE   H6R 2110   2.161  -0.137  15.178 -2.2999  2.3002  0.6991
   17DOPE   H6S 2111   2.024  -0.219  15.111 -3.6199 -0.0423  2.4944
   17DOPE   C27 2112   2.118  -0.345  15.242 -0.4619 -0.6804  0.6412
   17DOPE   H7R 2113   2.028  -0.409  15.227 -1.5098 -0.2267  4.2015
   17DOPE   H7S 2114   2.136  -0.351  15.351 -0.8509 -0.3501  0.7267
   17DOPE   C28 2115   2.235  -0.416  15.158  0.5885  0.1171  0.0258
   17DOPE   H8R 2116   2.237  -0.525  15.181 -0.0979 -0.1045 -0.9174
   17DOPE   H8S 2117   2.336  -0.373  15.176  0.4876  0.1578  0.5205
   17DOPE   C29 2118   2.208  -0.388  15.015  0.3446 -0.7211 -0.6626
   17DOPE   H9R 2119   2.225  -0.285  14.980 -1.3514 -0.6199 -1.3158
   17DOPE  C210 2120   2.159  -0.483  14.932 -0.4209 -0.5982  0.2480
   17DOPE  H10R 2121   2.147  -0.456  14.826  2.7041  0.9899  0.1929
   17DOPE  C211 2122   2.128  -0.627  14.965  0.2792 -0.7399  0.5740
   17DOPE  H11R 2123   2.021  -0.648  14.986  0.3207 -1.7524 -0.1462
   17DOPE  H11S 2124   2.192  -0.665  15.046  0.9775  2.2147  1.5179
   17DOPE  C212 2125   2.157  -0.726  14.847 -0.5020 -0.9554 -0.1176
   17DOPE  H12R 2126   2.268  -0.724  14.842 -0.1917  1.0833  3.7418
   17DOPE  H12S 2127   2.113  -0.682  14.755  1.4044  1.6119  0.1050
   17DOPE  C213 2128   2.106  -0.866  14.869  0.6368 -0.4723 -0.6708
   17DOPE  H13R 2129   1.995  -0.856  14.860  0.7129  0.1829 -0.8780
   17DOPE  H13S 2130   2.125  -0.886  14.977  0.6231  1.5896 -0.2488
   17DOPE  C214 2131   2.166  -0.969  14.780  0.2031  0.3895 -0.1024
   17DOPE  H14R 2132   2.183  -0.938  14.674  1.3284 -2.1189 -0.7413
   17DOPE  H14S 2133   2.098  -1.057  14.781 -0.1639  0.6767  0.8564
   17DOPE  C215 2134   2.306  -1.013  14.822 -0.5030 -0.0622 -1.3073
   17DOPE  H15R 2135   2.294  -1.038  14.930 -2.3089 -3.6460 -2.1822
   17DOPE  H15S 2136   2.381  -0.932  14.814  0.3305 -0.5288  1.0280
   17DOPE  C216 2137   2.366  -1.140  14.756  0.2297 -0.0366  0.4257
   17DOPE  H16R 2138   2.389  -1.108  14.652  1.3712  1.0880  0.9884
   17DOPE  H16S 2139   2.298  -1.227  14.761  0.8258 -0.6355 -1.3509
   17DOPE  C217 2140   2.496  -1.194  14.807 -0.5080  0.4886  0.3496
   17DOPE  H17R 2141   2.493  -1.215  14.916 -1.5109 -1.8983 -0.0838
   17DOPE  H17S 2142   2.581  -1.125  14.791  2.5960 -2.8777  1.0000
   17DOPE  C218 2143   2.540  -1.330  14.738 -0.5723  0.0800  0.1685
   17DOPE  H18R 2144   2.573  -1.316  14.632  0.5854  0.5374  0.5699
   17DOPE  H18S 2145   2.461  -1.408  14.743 -0.7452  0.0170 -2.3080
   17DOPE  H18T 2146   2.635  -1.356  14.790  0.1420  0.5797 -0.8556
   17DOPE   C33 2147   2.529   0.133  15.205 -0.4339  0.0672  0.0666
   17DOPE   H3X 2148   2.547   0.064  15.121 -0.4581  1.6570 -1.2935
   17DOPE   H3Y 2149   2.623   0.136  15.264 -0.4728  2.3282  0.1070
   17DOPE   C34 2150   2.516   0.263  15.120 -0.4950 -0.7385  0.1942
   17DOPE   H4X 2151   2.429   0.260  15.052  1.7485  0.8298 -3.0041
   17DOPE   H4Y 2152   2.500   0.338  15.201  4.0120  0.6647  0.1062
   17DOPE   C35 2153   2.652   0.284  15.045 -0.1516 -0.7740  0.0880
   17DOPE   H5X 2154   2.671   0.188  14.992  1.1943 -0.6799  0.3596
   17DOPE   H5Y 2155   2.734   0.309  15.116  1.0722 -1.2028 -1.1288
   17DOPE   C36 2156   2.655   0.395  14.940 -0.0497  0.4618  0.4414
   17DOPE   H6X 2157   2.574   0.365  14.870  1.2798  0.5425 -1.2037
   17DOPE   H6Y 2158   2.751   0.408  14.885 -0.1124  2.1296  0.6722
   17DOPE   C37 2159   2.621   0.534  14.999 -0.7982  0.1769 -0.6780
   17DOPE   H7X 2160   2.529   0.519  15.059  0.6105 -0.4627  1.4234
   17DOPE   H7Y 2161   2.710   0.551  15.063 -0.0407  0.9565 -1.8958
   17DOPE   C38 2162   2.598   0.648  14.898 -0.6188  0.0442 -0.6126
   17DOPE   H8X 2163   2.548   0.731  14.953 -0.6489 -0.9394  0.8835
   17DOPE   H8Y 2164   2.533   0.611  14.816  0.1644  0.4907 -1.4697
   17DOPE   C39 2165   2.733   0.697  14.852  0.2911  0.7246 -0.1831
   17DOPE   H9X 2166   2.785   0.756  14.930  0.3204 -1.1270  1.2746
   17DOPE  C310 2167   2.795   0.669  14.735  0.0133  0.3101 -0.4129
   17DOPE  H10X 2168   2.891   0.714  14.706 -0.3994  0.3458 -1.7925
   17DOPE  C311 2169   2.723   0.597  14.620 -0.1356 -0.0437 -0.6539
   17DOPE  H11X 2170   2.640   0.531  14.655 -0.0401 -0.3078 -0.9283
   17DOPE  H11Y 2171   2.685   0.666  14.542  0.2102  1.2480  0.2834
   17DOPE  C312 2172   2.819   0.488  14.556  0.5570  0.1951 -0.3882
   17DOPE  H12X 2173   2.746   0.420  14.507 -1.0711  2.1740 -0.9052
   17DOPE  H12Y 2174   2.866   0.425  14.634  2.5279  0.8442 -1.0092
   17DOPE  C313 2175   2.915   0.549  14.453 -0.2194  0.1164  0.2253
   17DOPE  H13X 2176   2.965   0.638  14.498 -1.9241  2.0461 -1.4651
   17DOPE  H13Y 2177   2.992   0.472  14.435  0.1757  1.2298 -3.6815
   17DOPE  C314 2178   2.840   0.562  14.324 -0.0757  0.3688  0.9616
   17DOPE  H14X 2179   2.756   0.635  14.328  0.0025  0.4715  0.7255
   17DOPE  H14Y 2180   2.812   0.459  14.292  0.4970  0.1953  1.0216
   17DOPE  C315 2181   2.935   0.619  14.210 -0.4346  0.6086 -0.1748
   17DOPE  H15X 2182   3.039   0.584  14.228 -0.4916 -0.2136 -1.3435
   17DOPE  H15Y 2183   2.949   0.729  14.217  1.7238  0.3834 -0.3224
   17DOPE  C316 2184   2.902   0.584  14.074 -0.3706 -0.4793  0.2579
   17DOPE  H16X 2185   2.827   0.652  14.027  1.3940  0.2340 -1.6795
   17DOPE  H16Y 2186   2.867   0.479  14.067 -1.8679 -0.0011  0.2306
   17DOPE  C317 2187   3.019   0.595  13.973  0.2842  0.2429  0.0290
   17DOPE  H17X 2188   3.044   0.700  13.948  1.5196  0.5491  2.3128
   17DOPE  H17Y 2189   3.112   0.561  14.024  0.5083  1.5567  0.5202
   17DOPE  C318 2190   2.988   0.501  13.856 -0.0431 -0.5993  0.8847
   17DOPE  H18X 2191   3.071   0.514  13.783 -1.3409  0.4338 -0.4711
   17DOPE  H18Y 2192   2.973   0.395  13.885 -3.0937 -0.3507  0.5338
   17DOPE  H18Z 2193   2.898   0.546  13.809 -0.7333 -0.5261  2.2349
   18DOPE     N 2194   7.130   3.483  15.895  0.7076  0.1882 -0.0337
   18DOPE   HN1 2195   7.166   3.481  15.797 -0.2004  0.0342 -0.3717
   18DOPE   HN2 2196   7.194   3.440  15.964  0.2658 -0.5576 -0.0747
   18DOPE   HN3 2197   7.044   3.425  15.885 -0.4019  1.6093  0.8519
   18DOPE   C12 2198   7.092   3.630  15.932  0.4161  0.8216  0.3407
   18DOPE  H12A 2199   7.107   3.644  16.041 -2.3635 -0.5947  1.0005
   18DOPE  H12B 2200   6.985   3.643  15.905  0.2545  0.2058  0.6798
   18DOPE   C11 2201   7.164   3.731  15.842  0.0452 -0.3852  0.2624
   18DOPE  H11A 2202   7.136   3.835  15.872 -1.4180 -0.5174 -0.5477
   18DOPE  H11B 2203   7.115   3.714  15.744 -0.2399 -0.2339  0.3753
   18DOPE     P 2204   7.382   3.657  15.716  0.5805 -0.0981 -0.2615
   18DOPE   O13 2205   7.352   3.516  15.697  0.5405 -0.0003  0.5209
   18DOPE   O14 2206   7.523   3.685  15.730 -0.8178 -0.3912 -0.6781
   18DOPE   O11 2207   7.333   3.747  15.592  0.2249  0.1454  0.8794
   18DOPE   O12 2208   7.301   3.711  15.837  0.7100  0.3284  0.6109
   18DOPE    C1 2209   7.247   3.689  15.492  0.2985  0.0810  0.2721
   18DOPE    HA 2210   7.169   3.763  15.464  1.7934  0.9632 -1.7704
   18DOPE    HB 2211   7.214   3.583  15.503 -1.4208  0.4642 -0.6749
   18DOPE    C2 2212   7.335   3.678  15.361 -0.1396 -0.3181 -0.2342
   18DOPE    HS 2213   7.388   3.775  15.350 -2.6121  1.2919  1.0177
   18DOPE   O21 2214   7.245   3.657  15.245 -0.1380 -0.3437  0.9665
   18DOPE   C21 2215   7.167   3.771  15.215  0.2642  0.7056  0.0248
   18DOPE   O22 2216   7.187   3.880  15.259  0.0346  0.1115 -0.3149
   18DOPE   C22 2217   7.062   3.746  15.107  0.0102  0.7360 -0.7857
   18DOPE   H2R 2218   6.986   3.685  15.159  1.1156 -0.1706 -0.1966
   18DOPE   H2S 2219   7.101   3.686  15.022  0.0045 -1.9447  0.9818
   18DOPE    C3 2220   7.460   3.574  15.360  0.0405  0.3348  0.4646
   18DOPE    HX 2221   7.417   3.472  15.355  1.0673 -0.0787 -0.6408
   18DOPE    HY 2222   7.522   3.592  15.450  2.3131  3.3600 -1.4762
   18DOPE   O31 2223   7.548   3.584  15.240 -0.4950  0.4195 -0.1947
   18DOPE   C31 2224   7.613   3.695  15.231  0.3358 -0.2945  0.0885
   18DOPE   O32 2225   7.629   3.778  15.321  0.6939  0.1742 -0.1278
   18DOPE   C32 2226   7.662   3.716  15.087 -0.0333 -0.4311  0.7029
   18DOPE   H2X 2227   7.672   3.612  15.050  1.4171 -0.0557 -0.0613
   18DOPE   H2Y 2228   7.585   3.778  15.037  0.4383 -1.0863 -0.8717
   18DOPE   C23 2229   6.993   3.873  15.060  0.0710  0.4618  0.2537
   18DOPE   H3R 2230   7.072   3.940  15.019  1.2198  0.9621  3.0735
   18DOPE   H3S 2231   6.959   3.921  15.154 -3.1765 -3.0261  1.0981
   18DOPE   C24 2232   6.877   3.847  14.962  0.1971  0.1932  0.1919
   18DOPE   H4R 2233   6.908   3.777  14.882 -0.8363 -0.3356  0.2495
   18DOPE   H4S 2234   6.842   3.946  14.926  2.2519  0.4626 -1.2382
   18DOPE   C25 2235   6.745   3.781  15.022 -0.3638  0.1387 -0.1565
   18DOPE   H5R 2236   6.770   3.684  15.071 -0.1812  1.3228  2.2075
   18DOPE   H5S 2237   6.672   3.760  14.941 -0.4632  1.3936 -0.4111
   18DOPE   C26 2238   6.668   3.862  15.130  0.0962  0.7728  0.7484
   18DOPE   H6R 2239   6.607   3.939  15.079  1.1762  0.9908 -0.2459
   18DOPE   H6S 2240   6.733   3.912  15.205  1.6599  0.6371 -0.4665
   18DOPE   C27 2241   6.575   3.764  15.203 -0.2855  0.3506  0.4482
   18DOPE   H7R 2242   6.539   3.810  15.297  1.6396  2.2948  0.3203
   18DOPE   H7S 2243   6.636   3.677  15.234  2.0170  1.3273 -1.0417
   18DOPE   C28 2244   6.453   3.702  15.128  0.0992  0.1625  0.2710
   18DOPE   H8R 2245   6.484   3.665  15.028 -1.1740 -1.2935  0.3811
   18DOPE   H8S 2246   6.389   3.791  15.109  2.3570  1.7117 -0.4496
   18DOPE   C29 2247   6.372   3.604  15.219  0.8542  0.1104 -0.6878
   18DOPE   H9R 2248   6.282   3.637  15.274  1.4348 -0.5515  0.7194
   18DOPE  C210 2249   6.403   3.476  15.231 -0.7426  0.3795  0.7510
   18DOPE  H10R 2250   6.344   3.413  15.300  0.9762 -1.1924  0.8762
   18DOPE  C211 2251   6.521   3.404  15.160 -0.3011  0.2057  0.2502
   18DOPE  H11R 2252   6.596   3.375  15.236 -0.7165 -0.1004  0.5491
   18DOPE  H11S 2253   6.564   3.469  15.081 -1.1526 -1.3731 -1.5990
   18DOPE  C212 2254   6.487   3.267  15.097 -0.1872 -0.2044  0.0799
   18DOPE  H12R 2255   6.413   3.217  15.163  0.6517 -1.7019 -0.0591
   18DOPE  H12S 2256   6.580   3.206  15.096 -0.7630 -1.1220  0.8274
   18DOPE  C213 2257   6.428   3.267  14.952 -0.3542  0.1396  0.2312
   18DOPE  H13R 2258   6.352   3.348  14.943 -0.4871 -0.0491 -0.4362
   18DOPE  H13S 2259   6.378   3.169  14.936 -1.1481  0.2284  1.9073
   18DOPE  C214 2260   6.533   3.299  14.844 -0.4269 -0.6276  0.7176
   18DOPE  H14R 2261   6.593   3.208  14.826  0.5530  0.1313  0.0157
   18DOPE  H14S 2262   6.600   3.378  14.883 -0.8313  0.1625 -0.1256
   18DOPE  C215 2263   6.471   3.356  14.713 -0.0918  0.4547 -0.1061
   18DOPE  H15R 2264   6.412   3.448  14.737  0.9954  1.4618 -1.1504
   18DOPE  H15S 2265   6.403   3.276  14.678 -0.8246  1.0131  0.0079
   18DOPE  C216 2266   6.569   3.391  14.605 -0.3895 -0.0445  0.8813
   18DOPE  H16R 2267   6.665   3.427  14.649  0.1790 -0.3828 -0.0652
   18DOPE  H16S 2268   6.519   3.466  14.540  0.3256 -0.4135 -0.1105
   18DOPE  C217 2269   6.598   3.259  14.534  0.3779  0.1003  0.8577
   18DOPE  H17R 2270   6.509   3.196  14.515  0.1635  0.3693  0.9660
   18DOPE  H17S 2271   6.659   3.195  14.602  0.7156  1.4803  1.9042
   18DOPE  C218 2272   6.675   3.281  14.401  0.1666  0.3852 -0.4219
   18DOPE  H18R 2273   6.604   3.311  14.320 -0.6000  0.6005  0.3129
   18DOPE  H18S 2274   6.729   3.188  14.372  0.9726  1.1996 -1.6779
   18DOPE  H18T 2275   6.749   3.363  14.412 -1.1487  1.2288  3.8866
   18DOPE   C33 2276   7.793   3.805  15.076  0.0451 -0.0202  0.2830
   18DOPE   H3X 2277   7.860   3.769  15.156  0.8671 -1.3012 -0.9283
   18DOPE   H3Y 2278   7.755   3.910  15.077 -3.4101 -1.0213 -2.8096
   18DOPE   C34 2279   7.880   3.783  14.949  0.1139 -0.1211  0.2408
   18DOPE   H4X 2280   7.985   3.815  14.967  0.2135 -0.6364  0.5814
   18DOPE   H4Y 2281   7.881   3.674  14.932 -3.0397 -0.2299  0.0589
   18DOPE   C35 2282   7.812   3.856  14.831  0.0914 -0.7155  0.4880
   18DOPE   H5X 2283   7.837   3.963  14.845  2.2283 -0.5006 -3.3748
   18DOPE   H5Y 2284   7.702   3.843  14.837  0.0699 -0.0303  1.9611
   18DOPE   C36 2285   7.863   3.806  14.696  0.8535 -0.0233  0.1317
   18DOPE   H6X 2286   7.826   3.707  14.662 -1.2242  1.5072 -2.5506
   18DOPE   H6Y 2287   7.972   3.824  14.690  1.0300 -1.1451 -0.1501
   18DOPE   C37 2288   7.801   3.895  14.577  0.0250 -0.5922  0.0970
   18DOPE   H7X 2289   7.690   3.892  14.581 -0.0486  0.3227 -0.7531
   18DOPE   H7Y 2290   7.836   3.994  14.615 -0.0711 -0.3185 -0.5130
   18DOPE   C38 2291   7.865   3.858  14.442 -0.6442  0.5841 -0.2709
   18DOPE   H8X 2292   7.829   3.754  14.431 -1.6292  0.7984  0.6908
   18DOPE   H8Y 2293   7.975   3.868  14.453 -0.7537  0.1539  1.3920
   18DOPE   C39 2294   7.809   3.937  14.331  0.2800 -0.5317 -0.5264
   18DOPE   H9X 2295   7.713   3.990  14.345  0.2653  0.0998 -2.6524
   18DOPE  C310 2296   7.861   3.971  14.216  0.2652 -0.4049  0.6472
   18DOPE  H10X 2297   7.799   4.036  14.152 -0.0063 -0.6863  0.6186
   18DOPE  C311 2298   7.998   3.923  14.176 -0.2186  0.1669  0.7980
   18DOPE  H11X 2299   8.047   3.858  14.253  1.8667  0.5308 -0.1616
   18DOPE  H11Y 2300   7.989   3.867  14.081 -1.7417 -2.8271  2.5177
   18DOPE  C312 2301   8.104   4.034  14.156  0.6107 -0.5627  0.0629
   18DOPE  H12X 2302   8.140   4.082  14.250 -2.5536  2.0682  0.1378
   18DOPE  H12Y 2303   8.068   4.115  14.089  0.1781 -0.7750  0.0343
   18DOPE  C313 2304   8.230   3.972  14.089  0.1871 -0.2526  0.2961
   18DOPE  H13X 2305   8.275   3.888  14.147  1.5820  0.2053 -0.0856
   18DOPE  H13Y 2306   8.187   3.925  13.997 -1.4810  1.0542  0.3551
   18DOPE  C314 2307   8.326   4.077  14.052  0.0480  0.1359 -1.1089
   18DOPE  H14X 2308   8.408   4.030  13.994  0.1980  0.5439 -1.2250
   18DOPE  H14Y 2309   8.373   4.110  14.147 -2.0164 -0.5785  0.2606
   18DOPE  C315 2310   8.278   4.202  13.968  0.3902  0.8900 -0.1744
   18DOPE  H15X 2311   8.204   4.253  14.033 -2.1122 -2.0831 -0.4141
   18DOPE  H15Y 2312   8.227   4.155  13.881  0.1962 -2.3080  1.4876
   18DOPE  C316 2313   8.389   4.294  13.922 -0.1149 -0.3948  0.4711
   18DOPE  H16X 2314   8.438   4.322  14.018 -1.0834 -1.3391  1.2678
   18DOPE  H16Y 2315   8.354   4.391  13.880 -0.3667  0.0410  1.6549
   18DOPE  C317 2316   8.485   4.226  13.822  0.2392 -0.2315 -0.0667
   18DOPE  H17X 2317   8.582   4.279  13.813  0.2733  0.0027  1.4963
   18DOPE  H17Y 2318   8.515   4.121  13.844 -1.1570 -0.6735 -0.1574
   18DOPE  C318 2319   8.417   4.210  13.689  0.5598 -0.6566  1.1251
   18DOPE  H18X 2320   8.377   4.299  13.636  0.8437 -1.0147  0.2779
   18DOPE  H18Y 2321   8.489   4.170  13.614  2.7750  1.4753  1.9874
   18DOPE  H18Z 2322   8.340   4.131  13.701 -0.8657  0.6109  0.6035
   19DOPE     N 2323   7.708   3.876  15.639 -0.1718  0.2261 -0.2029
   19DOPE   HN1 2324   7.787   3.908  15.698  0.3094 -0.6275 -0.3682
   19DOPE   HN2 2325   7.646   3.812  15.693  1.3990  0.2202  1.7133
   19DOPE   HN3 2326   7.754   3.821  15.563  0.5905  1.8195 -0.9352
   19DOPE   C12 2327   7.644   3.993  15.583 -0.7163 -0.4994  0.1145
   19DOPE  H12A 2328   7.568   4.023  15.658 -1.1523 -0.9355 -0.1512
   19DOPE  H12B 2329   7.613   3.976  15.478  1.9853  0.6325 -0.9766
   19DOPE   C11 2330   7.742   4.111  15.557  0.2000 -0.3253 -0.1051
   19DOPE  H11A 2331   7.700   4.195  15.499 -2.6585 -1.5509 -0.0018
   19DOPE  H11B 2332   7.820   4.067  15.492  0.8355  0.9285 -0.2149
   19DOPE     P 2333   7.925   4.244  15.710  0.0259 -0.5537  0.3540
   19DOPE   O13 2334   8.041   4.157  15.692  0.0107 -0.3051  0.4951
   19DOPE   O14 2335   7.911   4.304  15.847 -0.0143  0.5465 -0.2480
   19DOPE   O11 2336   7.914   4.361  15.607 -0.1951 -0.2040  0.1040
   19DOPE   O12 2337   7.794   4.157  15.679 -0.5616  0.2232 -0.6918
   19DOPE    C1 2338   7.945   4.349  15.465  0.5375 -0.1870 -0.1768
   19DOPE    HA 2339   7.865   4.407  15.414  1.5634 -0.5692 -2.3397
   19DOPE    HB 2340   7.932   4.247  15.423 -2.1889 -0.0878  0.2364
   19DOPE    C2 2341   8.088   4.408  15.431 -1.0355  0.3661 -0.7399
   19DOPE    HS 2342   8.165   4.349  15.483  0.9999  1.8655 -1.8927
   19DOPE   O21 2343   8.096   4.543  15.489  0.0231  0.1077 -0.2575
   19DOPE   C21 2344   8.212   4.604  15.520 -0.9045  0.9755  0.0989
   19DOPE   O22 2345   8.323   4.557  15.496  0.3444 -0.2583  0.1712
   19DOPE   C22 2346   8.186   4.738  15.583  0.0518 -0.0330 -0.0282
   19DOPE   H2R 2347   8.218   4.732  15.689 -0.4865 -2.7457  0.0649
   19DOPE   H2S 2348   8.078   4.759  15.602  0.6847  1.7016  1.9080
   19DOPE    C3 2349   8.135   4.415  15.282  0.1442 -0.0656  0.5238
   19DOPE    HX 2350   8.240   4.451  15.293  0.3595 -0.7685  0.9004
   19DOPE    HY 2351   8.070   4.494  15.239  1.4506  1.4421  1.2137
   19DOPE   O31 2352   8.112   4.293  15.211 -0.1483  0.4789  0.2611
   19DOPE   C31 2353   8.215   4.201  15.229 -0.2205 -0.1287  0.0448
   19DOPE   O32 2354   8.302   4.227  15.305  0.1565  0.0070  0.5217
   19DOPE   C32 2355   8.187   4.071  15.155 -0.2471  0.1916  0.3886
   19DOPE   H2X 2356   8.093   4.028  15.197 -1.5667  0.4086 -2.1714
   19DOPE   H2Y 2357   8.162   4.087  15.048 -0.3731  0.3218  0.4370
   19DOPE   C23 2358   8.249   4.853  15.505 -0.3585  0.3692  0.2777
   19DOPE   H3R 2359   8.355   4.823  15.490 -0.6376 -0.3684 -0.2961
   19DOPE   H3S 2360   8.243   4.951  15.556  0.0838  0.5864 -0.0823
   19DOPE   C24 2361   8.170   4.878  15.373  0.4501  0.0667 -0.3910
   19DOPE   H4R 2362   8.066   4.907  15.396 -0.3717 -2.3770 -0.7132
   19DOPE   H4S 2363   8.166   4.779  15.323  1.4758 -0.7770  1.1123
   19DOPE   C25 2364   8.246   4.965  15.271 -0.1745  0.3258  0.4788
   19DOPE   H5R 2365   8.314   4.896  15.217  0.7137  2.4357 -1.2546
   19DOPE   H5S 2366   8.296   5.043  15.331 -0.5342 -1.0941  2.7281
   19DOPE   C26 2367   8.145   5.013  15.172 -0.0148 -0.2535 -0.5872
   19DOPE   H6R 2368   8.074   5.083  15.222  1.0300  0.3115  0.1510
   19DOPE   H6S 2369   8.078   4.937  15.126 -0.3065 -0.3275 -0.0492
   19DOPE   C27 2370   8.220   5.100  15.072 -0.7215 -0.2177  0.7655
   19DOPE   H7R 2371   8.303   5.051  15.018  0.2388  0.9789  1.1235
   19DOPE   H7S 2372   8.277   5.182  15.120 -0.5289  0.4264 -0.5261
   19DOPE   C28 2373   8.113   5.154  14.979 -0.3904  0.0117 -0.2294
   19DOPE   H8R 2374   8.049   5.070  14.945 -0.5903 -0.5379  1.4143
   19DOPE   H8S 2375   8.169   5.189  14.889 -0.1754 -2.0581 -0.9471
   19DOPE   C29 2376   8.010   5.258  15.037  0.5807 -0.0780 -0.0197
   19DOPE   H9R 2377   7.919   5.207  15.073  0.3892  0.2415 -0.0443
   19DOPE  C210 2378   8.018   5.394  15.041  0.0133 -0.0337 -0.0968
   19DOPE  H10R 2379   7.926   5.437  15.083 -0.2748 -1.6750  1.0255
   19DOPE  C211 2380   8.120   5.493  14.992  0.1931  0.8170 -0.1491
   19DOPE  H11R 2381   8.085   5.515  14.889  1.2932  1.2304 -0.4476
   19DOPE  H11S 2382   8.218   5.442  14.982 -0.8903 -1.6637  1.1476
   19DOPE  C212 2383   8.129   5.620  15.070  0.3623 -0.4393 -0.2251
   19DOPE  H12R 2384   8.164   5.600  15.173  0.5073 -0.9796 -0.3755
   19DOPE  H12S 2385   8.026   5.662  15.069  0.7250  0.4887 -1.4314
   19DOPE  C213 2386   8.219   5.716  14.998  0.4484 -0.4356 -0.0429
   19DOPE  H13R 2387   8.321   5.672  14.996  0.3855 -0.7573  1.9567
   19DOPE  H13S 2388   8.217   5.806  15.063  2.0136  0.2124 -0.8549
   19DOPE  C214 2389   8.182   5.764  14.854  0.0521  0.3703  0.0039
   19DOPE  H14R 2390   8.071   5.772  14.851 -0.2131 -2.4225 -3.0452
   19DOPE  H14S 2391   8.210   5.679  14.789  0.8998 -0.1943  1.0621
   19DOPE  C215 2392   8.246   5.896  14.811 -0.0324 -0.0076 -0.1603
   19DOPE  H15R 2393   8.356   5.878  14.812 -0.2229 -1.2529  0.9897
   19DOPE  H15S 2394   8.226   5.977  14.884  0.1236 -1.2504  1.3122
   19DOPE  C216 2395   8.202   5.938  14.667  0.2034  0.1797 -0.0334
   19DOPE  H16R 2396   8.098   5.977  14.677  0.1339 -0.3524  1.7612
   19DOPE  H16S 2397   8.210   5.835  14.626 -0.7429 -0.7343  1.9124
   19DOPE  C217 2398   8.299   6.022  14.586 -0.5577 -0.1426 -0.1967
   19DOPE  H17R 2399   8.344   6.104  14.647  0.3344 -1.1855  0.5804
   19DOPE  H17S 2400   8.252   6.069  14.497  1.3454  1.1132 -0.6146
   19DOPE  C218 2401   8.419   5.951  14.527 -0.0759  0.1938 -0.1191
   19DOPE  H18R 2402   8.487   5.905  14.602  0.2164  1.9034  0.7158
   19DOPE  H18S 2403   8.483   6.024  14.472  0.3755 -0.5216 -0.5697
   19DOPE  H18T 2404   8.387   5.871  14.457 -0.1537  1.5803 -1.7271
   19DOPE   C33 2405   8.312   3.978  15.169  0.1463 -0.3154  0.3663
   19DOPE   H3X 2406   8.327   3.961  15.278 -0.9187  0.9806  0.7366
   19DOPE   H3Y 2407   8.403   4.020  15.121  1.2307  0.3397  2.8587
   19DOPE   C34 2408   8.287   3.835  15.116  0.2741  0.8457 -0.2324
   19DOPE   H4X 2409   8.217   3.781  15.184  1.2761 -0.3709 -0.1353
   19DOPE   H4Y 2410   8.234   3.845  15.019  1.3026  2.0334 -0.6955
   19DOPE   C35 2411   8.416   3.751  15.094  0.0832  0.2572 -0.2746
   19DOPE   H5X 2412   8.463   3.733  15.193  2.0957 -1.0977 -1.3881
   19DOPE   H5Y 2413   8.482   3.792  15.015 -0.9807  0.5163 -1.0649
   19DOPE   C36 2414   8.384   3.601  15.044  0.4761 -0.4621  0.9463
   19DOPE   H6X 2415   8.323   3.556  15.125 -1.1617  0.5526  0.3198
   19DOPE   H6Y 2416   8.484   3.553  15.052  0.6725  0.1175  2.3522
   19DOPE   C37 2417   8.311   3.597  14.915  0.5477 -0.2899 -0.3557
   19DOPE   H7X 2418   8.309   3.697  14.866 -0.1853  0.0838  0.4163
   19DOPE   H7Y 2419   8.357   3.520  14.850 -0.2458 -0.1785 -1.0756
   19DOPE   C38 2420   8.166   3.547  14.931 -0.1300  0.4260  0.1329
   19DOPE   H8X 2421   8.114   3.548  14.833 -1.9703  0.0095  1.0509
   19DOPE   H8Y 2422   8.104   3.622  14.984 -2.6569  0.5103 -2.6980
   19DOPE   C39 2423   8.147   3.402  14.981  0.2464 -0.4434 -0.5101
   19DOPE   H9X 2424   8.129   3.391  15.089 -0.2560  0.4810 -0.4857
   19DOPE  C310 2425   8.143   3.294  14.904 -0.4932 -0.1746  0.2655
   19DOPE  H10X 2426   8.144   3.193  14.947 -0.3244  0.0202  0.7216
   19DOPE  C311 2427   8.144   3.290  14.754 -0.6859 -0.0792  1.0398
   19DOPE  H11X 2428   8.038   3.292  14.721 -0.4516 -4.1591 -0.6086
   19DOPE  H11Y 2429   8.184   3.384  14.712 -2.3904  0.0442 -0.4270
   19DOPE  C312 2430   8.216   3.171  14.695 -0.0080  0.0492  0.0562
   19DOPE  H12X 2431   8.166   3.073  14.712 -2.4756  1.0396 -1.0327
   19DOPE  H12Y 2432   8.320   3.155  14.729 -0.0392 -0.8341 -0.2265
   19DOPE  C313 2433   8.227   3.175  14.541 -0.1788  0.2172  0.6420
   19DOPE  H13X 2434   8.129   3.161  14.491  0.5056  0.2848 -0.7622
   19DOPE  H13Y 2435   8.267   3.276  14.515  1.1575 -0.6834 -1.0193
   19DOPE  C314 2436   8.335   3.069  14.490 -0.3332 -0.6583  0.1537
   19DOPE  H14X 2437   8.434   3.106  14.526  0.1995  0.0683 -1.9370
   19DOPE  H14Y 2438   8.342   3.085  14.381  2.4406 -1.8224  0.0759
   19DOPE  C315 2439   8.294   2.925  14.511  0.2044 -0.8891 -0.7671
   19DOPE  H15X 2440   8.256   2.900  14.612  0.2292 -1.0177 -0.7892
   19DOPE  H15Y 2441   8.384   2.861  14.496 -0.2092 -1.4866 -0.7466
   19DOPE  C316 2442   8.183   2.885  14.416 -0.1743 -0.8159 -0.6886
   19DOPE  H16X 2443   8.094   2.948  14.435 -1.2924 -2.4374 -0.4311
   19DOPE  H16Y 2444   8.151   2.784  14.449 -0.9962 -0.3559 -0.0217
   19DOPE  C317 2445   8.218   2.897  14.264 -0.0653 -0.1293  0.0438
   19DOPE  H17X 2446   8.120   2.874  14.216 -0.2593  0.9234 -0.0960
   19DOPE  H17Y 2447   8.232   3.005  14.241  1.1723 -0.7980 -2.6257
   19DOPE  C318 2448   8.327   2.806  14.206  0.4690  0.7929  0.6039
   19DOPE  H18X 2449   8.427   2.817  14.254  0.3247 -1.7070  1.6345
   19DOPE  H18Y 2450   8.276   2.708  14.210 -0.8968  1.2777 -2.1294
   19DOPE  H18Z 2451   8.339   2.813  14.096  0.6261 -0.7355  0.5115
   20DOPE     N 2452   6.038   4.351  16.043 -0.2190  0.1004 -0.3651
   20DOPE   HN1 2453   5.993   4.281  15.982  1.7879 -1.1290 -0.5440
   20DOPE   HN2 2454   6.067   4.311  16.135  0.4806  0.3405 -0.4682
   20DOPE   HN3 2455   5.964   4.420  16.065  0.0452  0.4363 -0.5125
   20DOPE   C12 2456   6.155   4.427  15.976 -0.8927  0.4891  0.4206
   20DOPE  H12A 2457   6.160   4.398  15.869  1.3391  2.0796  0.0244
   20DOPE  H12B 2458   6.249   4.385  16.018  0.5374  1.6614 -1.4504
   20DOPE   C11 2459   6.154   4.582  15.996 -0.4884 -0.1128 -0.2051
   20DOPE  H11A 2460   6.081   4.627  15.925  0.0253  0.3989 -0.4213
   20DOPE  H11B 2461   6.245   4.638  15.966 -0.7577  0.4463 -0.0007
   20DOPE     P 2462   6.241   4.626  16.235 -0.3295 -0.0973  0.0983
   20DOPE   O13 2463   6.315   4.491  16.230  0.2333  0.1286  0.6812
   20DOPE   O14 2464   6.191   4.681  16.366 -0.0625 -0.7177  0.3240
   20DOPE   O11 2465   6.334   4.736  16.169 -0.7677 -0.0234 -0.4614
   20DOPE   O12 2466   6.123   4.613  16.135 -0.7071 -0.4330 -0.1131
   20DOPE    C1 2467   6.479   4.725  16.180 -0.1783 -0.1725 -0.3514
   20DOPE    HA 2468   6.520   4.627  16.148  0.5668  0.3982 -1.1970
   20DOPE    HB 2469   6.521   4.761  16.277  0.0226  2.7188 -1.3908
   20DOPE    C2 2470   6.531   4.821  16.064 -0.3624 -0.2895 -0.7884
   20DOPE    HS 2471   6.529   4.918  16.118  3.6752  0.7276 -2.0535
   20DOPE   O21 2472   6.457   4.811  15.936  0.3011  0.2423  0.0558
   20DOPE   C21 2473   6.424   4.933  15.887  0.5131 -0.3788 -0.5620
   20DOPE   O22 2474   6.466   5.038  15.924 -0.5307 -0.1541  0.1420
   20DOPE   C22 2475   6.319   4.916  15.786  0.1416  0.3046 -0.5490
   20DOPE   H2R 2476   6.222   4.906  15.839  0.2368  0.1573 -0.4023
   20DOPE   H2S 2477   6.334   4.827  15.722 -0.5542  0.4146 -0.8698
   20DOPE    C3 2478   6.684   4.787  16.033  1.0570  0.1123 -0.0680
   20DOPE    HX 2479   6.689   4.685  15.989  1.3410 -0.8743  2.0838
   20DOPE    HY 2480   6.737   4.787  16.131  1.5659 -1.5125 -0.3217
   20DOPE   O31 2481   6.752   4.880  15.944 -0.0251  0.1556 -0.6681
   20DOPE   C31 2482   6.780   4.999  15.981 -0.1483  0.2918 -0.2468
   20DOPE   O32 2483   6.783   5.044  16.094  0.1862 -0.0510 -0.6700
   20DOPE   C32 2484   6.835   5.057  15.853 -0.3280 -0.6876 -0.8340
   20DOPE   H2X 2485   6.917   4.987  15.825 -1.1118 -1.2262 -1.8373
   20DOPE   H2Y 2486   6.755   5.052  15.776 -0.2374 -0.2145 -0.9613
   20DOPE   C23 2487   6.317   5.046  15.700  0.1102  0.5386 -0.5466
   20DOPE   H3R 2488   6.341   5.139  15.756  2.1962  0.6356 -1.5111
   20DOPE   H3S 2489   6.214   5.046  15.658  0.1410  0.0746 -0.6296
   20DOPE   C24 2490   6.405   5.030  15.576 -0.5537 -0.5950 -0.1837
   20DOPE   H4R 2491   6.401   4.927  15.536 -0.5636 -0.6250 -0.1039
   20DOPE   H4S 2492   6.509   5.054  15.606 -1.0070  0.3562  0.7076
   20DOPE   C25 2493   6.352   5.119  15.457 -0.1560 -0.0932  0.0884
   20DOPE   H5R 2494   6.338   5.225  15.487 -0.6911  0.1731 -1.0198
   20DOPE   H5S 2495   6.246   5.090  15.436 -1.1161  1.8226  1.8970
   20DOPE   C26 2496   6.442   5.106  15.333  0.4619  0.2400 -0.2086
   20DOPE   H6R 2497   6.451   4.997  15.312  1.6531 -0.2056  2.2414
   20DOPE   H6S 2498   6.546   5.130  15.363  1.3269 -0.6574 -2.3287
   20DOPE   C27 2499   6.386   5.196  15.219 -0.5231  0.9890 -0.7643
   20DOPE   H7R 2500   6.382   5.295  15.270  0.4606  0.0097  1.3105
   20DOPE   H7S 2501   6.285   5.155  15.195  0.1238 -0.1751 -1.5650
   20DOPE   C28 2502   6.484   5.195  15.107 -0.1043 -0.6537 -0.5058
   20DOPE   H8R 2503   6.482   5.097  15.055 -0.4479 -0.7460 -0.3248
   20DOPE   H8S 2504   6.587   5.205  15.147  0.3691 -1.8509 -1.3425
   20DOPE   C29 2505   6.445   5.299  15.014  0.0873  0.3937  0.1761
   20DOPE   H9R 2506   6.458   5.404  15.046  1.2964  0.3327 -0.0479
   20DOPE  C210 2507   6.409   5.285  14.884  0.0212 -0.2971 -0.9149
   20DOPE  H10R 2508   6.395   5.373  14.819 -1.3299 -1.6268 -2.5060
   20DOPE  C211 2509   6.380   5.160  14.806 -0.2884  0.0874  0.2736
   20DOPE  H11R 2510   6.273   5.158  14.776  0.3610 -1.1685 -2.2440
   20DOPE  H11S 2511   6.410   5.068  14.861  1.1013  0.6140  0.4492
   20DOPE  C212 2512   6.463   5.152  14.677  0.0172  0.2422 -0.3949
   20DOPE  H12R 2513   6.572   5.154  14.697 -0.1345  0.8045  0.4120
   20DOPE  H12S 2514   6.439   5.245  14.620 -0.9741 -0.2000 -0.7355
   20DOPE  C213 2515   6.429   5.031  14.598 -0.3373  0.0115 -0.9970
   20DOPE  H13R 2516   6.318   5.032  14.595 -0.4286  2.0650  0.5271
   20DOPE  H13S 2517   6.456   4.940  14.656 -0.9958 -0.7158 -1.8144
   20DOPE  C214 2518   6.502   5.025  14.462  1.1899  0.0762 -0.1765
   20DOPE  H14R 2519   6.613   5.027  14.467  1.4607 -1.7036 -3.2432
   20DOPE  H14S 2520   6.481   5.124  14.416  0.4962  0.9152  1.8235
   20DOPE  C215 2521   6.441   4.915  14.372 -0.3098  0.0387 -0.7305
   20DOPE  H15R 2522   6.468   4.814  14.410 -0.1695 -0.4730 -2.1350
   20DOPE  H15S 2523   6.484   4.932  14.271 -3.1846  0.8992 -1.8950
   20DOPE  C216 2524   6.287   4.922  14.355  0.9374  0.1136  0.1805
   20DOPE  H16R 2525   6.269   5.030  14.339 -0.7754 -0.1622  0.0685
   20DOPE  H16S 2526   6.248   4.888  14.454  2.6239 -0.2462  0.7518
   20DOPE  C217 2527   6.235   4.831  14.246  0.2746 -0.2219  0.4776
   20DOPE  H17R 2528   6.253   4.725  14.273 -0.4747 -0.4378  0.1607
   20DOPE  H17S 2529   6.296   4.839  14.154  1.2435  0.5297  1.1715
   20DOPE  C218 2530   6.083   4.840  14.213 -0.2829  0.3794 -0.1961
   20DOPE  H18R 2531   6.061   4.789  14.117  1.4406  1.1779 -1.0633
   20DOPE  H18S 2532   6.049   4.945  14.198 -1.8316 -0.3557 -2.2982
   20DOPE  H18T 2533   6.022   4.801  14.297  0.3126  0.8047  0.4426
   20DOPE   C33 2534   6.885   5.205  15.857 -0.7364 -0.0764  0.6578
   20DOPE   H3X 2535   6.945   5.218  15.950  1.1762  1.7714 -0.7343
   20DOPE   H3Y 2536   6.786   5.253  15.874 -2.0348 -1.0932 -3.0693
   20DOPE   C34 2537   6.956   5.247  15.732 -0.2138  0.4732  0.0496
   20DOPE   H4X 2538   7.005   5.346  15.738  0.4747  0.2473 -1.3878
   20DOPE   H4Y 2539   7.039   5.178  15.705  0.3166  1.8116 -1.9280
   20DOPE   C35 2540   6.864   5.250  15.610  0.1803 -0.1265 -0.1515
   20DOPE   H5X 2541   6.796   5.336  15.621  0.3194  0.0097 -0.3503
   20DOPE   H5Y 2542   6.812   5.151  15.607  1.8930 -1.0707 -0.2577
   20DOPE   C36 2543   6.936   5.244  15.484  1.0021 -0.1704 -0.2512
   20DOPE   H6X 2544   6.981   5.143  15.470  2.6456  0.7460 -2.2461
   20DOPE   H6Y 2545   7.006   5.330  15.472  0.9323 -0.1263 -0.3399
   20DOPE   C37 2546   6.842   5.260  15.366  0.1710 -0.3930  0.4623
   20DOPE   H7X 2547   6.761   5.184  15.370 -1.1276  0.9091 -0.1501
   20DOPE   H7Y 2548   6.791   5.357  15.383 -0.9945 -0.9704  0.3676
   20DOPE   C38 2549   6.912   5.258  15.229  0.4174 -0.4924  1.0261
   20DOPE   H8X 2550   6.992   5.335  15.232 -0.5334  0.5145  1.4063
   20DOPE   H8Y 2551   6.847   5.302  15.150  1.0719  1.3823  1.4789
   20DOPE   C39 2552   6.962   5.122  15.190  0.2102 -0.4289 -0.3018
   20DOPE   H9X 2553   7.044   5.094  15.257 -2.3037 -1.8575  2.4362
   20DOPE  C310 2554   6.911   5.040  15.092  0.3330  0.9215 -0.3613
   20DOPE  H10X 2555   6.969   4.947  15.081  0.8549  1.0670  0.9867
   20DOPE  C311 2556   6.803   5.072  14.984 -0.1975  0.2374 -0.4308
   20DOPE  H11X 2557   6.728   4.992  15.003  1.1225 -0.5683  1.7728
   20DOPE  H11Y 2558   6.755   5.170  15.005 -0.8133 -0.5080  1.9063
   20DOPE  C312 2559   6.842   5.062  14.834 -0.8203  0.3673 -0.3695
   20DOPE  H12X 2560   6.903   5.144  14.791  2.1188 -2.2126 -1.5133
   20DOPE  H12Y 2561   6.748   5.084  14.780 -0.8182  0.9363 -0.1495
   20DOPE  C313 2562   6.894   4.920  14.781  0.2920 -1.2433  0.0734
   20DOPE  H13X 2563   7.004   4.904  14.789  0.4785 -0.0979  0.0304
   20DOPE  H13Y 2564   6.840   4.847  14.845 -1.2226  2.4990  3.4640
   20DOPE  C314 2565   6.856   4.888  14.636  0.1134  0.4183  0.4174
   20DOPE  H14X 2566   6.928   4.945  14.574  0.0491  0.0284 -0.0321
   20DOPE  H14Y 2567   6.751   4.920  14.617  0.6158  1.6401 -0.3825
   20DOPE  C315 2568   6.855   4.739  14.618 -0.3567 -0.4406  0.1663
   20DOPE  H15X 2569   6.794   4.689  14.696 -3.6341  0.5180 -1.5894
   20DOPE  H15Y 2570   6.963   4.713  14.620 -0.1243  0.5408  1.0585
   20DOPE  C316 2571   6.787   4.686  14.485  0.0879  0.5970 -0.2421
   20DOPE  H16X 2572   6.677   4.685  14.504  0.3089 -0.8929  1.2481
   20DOPE  H16Y 2573   6.819   4.580  14.475  2.0631  1.3282 -2.7637
   20DOPE  C317 2574   6.816   4.770  14.361 -0.4077 -0.1250  0.0964
   20DOPE  H17X 2575   6.790   4.877  14.377 -1.9581 -0.3013 -1.0047
   20DOPE  H17Y 2576   6.922   4.755  14.331 -0.4194  0.1577 -0.0908
   20DOPE  C318 2577   6.740   4.715  14.246  0.1010  0.0256  0.2378
   20DOPE  H18X 2578   6.738   4.777  14.154 -0.3880 -0.5851 -0.1750
   20DOPE  H18Y 2579   6.789   4.617  14.226  2.2746  1.1751 -0.4105
   20DOPE  H18Z 2580   6.636   4.700  14.281  0.2969  1.0257  1.3310
   21DOPE     N 2581   2.294   0.030  16.049 -0.8721 -0.7481 -0.1952
   21DOPE   HN1 2582   2.389  -0.013  16.059 -0.1380  1.0180  0.8243
   21DOPE   HN2 2583   2.308   0.115  15.991  3.2498 -0.3888  1.0089
   21DOPE   HN3 2584   2.271   0.062  16.145  1.1081  0.4700 -0.0727
   21DOPE   C12 2585   2.197  -0.066  15.993 -0.8371 -0.4262  0.1391
   21DOPE  H12A 2586   2.098  -0.016  15.985 -0.8267 -0.4747 -0.3298
   21DOPE  H12B 2587   2.182  -0.154  16.058 -3.2672 -0.4944 -0.4309
   21DOPE   C11 2588   2.261  -0.124  15.860 -0.2020 -0.1853  0.1682
   21DOPE  H11A 2589   2.287  -0.045  15.787 -0.6359 -1.5778 -1.5600
   21DOPE  H11B 2590   2.174  -0.186  15.828 -0.5436 -0.1303  0.9678
   21DOPE     P 2591   2.515  -0.193  15.815 -0.3345  0.5651  0.3967
   21DOPE   O13 2592   2.587  -0.317  15.832 -0.7835  0.3660  0.1799
   21DOPE   O14 2593   2.580  -0.074  15.869 -0.0196 -0.1326 -0.2131
   21DOPE   O11 2594   2.484  -0.167  15.666 -0.2836 -0.1720  0.3690
   21DOPE   O12 2595   2.376  -0.204  15.895  0.2632 -0.1620 -0.4884
   21DOPE    C1 2596   2.381  -0.245  15.597 -0.5675  0.9428  0.0132
   21DOPE    HA 2597   2.309  -0.176  15.549 -1.8266 -1.3555 -1.6087
   21DOPE    HB 2598   2.314  -0.305  15.662  0.4491 -0.7918 -0.4558
   21DOPE    C2 2599   2.443  -0.323  15.470 -0.6516 -0.3939  0.3663
   21DOPE    HS 2600   2.361  -0.331  15.395 -1.4496 -1.9917  1.3442
   21DOPE   O21 2601   2.479  -0.459  15.488  0.3064  0.1672 -0.6373
   21DOPE   C21 2602   2.381  -0.542  15.523 -0.4380  0.2865  0.4366
   21DOPE   O22 2603   2.263  -0.523  15.534  0.0149 -0.2840 -0.8005
   21DOPE   C22 2604   2.449  -0.677  15.528  0.5511  0.2210 -0.7545
   21DOPE   H2R 2605   2.407  -0.714  15.624  2.1203  1.8950  0.6334
   21DOPE   H2S 2606   2.556  -0.664  15.553  0.3918  2.5219 -1.0095
   21DOPE    C3 2607   2.565  -0.236  15.409  0.0870 -0.1655  0.4402
   21DOPE    HX 2608   2.659  -0.249  15.467  1.6021  3.6505 -0.8324
   21DOPE    HY 2609   2.536  -0.129  15.416  0.5206 -0.0465  0.4703
   21DOPE   O31 2610   2.580  -0.270  15.267  0.2733  0.3327  0.2223
   21DOPE   C31 2611   2.697  -0.239  15.215 -0.0070 -0.0432  0.0508
   21DOPE   O32 2612   2.801  -0.202  15.272  0.6009 -0.2275 -0.1670
   21DOPE   C32 2613   2.675  -0.242  15.065 -0.0791 -0.3977 -0.1749
   21DOPE   H2X 2614   2.718  -0.338  15.029  1.2891  0.4262 -0.8245
   21DOPE   H2Y 2615   2.569  -0.225  15.036 -0.8224 -3.1534  0.6471
   21DOPE   C23 2616   2.404  -0.757  15.403  0.2768  0.3304 -0.1054
   21DOPE   H3R 2617   2.293  -0.750  15.400  0.2533  1.2926  1.6782
   21DOPE   H3S 2618   2.433  -0.864  15.414 -1.2659 -0.0150  0.8900
   21DOPE   C24 2619   2.469  -0.702  15.276 -0.1484  0.6976 -0.0022
   21DOPE   H4R 2620   2.465  -0.591  15.268 -0.5562  0.5498 -2.9844
   21DOPE   H4S 2621   2.416  -0.756  15.195  1.8410 -0.1435 -0.7876
   21DOPE   C25 2622   2.617  -0.732  15.267 -0.0281 -0.1157 -0.1417
   21DOPE   H5R 2623   2.628  -0.842  15.278  1.3999 -0.1231 -1.3853
   21DOPE   H5S 2624   2.675  -0.691  15.352  0.8630 -2.2223  0.3250
   21DOPE   C26 2625   2.681  -0.680  15.128 -0.5475  0.1449 -0.4253
   21DOPE   H6R 2626   2.784  -0.721  15.124 -0.2322  1.0172 -2.6482
   21DOPE   H6S 2627   2.691  -0.569  15.126  1.7704 -0.0111  0.2108
   21DOPE   C27 2628   2.593  -0.731  15.009  0.0484  0.2518 -0.4076
   21DOPE   H7R 2629   2.493  -0.683  15.001  0.1071  0.3189 -0.7636
   21DOPE   H7S 2630   2.584  -0.841  15.019 -0.2980  0.2558 -0.6563
   21DOPE   C28 2631   2.654  -0.697  14.864  0.2125 -0.2834  0.7892
   21DOPE   H8R 2632   2.764  -0.710  14.866  0.8729  3.6460 -0.6440
   21DOPE   H8S 2633   2.649  -0.586  14.857  3.5496 -0.0697  0.3363
   21DOPE   C29 2634   2.587  -0.775  14.757 -0.2576 -0.0073  0.2365
   21DOPE   H9R 2635   2.575  -0.881  14.784  0.6959 -0.4451 -1.0025
   21DOPE  C210 2636   2.533  -0.729  14.639 -0.7841 -0.0588 -0.2154
   21DOPE  H10R 2637   2.480  -0.805  14.580 -1.1515  0.7376 -0.9350
   21DOPE  C211 2638   2.528  -0.588  14.586 -0.3437 -0.2885 -0.7965
   21DOPE  H11R 2639   2.590  -0.570  14.496  0.8957  1.3318  0.3206
   21DOPE  H11S 2640   2.576  -0.516  14.656  1.5958 -1.7074 -0.5561
   21DOPE  C212 2641   2.385  -0.540  14.568 -0.0104  0.3283 -0.2059
   21DOPE  H12R 2642   2.371  -0.430  14.556 -0.1923  0.2700 -0.5645
   21DOPE  H12S 2643   2.324  -0.570  14.655  0.2749  0.9094  0.1962
   21DOPE  C213 2644   2.316  -0.603  14.436  0.1413 -0.3776  0.2941
   21DOPE  H13R 2645   2.327  -0.712  14.451  0.9719 -0.5505 -1.2891
   21DOPE  H13S 2646   2.376  -0.577  14.346 -1.5384  0.2103 -0.7143
   21DOPE  C214 2647   2.164  -0.561  14.429 -0.6598  0.1991 -0.3483
   21DOPE  H14R 2648   2.152  -0.450  14.423 -0.5824  0.4174  2.3602
   21DOPE  H14S 2649   2.113  -0.577  14.526 -2.4266  2.1834 -0.8507
   21DOPE  C215 2650   2.093  -0.624  14.311  0.9794 -0.6455  0.0243
   21DOPE  H15R 2651   2.142  -0.587  14.218 -0.2523  0.1907 -0.3128
   21DOPE  H15S 2652   1.985  -0.598  14.306  0.8912 -1.1607 -1.1372
   21DOPE  C216 2653   2.091  -0.777  14.302  0.8052  0.1823  0.0442
   21DOPE  H16R 2654   2.002  -0.801  14.364 -0.7595 -0.1954 -2.2079
   21DOPE  H16S 2655   2.186  -0.818  14.341  0.7870  0.1502  0.0549
   21DOPE  C217 2656   2.048  -0.842  14.170  0.1237  0.6270  0.3366
   21DOPE  H17R 2657   2.135  -0.841  14.101  0.9514  1.3875  1.3740
   21DOPE  H17S 2658   1.973  -0.777  14.119  1.0445  1.3093 -0.1765
   21DOPE  C218 2659   1.998  -0.984  14.204 -0.5449 -0.8572 -0.0837
   21DOPE  H18R 2660   2.069  -1.053  14.254 -1.8352 -1.0231  1.6405
   21DOPE  H18S 2661   1.968  -1.028  14.106  1.4060  1.0338 -1.6284
   21DOPE  H18T 2662   1.919  -1.000  14.280  1.0082 -0.8982  1.5912
   21DOPE   C33 2663   2.770  -0.143  14.998 -0.0391 -0.2729 -0.5043
   21DOPE   H3X 2664   2.875  -0.168  15.025 -0.8335 -2.1842  1.0659
   21DOPE   H3Y 2665   2.756  -0.040  15.037 -1.9609 -0.6343 -0.1362
   21DOPE   C34 2666   2.741  -0.125  14.849 -0.6208 -0.6456 -0.0168
   21DOPE   H4X 2667   2.764  -0.218  14.793  0.1014 -1.0506  0.9273
   21DOPE   H4Y 2668   2.634  -0.100  14.835 -0.3968  0.1144 -0.4574
   21DOPE   C35 2669   2.825  -0.010  14.791 -0.1171 -0.5490  0.0440
   21DOPE   H5X 2670   2.825   0.085  14.848 -0.4554  0.6415 -1.8631
   21DOPE   H5Y 2671   2.788   0.028  14.693  0.8144 -0.2089 -0.1841
   21DOPE   C36 2672   2.974  -0.042  14.778  0.0348 -0.2436 -0.6073
   21DOPE   H6X 2673   2.981  -0.127  14.706 -0.9072  0.5133 -1.6386
   21DOPE   H6Y 2674   3.000  -0.084  14.877  1.5740  0.4631 -0.6764
   21DOPE   C37 2675   3.061   0.078  14.742  0.4490 -0.1598  0.2854
   21DOPE   H7X 2676   3.066   0.150  14.827 -1.8240 -1.3337  1.5273
   21DOPE   H7Y 2677   3.163   0.035  14.731 -0.2569 -1.5325 -1.3138
   21DOPE   C38 2678   3.025   0.139  14.600  0.3507  0.2911 -0.3759
   21DOPE   H8X 2679   3.096   0.222  14.582 -0.4891  1.6167  2.1111
   21DOPE   H8Y 2680   2.924   0.180  14.619 -0.4307 -2.0477  1.0233
   21DOPE   C39 2681   3.034   0.054  14.483 -0.1433 -0.7838 -0.0045
   21DOPE   H9X 2682   2.970  -0.034  14.498 -2.2983  0.8171  0.6230
   21DOPE  C310 2683   3.099   0.079  14.370 -0.6581 -0.0239 -0.2938
   21DOPE  H10X 2684   3.089   0.009  14.286  0.1511 -0.7604  0.2022
   21DOPE  C311 2685   3.172   0.205  14.329  0.6548 -0.3065  0.2547
   21DOPE  H11X 2686   3.191   0.273  14.414 -0.2068  1.7737 -1.1290
   21DOPE  H11Y 2687   3.269   0.183  14.279  0.1772  0.2990 -0.9789
   21DOPE  C312 2688   3.094   0.282  14.220  0.3565  0.1321  0.3736
   21DOPE  H12X 2689   3.156   0.368  14.188  0.4191 -0.2851 -0.6942
   21DOPE  H12Y 2690   3.006   0.327  14.269 -0.6120 -1.5135  0.2448
   21DOPE  C313 2691   3.074   0.211  14.083  0.0835  0.1893  0.2412
   21DOPE  H13X 2692   3.044   0.104  14.089  0.0826 -0.0483 -2.6239
   21DOPE  H13Y 2693   2.984   0.258  14.039 -0.0377 -1.3029 -1.2022
   21DOPE  C314 2694   3.188   0.215  13.984 -0.0903  0.4188 -0.1528
   21DOPE  H14X 2695   3.284   0.175  14.025 -0.1433  0.6437  0.2019
   21DOPE  H14Y 2696   3.207   0.323  13.965 -1.3519  0.2907 -2.5029
   21DOPE  C315 2697   3.152   0.153  13.850  0.7767  0.5375 -0.5776
   21DOPE  H15X 2698   3.043   0.159  13.828  0.4263 -0.9307  0.6060
   21DOPE  H15Y 2699   3.163   0.045  13.869  0.1261  0.9321  2.5633
   21DOPE  C316 2700   3.232   0.196  13.726 -0.7945 -0.2340  0.1347
   21DOPE  H16X 2701   3.330   0.228  13.768 -0.7788 -0.0351 -0.0531
   21DOPE  H16Y 2702   3.184   0.278  13.669 -1.4277 -1.1607 -0.6861
   21DOPE  C317 2703   3.284   0.081  13.640 -0.1888  0.0980  0.5379
   21DOPE  H17X 2704   3.374   0.102  13.578  0.2313 -0.5493  0.9145
   21DOPE  H17Y 2705   3.316   0.003  13.713 -0.4676 -0.8769 -0.3556
   21DOPE  C318 2706   3.184   0.010  13.552  0.8222 -0.2988 -0.2451
   21DOPE  H18X 2707   3.098  -0.039  13.602  0.2096 -0.0974 -1.0614
   21DOPE  H18Y 2708   3.143   0.082  13.478 -1.7575 -3.2941 -1.9955
   21DOPE  H18Z 2709   3.232  -0.068  13.489  1.2122 -0.1407 -0.1455
   22DOPE     N 2710   1.365   3.058  15.514 -0.5449 -0.5072  0.5000
   22DOPE   HN1 2711   1.293   2.989  15.484 -0.4964 -0.9809  1.4087
   22DOPE   HN2 2712   1.439   3.008  15.568 -0.6876 -1.1086  0.1538
   22DOPE   HN3 2713   1.315   3.118  15.583 -2.0493  1.3120 -1.9893
   22DOPE   C12 2714   1.416   3.136  15.391 -0.2927 -0.2413 -0.4598
   22DOPE  H12A 2715   1.328   3.193  15.353 -0.3157 -0.3003 -0.4956
   22DOPE  H12B 2716   1.447   3.058  15.319  0.4225 -0.1625 -0.2395
   22DOPE   C11 2717   1.530   3.240  15.420  0.1539  0.0860 -0.9168
   22DOPE  H11A 2718   1.547   3.307  15.334  1.3842  2.7719  1.2699
   22DOPE  H11B 2719   1.622   3.182  15.445 -0.2581 -1.0619 -1.9516
   22DOPE     P 2720   1.410   3.438  15.544 -0.2655 -0.2226  0.0577
   22DOPE   O13 2721   1.486   3.547  15.605 -0.4293 -0.3493 -0.0369
   22DOPE   O14 2722   1.284   3.405  15.612  0.2854  0.0718 -0.7569
   22DOPE   O11 2723   1.375   3.469  15.396 -0.0536 -0.2324 -0.2373
   22DOPE   O12 2724   1.508   3.320  15.535 -0.8557 -0.6532  0.2761
   22DOPE    C1 2725   1.454   3.566  15.321  0.2367 -0.4254 -0.8375
   22DOPE    HA 2726   1.562   3.543  15.330  0.0589 -0.4147  2.4568
   22DOPE    HB 2727   1.430   3.668  15.357 -0.7890 -1.8628  2.9731
   22DOPE    C2 2728   1.437   3.562  15.168  0.1680  0.4131  0.1217
   22DOPE    HS 2729   1.326   3.555  15.158  0.1421 -0.2508  0.7381
   22DOPE   O21 2730   1.508   3.447  15.110 -0.4100  0.7006 -0.0687
   22DOPE   C21 2731   1.433   3.360  15.045  0.8590  0.0092 -0.5871
   22DOPE   O22 2732   1.307   3.364  15.053 -0.2449 -0.7723  0.0452
   22DOPE   C22 2733   1.509   3.256  14.963  0.2054  0.2125 -0.0895
   22DOPE   H2R 2734   1.443   3.166  14.962  0.4615 -0.0093  1.1095
   22DOPE   H2S 2735   1.599   3.232  15.023 -0.1190  1.1086  0.7868
   22DOPE    C3 2736   1.471   3.685  15.093  0.4277 -0.2025 -0.0124
   22DOPE    HX 2737   1.579   3.709  15.105  0.3133 -0.0384  0.7309
   22DOPE    HY 2738   1.412   3.763  15.145  1.3328  1.1697 -0.9860
   22DOPE   O31 2739   1.446   3.671  14.947  0.3310  0.3213 -0.3590
   22DOPE   C31 2740   1.442   3.790  14.893  0.2911 -0.5283 -0.0399
   22DOPE   O32 2741   1.450   3.895  14.957  0.0309 -0.4844  0.4294
   22DOPE   C32 2742   1.414   3.780  14.748  0.4733  0.4859  0.1127
   22DOPE   H2X 2743   1.497   3.728  14.696  0.5644  0.1753  0.5642
   22DOPE   H2Y 2744   1.324   3.716  14.735  1.0591 -0.1886 -0.7344
   22DOPE   C23 2745   1.534   3.302  14.819  0.1805 -0.7689  0.1486
   22DOPE   H3R 2746   1.595   3.227  14.764  2.2370  0.3809  0.7549
   22DOPE   H3S 2747   1.588   3.398  14.804 -0.8380 -0.1911  0.1646
   22DOPE   C24 2748   1.400   3.327  14.747  0.0743  0.1252 -0.3097
   22DOPE   H4R 2749   1.343   3.415  14.784  1.4418  0.7665  0.3605
   22DOPE   H4S 2750   1.341   3.234  14.761 -0.9299  0.6909 -0.6387
   22DOPE   C25 2751   1.418   3.341  14.590 -0.0833 -0.0303 -1.2014
   22DOPE   H5R 2752   1.314   3.335  14.552 -0.0330  0.2141 -1.3817
   22DOPE   H5S 2753   1.470   3.249  14.557  0.7338  0.3542 -1.0351
   22DOPE   C26 2754   1.497   3.467  14.552 -0.4840 -0.5346 -0.0512
   22DOPE   H6R 2755   1.595   3.467  14.605  0.1375 -1.6068 -1.1446
   22DOPE   H6S 2756   1.448   3.561  14.584 -1.9295 -1.4909  0.6156
   22DOPE   C27 2757   1.541   3.455  14.405 -0.1383 -0.7447 -0.1512
   22DOPE   H7R 2758   1.451   3.474  14.343  0.2176 -0.6904 -0.6569
   22DOPE   H7S 2759   1.575   3.351  14.389  0.0221 -0.5690 -1.0048
   22DOPE   C28 2760   1.651   3.562  14.357  0.3377  0.5305 -0.9342
   22DOPE   H8R 2761   1.757   3.547  14.385  0.3602  0.7481 -0.8997
   22DOPE   H8S 2762   1.633   3.664  14.398  0.8083  0.2235  0.0547
   22DOPE   C29 2763   1.655   3.563  14.208 -0.0660  0.3396 -0.4758
   22DOPE   H9R 2764   1.562   3.546  14.151  1.4336 -0.1647 -2.9334
   22DOPE  C210 2765   1.764   3.596  14.135  0.8323 -0.2932  0.2434
   22DOPE  H10R 2766   1.747   3.575  14.029 -1.2055 -0.3104  0.5315
   22DOPE  C211 2767   1.902   3.657  14.171  0.0726 -0.1585 -0.2973
   22DOPE  H11R 2768   1.892   3.719  14.263  3.9471 -0.4196  0.4395
   22DOPE  H11S 2769   1.931   3.717  14.082  0.0138 -0.8075 -0.7598
   22DOPE  C212 2770   2.007   3.550  14.204 -0.5489  0.0225 -0.0675
   22DOPE  H12R 2771   1.961   3.504  14.295 -0.7904  0.6269  0.1170
   22DOPE  H12S 2772   2.097   3.601  14.243 -0.4676  0.8414 -1.2984
   22DOPE  C213 2773   2.036   3.439  14.100  0.1531 -0.1811 -0.3365
   22DOPE  H13R 2774   2.089   3.495  14.021  2.7918 -2.4801 -0.3693
   22DOPE  H13S 2775   1.950   3.399  14.043  1.5873 -1.7290 -1.4880
   22DOPE  C214 2776   2.123   3.322  14.142  0.3420 -0.6887  0.6477
   22DOPE  H14R 2777   2.134   3.261  14.050 -0.1475 -0.5730  0.5082
   22DOPE  H14S 2778   2.073   3.258  14.217 -1.0487 -0.0280  0.3291
   22DOPE  C215 2779   2.267   3.339  14.190 -0.2944 -0.3446 -0.2317
   22DOPE  H15R 2780   2.304   3.238  14.215 -1.1823 -0.6260 -0.0359
   22DOPE  H15S 2781   2.252   3.389  14.288 -0.0492 -0.1234 -0.3059
   22DOPE  C216 2782   2.360   3.406  14.080 -0.2880  0.2356 -0.4341
   22DOPE  H16R 2783   2.366   3.516  14.091 -0.6267  0.6260 -3.2960
   22DOPE  H16S 2784   2.320   3.376  13.981  0.3129  0.8971 -0.8948
   22DOPE  C217 2785   2.511   3.368  14.097 -0.5316  0.5079  0.3305
   22DOPE  H17R 2786   2.507   3.257  14.104 -0.7377  0.4420 -0.6691
   22DOPE  H17S 2787   2.542   3.402  14.198 -2.1565  1.4242  0.5465
   22DOPE  C218 2788   2.603   3.422  13.993  0.1946  0.0115  0.3686
   22DOPE  H18R 2789   2.712   3.437  14.011  0.3592  1.2688 -1.3699
   22DOPE  H18S 2790   2.565   3.522  13.961 -1.6864  0.2131  2.9239
   22DOPE  H18T 2791   2.594   3.357  13.903  0.8060 -2.0715  1.7526
   22DOPE   C33 2792   1.405   3.919  14.678 -0.4986 -0.2414  0.2057
   22DOPE   H3X 2793   1.336   3.995  14.720  0.6072  0.9099 -0.0126
   22DOPE   H3Y 2794   1.356   3.901  14.579 -0.1969 -2.8053  0.4598
   22DOPE   C34 2795   1.541   3.972  14.638  0.7963 -0.2752  0.1660
   22DOPE   H4X 2796   1.600   3.988  14.731  0.0813  1.0771  0.4134
   22DOPE   H4Y 2797   1.591   3.892  14.580  1.5138 -0.3921  0.9182
   22DOPE   C35 2798   1.530   4.101  14.558 -0.5318  0.6471 -0.0641
   22DOPE   H5X 2799   1.483   4.179  14.621  0.9445  1.5127  0.0170
   22DOPE   H5Y 2800   1.464   4.082  14.471  0.4873 -1.3783 -0.4621
   22DOPE   C36 2801   1.660   4.164  14.512 -0.5876  0.4564 -0.7638
   22DOPE   H6X 2802   1.718   4.196  14.601 -2.1531  0.7154  0.1996
   22DOPE   H6Y 2803   1.643   4.261  14.461  1.2328  0.7590 -0.8527
   22DOPE   C37 2804   1.748   4.067  14.429  0.4031  0.1734  0.5095
   22DOPE   H7X 2805   1.794   3.998  14.503  1.9316  0.2962 -0.2833
   22DOPE   H7Y 2806   1.685   4.007  14.360 -0.5467  2.6572 -0.8984
   22DOPE   C38 2807   1.858   4.139  14.354  0.6689  0.3726 -0.2372
   22DOPE   H8X 2808   1.924   4.062  14.308  1.8070  0.2437  1.5254
   22DOPE   H8Y 2809   1.912   4.214  14.417 -0.6219  0.9300  0.2329
   22DOPE   C39 2810   1.797   4.227  14.254  0.5578 -0.6467 -0.2321
   22DOPE   H9X 2811   1.687   4.235  14.257  0.3962  0.4111 -3.8081
   22DOPE  C310 2812   1.851   4.264  14.134 -0.4775 -0.1907 -0.7732
   22DOPE  H10X 2813   1.793   4.315  14.056  2.4094  2.4403 -1.3862
   22DOPE  C311 2814   1.980   4.207  14.083  0.5127  0.1901  0.4367
   22DOPE  H11X 2815   2.029   4.134  14.150 -1.1298  0.2847  1.7835
   22DOPE  H11Y 2816   1.958   4.149  13.990 -0.6318 -1.7388  1.8477
   22DOPE  C312 2817   2.088   4.317  14.063 -0.2089 -0.2545 -0.2038
   22DOPE  H12X 2818   2.179   4.258  14.040  0.1881 -0.3920  1.5641
   22DOPE  H12Y 2819   2.101   4.355  14.166 -1.7873 -1.2200  0.3922
   22DOPE  C313 2820   2.055   4.404  13.944 -0.1321 -0.8090  0.0178
   22DOPE  H13X 2821   2.009   4.346  13.861 -0.7351 -1.9518  1.1073
   22DOPE  H13Y 2822   1.985   4.487  13.968 -0.1757 -0.5847 -0.8781
   22DOPE  C314 2823   2.187   4.467  13.897 -1.0716  0.1505  0.4232
   22DOPE  H14X 2824   2.256   4.390  13.859 -1.8562 -0.4863  0.2570
   22DOPE  H14Y 2825   2.248   4.502  13.983  0.5792 -1.7045  0.0701
   22DOPE  C315 2826   2.166   4.576  13.785 -0.3065 -0.7620  0.4975
   22DOPE  H15X 2827   2.110   4.534  13.699 -1.5188 -0.2209  0.9950
   22DOPE  H15Y 2828   2.271   4.600  13.760  0.2069 -2.9110  0.4185
   22DOPE  C316 2829   2.092   4.701  13.831  0.1780 -1.0220 -0.2898
   22DOPE  H16X 2830   2.120   4.706  13.939 -2.1303 -0.1506  0.3422
   22DOPE  H16Y 2831   1.982   4.686  13.829  0.0987 -0.6575  0.5371
   22DOPE  C317 2832   2.119   4.827  13.748 -0.2764 -0.0444 -0.4609
   22DOPE  H17X 2833   2.130   4.796  13.642 -4.0676 -1.4983 -0.5843
   22DOPE  H17Y 2834   2.039   4.902  13.767  0.9674  1.3711 -0.6238
   22DOPE  C318 2835   2.247   4.909  13.781 -0.1465  0.1698 -0.3749
   22DOPE  H18X 2836   2.261   4.924  13.890 -0.2137  0.5316 -0.4155
   22DOPE  H18Y 2837   2.338   4.856  13.747 -0.2598 -0.5373  0.3645
   22DOPE  H18Z 2838   2.245   5.009  13.735  0.6844  1.0128  1.3300
   23DOPE     N 2839   6.374   7.757  16.254 -0.1234  0.1326  0.5017
   23DOPE   HN1 2840   6.474   7.785  16.251  0.1931 -1.0018 -1.9221
   23DOPE   HN2 2841   6.314   7.803  16.325 -1.2322  0.4406 -0.6060
   23DOPE   HN3 2842   6.373   7.654  16.271  2.9706  0.2319  2.1247
   23DOPE   C12 2843   6.310   7.784  16.123 -0.5474  0.5702  0.7876
   23DOPE  H12A 2844   6.299   7.895  16.116 -0.9957  0.4399 -1.4577
   23DOPE  H12B 2845   6.212   7.733  16.122 -0.7370  0.8818 -1.0915
   23DOPE   C11 2846   6.390   7.730  16.005 -0.6118 -0.0945 -0.0862
   23DOPE  H11A 2847   6.485   7.788  16.008 -0.0948 -0.9279 -0.0586
   23DOPE  H11B 2848   6.329   7.750  15.914 -3.3374  3.9082  2.2939
   23DOPE     P 2849   6.329   7.473  15.970  0.1737 -0.1803 -0.4044
   23DOPE   O13 2850   6.188   7.512  15.989  0.6023  0.2596  0.6095
   23DOPE   O14 2851   6.372   7.348  16.030 -0.1597 -0.3845  0.5356
   23DOPE   O11 2852   6.359   7.474  15.814 -0.5050 -0.3409 -0.7051
   23DOPE   O12 2853   6.423   7.593  16.014  0.0908  0.8045 -0.1281
   23DOPE    C1 2854   6.308   7.357  15.742 -0.2094 -0.0669  0.2731
   23DOPE    HA 2855   6.270   7.390  15.643  1.6880  0.3998 -0.3510
   23DOPE    HB 2856   6.222   7.302  15.786 -0.8082 -0.5674 -1.4393
   23DOPE    C2 2857   6.418   7.250  15.722  0.4356 -0.3591 -0.0735
   23DOPE    HS 2858   6.458   7.216  15.820  0.1204  1.1672  0.6182
   23DOPE   O21 2859   6.522   7.314  15.650  0.6078  0.1427 -0.2064
   23DOPE   C21 2860   6.604   7.390  15.718  0.1840  0.0755  0.2460
   23DOPE   O22 2861   6.635   7.382  15.835 -0.5664 -0.3829  0.4228
   23DOPE   C22 2862   6.670   7.491  15.616  0.8049  0.1184 -1.1781
   23DOPE   H2R 2863   6.757   7.448  15.562  3.2861 -0.2454  2.7120
   23DOPE   H2S 2864   6.713   7.560  15.692 -3.2106 -0.6288  2.1850
   23DOPE    C3 2865   6.386   7.121  15.643 -0.4870 -0.1456  0.0589
   23DOPE    HX 2866   6.472   7.053  15.629  0.2220  1.0518 -1.7465
   23DOPE    HY 2867   6.375   7.154  15.537  0.9924  0.9184  0.2098
   23DOPE   O31 2868   6.269   7.045  15.677 -1.0842 -0.0912  0.2026
   23DOPE   C31 2869   6.297   6.925  15.720  0.3948  0.0930  0.1389
   23DOPE   O32 2870   6.403   6.873  15.744  0.2071  0.6214 -0.4008
   23DOPE   C32 2871   6.166   6.860  15.736 -0.4490 -0.0333  0.3203
   23DOPE   H2X 2872   6.163   6.792  15.823  2.4117 -0.8831 -0.1604
   23DOPE   H2Y 2873   6.100   6.947  15.759  1.1917  0.9479  1.5360
   23DOPE   C23 2874   6.575   7.584  15.532 -0.2063 -0.5391  1.0868
   23DOPE   H3R 2875   6.619   7.686  15.536  1.6501 -1.2765  0.2377
   23DOPE   H3S 2876   6.472   7.592  15.575 -0.4181  1.0086  0.3580
   23DOPE   C24 2877   6.562   7.537  15.387  0.4776  0.5059 -0.0201
   23DOPE   H4R 2878   6.492   7.452  15.382 -0.4090  1.2632 -1.0060
   23DOPE   H4S 2879   6.654   7.492  15.343  1.4324 -1.8692  3.9081
   23DOPE   C25 2880   6.501   7.647  15.305 -0.8051 -0.2766 -0.5770
   23DOPE   H5R 2881   6.512   7.616  15.199  3.2386  1.3108 -0.8168
   23DOPE   H5S 2882   6.574   7.731  15.300 -0.6472 -0.4834 -3.2819
   23DOPE   C26 2883   6.366   7.696  15.358  0.4296 -0.7513  0.3670
   23DOPE   H6R 2884   6.392   7.767  15.438 -0.3510  1.0477 -0.9012
   23DOPE   H6S 2885   6.304   7.616  15.404  1.5606 -1.1151  1.2968
   23DOPE   C27 2886   6.281   7.767  15.246 -0.9254  0.9060 -0.4113
   23DOPE   H7R 2887   6.175   7.774  15.278 -0.9908 -3.8283  1.2551
   23DOPE   H7S 2888   6.270   7.688  15.169 -0.6899 -1.6384  1.9824
   23DOPE   C28 2889   6.357   7.890  15.190 -0.0871 -0.3945 -0.5177
   23DOPE   H8R 2890   6.456   7.863  15.147 -0.3718 -0.3791 -1.1884
   23DOPE   H8S 2891   6.376   7.956  15.277  1.5672 -1.0431 -0.3466
   23DOPE   C29 2892   6.265   7.947  15.085 -0.1403 -0.5565 -0.2371
   23DOPE   H9R 2893   6.209   8.031  15.130  0.3577 -0.6481  0.5828
   23DOPE  C210 2894   6.254   7.917  14.955 -0.3163  0.3887 -0.3804
   23DOPE  H10R 2895   6.190   7.982  14.894 -2.0439 -0.5626  0.3390
   23DOPE  C211 2896   6.329   7.813  14.874 -0.2398  0.0417 -0.5037
   23DOPE  H11R 2897   6.382   7.742  14.942  2.4300  0.9333 -1.5087
   23DOPE  H11S 2898   6.401   7.854  14.799  0.5386 -0.5010 -0.0717
   23DOPE  C212 2899   6.241   7.730  14.780 -0.1872  0.0073 -0.1685
   23DOPE  H12R 2900   6.182   7.664  14.847  0.0970  1.3317  1.4211
   23DOPE  H12S 2901   6.307   7.661  14.723  1.4341  2.0455 -0.8792
   23DOPE  C213 2902   6.147   7.809  14.680  0.2222  0.2682  0.4485
   23DOPE  H13R 2903   6.203   7.880  14.616 -2.8938  3.6468  1.0956
   23DOPE  H13S 2904   6.078   7.874  14.738 -0.7325  0.8231 -1.2202
   23DOPE  C214 2905   6.055   7.725  14.593  0.1234 -0.5229  1.1769
   23DOPE  H14R 2906   6.020   7.633  14.644  0.4177  0.4765  3.2786
   23DOPE  H14S 2907   6.106   7.689  14.500 -1.1395  0.7293 -0.0404
   23DOPE  C215 2908   5.930   7.797  14.553  0.4479 -0.2512 -0.8166
   23DOPE  H15R 2909   5.945   7.896  14.504 -1.1620  0.0563 -0.7471
   23DOPE  H15S 2910   5.877   7.827  14.646 -2.0157 -0.2445 -2.1476
   23DOPE  C216 2911   5.843   7.707  14.468  0.0557  0.5205  0.4769
   23DOPE  H16R 2912   5.856   7.601  14.499 -2.1595 -0.5914 -2.0006
   23DOPE  H16S 2913   5.885   7.722  14.366  1.2127 -1.9491  0.5158
   23DOPE  C217 2914   5.698   7.751  14.465 -0.0829 -0.4312  0.0694
   23DOPE  H17R 2915   5.700   7.861  14.457  1.0103 -0.3739  0.9230
   23DOPE  H17S 2916   5.643   7.727  14.558 -0.9528 -0.5389 -0.4539
   23DOPE  C218 2917   5.632   7.688  14.343 -0.3375 -0.4418  0.6905
   23DOPE  H18R 2918   5.575   7.595  14.366  0.7500 -0.8154  2.0426
   23DOPE  H18S 2919   5.704   7.664  14.262 -1.0759 -1.9846  0.4554
   23DOPE  H18T 2920   5.562   7.757  14.292  0.3750  0.0331  0.3457
   23DOPE   C33 2921   6.112   6.789  15.616 -0.3550  0.2340 -0.3188
   23DOPE   H3X 2922   6.142   6.828  15.517  1.7354 -1.4396 -0.4217
   23DOPE   H3Y 2923   6.001   6.794  15.624 -0.3127  0.0767  0.4444
   23DOPE   C34 2924   6.172   6.647  15.626 -0.4864 -0.8230  1.5502
   23DOPE   H4X 2925   6.253   6.645  15.702 -0.2472  1.3256  1.4158
   23DOPE   H4Y 2926   6.087   6.579  15.646 -0.1443 -1.7951 -0.0901
   23DOPE   C35 2927   6.237   6.608  15.490 -0.4198 -0.3918  0.3981
   23DOPE   H5X 2928   6.281   6.506  15.501 -1.9398 -0.9400  1.9718
   23DOPE   H5Y 2929   6.316   6.680  15.462 -1.7746  0.8655 -0.3093
   23DOPE   C36 2930   6.137   6.617  15.373 -0.3194  0.2847 -0.4477
   23DOPE   H6X 2931   6.153   6.715  15.322  0.6513 -0.3678 -1.4255
   23DOPE   H6Y 2932   6.035   6.626  15.417 -0.5588 -0.0465 -0.9305
   23DOPE   C37 2933   6.150   6.498  15.287  0.6523 -0.0717  0.7195
   23DOPE   H7X 2934   6.251   6.483  15.243 -0.4650 -1.6481 -1.4734
   23DOPE   H7Y 2935   6.140   6.416  15.361  0.1038  0.4142  1.1990
   23DOPE   C38 2936   6.052   6.501  15.170  0.2353  0.1079  0.6419
   23DOPE   H8X 2937   6.062   6.403  15.119 -2.6372  1.4454 -2.9640
   23DOPE   H8Y 2938   6.087   6.570  15.090 -3.5204 -0.0483 -1.3255
   23DOPE   C39 2939   5.907   6.514  15.215  0.2676 -0.3134  0.6063
   23DOPE   H9X 2940   5.863   6.424  15.261  1.7911 -0.5030  1.7555
   23DOPE  C310 2941   5.832   6.628  15.214  0.3322  0.5479 -0.2688
   23DOPE  H10X 2942   5.730   6.625  15.257  0.8555 -0.3269  0.9780
   23DOPE  C311 2943   5.879   6.761  15.157  0.4962  0.1982 -0.2909
   23DOPE  H11X 2944   5.874   6.831  15.244 -2.2442  1.2918 -1.2202
   23DOPE  H11Y 2945   5.984   6.758  15.122  0.2254  2.2068 -1.4533
   23DOPE  C312 2946   5.791   6.817  15.037  0.3998  0.0382  0.0774
   23DOPE  H12X 2947   5.682   6.817  15.059  0.5139 -0.3996  0.6594
   23DOPE  H12Y 2948   5.804   6.750  14.950 -2.1733 -0.7852  0.2444
   23DOPE  C313 2949   5.828   6.960  14.989  0.3907 -0.6368 -0.0952
   23DOPE  H13X 2950   5.935   6.977  15.013  0.1342  0.8742  0.1010
   23DOPE  H13Y 2951   5.811   6.968  14.879 -0.1559  1.5623  0.1078
   23DOPE  C314 2952   5.738   7.073  15.051  0.1127  0.1253  0.1742
   23DOPE  H14X 2953   5.794   7.168  15.041 -1.7551  1.7281  3.2949
   23DOPE  H14Y 2954   5.710   7.052  15.157 -0.8964  1.6539  0.2387
   23DOPE  C315 2955   5.602   7.072  14.985  0.1803 -0.3470  0.1822
   23DOPE  H15X 2956   5.548   6.977  15.006  1.7209 -1.8724 -2.3241
   23DOPE  H15Y 2957   5.607   7.078  14.874 -1.0989 -0.5286  0.0966
   23DOPE  C316 2958   5.520   7.192  15.037  0.4320 -0.8348 -0.0295
   23DOPE  H16X 2959   5.589   7.278  15.052  2.5241 -2.4928  0.2158
   23DOPE  H16Y 2960   5.493   7.155  15.138  0.5656 -2.2081 -0.4851
   23DOPE  C317 2961   5.387   7.224  14.970 -0.3192  0.0753  0.0592
   23DOPE  H17X 2962   5.346   7.309  15.029  0.2813 -0.6527  1.5553
   23DOPE  H17Y 2963   5.395   7.265  14.867 -0.9144  0.6749  0.2444
   23DOPE  C318 2964   5.299   7.099  14.969  0.8815  0.6879  1.0223
   23DOPE  H18X 2965   5.307   7.052  15.070  2.8474  0.3796  0.7592
   23DOPE  H18Y 2966   5.196   7.116  14.932  2.0050  3.7328 -1.1144
   23DOPE  H18Z 2967   5.351   7.034  14.896 -0.0522  1.5885 -0.4868
   24DOPE     N 2968   7.919   4.566  15.846  0.0697  0.6735 -0.4354
   24DOPE   HN1 2969   7.887   4.581  15.944  1.1487 -2.2064  0.4459
   24DOPE   HN2 2970   7.919   4.464  15.828  0.1450  0.7462 -0.8445
   24DOPE   HN3 2971   8.016   4.602  15.845  0.0242  1.0993  2.2368
   24DOPE   C12 2972   7.831   4.625  15.739  0.4939 -0.3577  0.2378
   24DOPE  H12A 2973   7.726   4.591  15.753  0.4418  0.4001  1.9066
   24DOPE  H12B 2974   7.869   4.598  15.638 -0.0629  1.9776 -0.6749
   24DOPE   C11 2975   7.827   4.777  15.746 -0.0370  0.1526 -0.5279
   24DOPE  H11A 2976   7.751   4.806  15.822  0.3969 -1.3773  0.5159
   24DOPE  H11B 2977   7.790   4.819  15.649 -1.2473 -0.3048 -0.2832
   24DOPE     P 2978   7.981   4.925  15.900  0.0804  0.1023 -0.0187
   24DOPE   O13 2979   8.102   5.015  15.883 -0.3218  0.1996 -0.4496
   24DOPE   O14 2980   7.976   4.844  16.025 -0.3230 -0.6406  0.1757
   24DOPE   O11 2981   7.855   5.017  15.909 -0.0185  0.7019  0.5433
   24DOPE   O12 2982   7.962   4.827  15.770  0.0834 -0.0485  0.0953
   24DOPE    C1 2983   7.805   5.101  15.804 -0.5669  0.2477  0.4937
   24DOPE    HA 2984   7.698   5.078  15.786 -0.5962  0.1601  0.7816
   24DOPE    HB 2985   7.854   5.094  15.704 -0.0358  1.8395  0.6103
   24DOPE    C2 2986   7.824   5.251  15.841 -0.0819  0.0937 -0.6031
   24DOPE    HS 2987   7.795   5.264  15.947 -0.1929  0.4824 -0.6785
   24DOPE   O21 2988   7.740   5.333  15.757  0.0468  0.3871 -0.0130
   24DOPE   C21 2989   7.615   5.336  15.787  0.4587  0.4639  0.5962
   24DOPE   O22 2990   7.569   5.269  15.877  0.4727  0.6075 -0.2333
   24DOPE   C22 2991   7.540   5.428  15.693  0.0003 -0.7257 -0.2162
   24DOPE   H2R 2992   7.620   5.456  15.622 -0.0988  1.9978  0.6479
   24DOPE   H2S 2993   7.508   5.521  15.745  0.8072 -1.6283  1.9913
   24DOPE    C3 2994   7.965   5.307  15.824  0.1943 -0.1449 -0.0989
   24DOPE    HX 2995   8.021   5.259  15.907  0.0801 -1.8349 -0.9733
   24DOPE    HY 2996   7.964   5.416  15.845 -1.7811 -0.2766  0.6990
   24DOPE   O31 2997   8.022   5.272  15.695 -0.1697  0.3962 -0.9820
   24DOPE   C31 2998   8.151   5.305  15.695  0.0128  0.5653 -0.3460
   24DOPE   O32 2999   8.214   5.348  15.788 -0.2502  0.2318 -0.2468
   24DOPE   C32 3000   8.219   5.281  15.561 -0.2260 -0.0108  0.5388
   24DOPE   H2X 3001   8.227   5.171  15.546 -0.3125  0.0517  0.0040
   24DOPE   H2Y 3002   8.156   5.329  15.484 -1.6266 -1.6559  0.5836
   24DOPE   C23 3003   7.418   5.368  15.614 -0.4951 -0.1146  0.4646
   24DOPE   H3R 3004   7.343   5.342  15.692  2.3105 -0.0853  3.4363
   24DOPE   H3S 3005   7.457   5.284  15.553 -0.2336  1.7093 -2.0314
   24DOPE   C24 3006   7.362   5.462  15.503 -0.3830  0.4814 -1.0039
   24DOPE   H4R 3007   7.319   5.553  15.550 -0.6435  0.2524 -0.7936
   24DOPE   H4S 3008   7.277   5.417  15.448 -1.0407 -1.0858  1.1529
   24DOPE   C25 3009   7.466   5.506  15.397 -0.8977  0.0048  0.4265
   24DOPE   H5R 3010   7.507   5.412  15.354 -0.3344  0.5557 -0.2550
   24DOPE   H5S 3011   7.547   5.548  15.460 -1.0815 -0.3632  0.9232
   24DOPE   C26 3012   7.410   5.607  15.300 -0.5726  0.2238  0.5775
   24DOPE   H6R 3013   7.491   5.657  15.243 -0.3668 -0.6578  0.0764
   24DOPE   H6S 3014   7.354   5.683  15.359 -1.1867 -0.2137  0.5713
   24DOPE   C27 3015   7.309   5.556  15.201  0.5108  0.6589 -0.5749
   24DOPE   H7R 3016   7.231   5.634  15.184 -0.8655 -0.1275  1.6868
   24DOPE   H7S 3017   7.268   5.461  15.240  1.0188  1.1773  1.3266
   24DOPE   C28 3018   7.368   5.525  15.065 -0.5504  0.4507  0.0350
   24DOPE   H8R 3019   7.404   5.622  15.026  2.6790 -0.1951  1.0626
   24DOPE   H8S 3020   7.290   5.481  14.999 -1.8291  2.6969 -0.0357
   24DOPE   C29 3021   7.494   5.434  15.075  1.3542 -0.2620  0.3224
   24DOPE   H9R 3022   7.473   5.356  15.150  0.8946 -0.1938  0.2628
   24DOPE  C210 3023   7.616   5.441  15.019 -0.0249 -0.1198  0.1625
   24DOPE  H10R 3024   7.687   5.358  15.028 -1.6112 -1.6280 -0.6543
   24DOPE  C211 3025   7.657   5.535  14.911  0.2875  0.7127 -0.3845
   24DOPE  H11R 3026   7.700   5.629  14.951 -0.4789  1.1365 -0.5453
   24DOPE  H11S 3027   7.562   5.565  14.861 -0.5723 -0.6264  0.3743
   24DOPE  C212 3028   7.750   5.489  14.791  0.5588  0.0046 -0.3402
   24DOPE  H12R 3029   7.705   5.402  14.738 -3.1652  1.7396 -0.3441
   24DOPE  H12S 3030   7.853   5.467  14.827 -0.1721 -0.4337  1.6187
   24DOPE  C213 3031   7.758   5.606  14.688 -0.2042  0.4676 -0.3889
   24DOPE  H13R 3032   7.777   5.695  14.750  1.6970 -0.8299  1.0261
   24DOPE  H13S 3033   7.659   5.608  14.638  1.0881  0.1825 -3.1655
   24DOPE  C214 3034   7.866   5.591  14.578  0.1275 -0.4974 -0.9048
   24DOPE  H14R 3035   7.965   5.615  14.622 -0.7407  2.4040 -0.3399
   24DOPE  H14S 3036   7.849   5.658  14.492  1.8874 -2.9807 -3.3441
   24DOPE  C215 3037   7.873   5.454  14.516 -0.3498 -0.1620 -0.3286
   24DOPE  H15R 3038   7.888   5.371  14.589  1.8404  0.5943  0.1877
   24DOPE  H15S 3039   7.969   5.450  14.461  1.2172  0.7741  2.1314
   24DOPE  C216 3040   7.762   5.427  14.416  0.2290 -0.5208 -0.3639
   24DOPE  H16R 3041   7.753   5.516  14.350 -0.6550 -0.3574 -0.0373
   24DOPE  H16S 3042   7.665   5.409  14.466 -0.8084 -2.8884 -2.9427
   24DOPE  C217 3043   7.784   5.293  14.348 -0.2966  0.2945  0.0187
   24DOPE  H17R 3044   7.822   5.221  14.425 -1.1050 -0.5240 -0.3281
   24DOPE  H17S 3045   7.856   5.304  14.264 -0.9261 -0.6355 -0.6542
   24DOPE  C218 3046   7.652   5.234  14.284  0.0360  0.5402  0.3483
   24DOPE  H18R 3047   7.675   5.137  14.234  1.6460  0.3001  1.4638
   24DOPE  H18S 3048   7.597   5.307  14.221  1.0357  0.7420 -0.3066
   24DOPE  H18T 3049   7.583   5.184  14.356  0.7674 -3.2000 -1.2762
   24DOPE   C33 3050   8.360   5.344  15.567 -0.1505  0.0614 -0.8100
   24DOPE   H3X 3051   8.416   5.266  15.623 -2.1831 -0.9606 -0.0553
   24DOPE   H3Y 3052   8.361   5.443  15.617  0.8932 -0.0889 -0.5173
   24DOPE   C34 3053   8.405   5.372  15.423 -0.5805  0.2919  0.0675
   24DOPE   H4X 3054   8.412   5.274  15.373 -0.9622 -0.6596  1.7899
   24DOPE   H4Y 3055   8.336   5.450  15.384  0.8811  2.0927  0.8741
   24DOPE   C35 3056   8.545   5.439  15.418 -0.0789 -0.1630  0.0805
   24DOPE   H5X 3057   8.584   5.435  15.314 -3.9628 -0.7284 -1.4923
   24DOPE   H5Y 3058   8.618   5.386  15.483  0.1347  0.1859  0.1290
   24DOPE   C36 3059   8.534   5.587  15.457  0.3343 -0.0272  0.5440
   24DOPE   H6X 3060   8.572   5.603  15.560 -2.6750  4.6438  1.2219
   24DOPE   H6Y 3061   8.427   5.617  15.460  0.6364  1.3156 -0.7603
   24DOPE   C37 3062   8.621   5.678  15.360 -0.3667  0.6935  0.4535
   24DOPE   H7X 3063   8.729   5.657  15.370 -0.0021  2.9295  1.7316
   24DOPE   H7Y 3064   8.583   5.659  15.257  1.0339  0.6056 -0.0654
   24DOPE   C38 3065   8.613   5.830  15.390  0.5432  1.3233 -0.1537
   24DOPE   H8X 3066   8.640   5.860  15.494 -0.2342  0.2320  0.3864
   24DOPE   H8Y 3067   8.507   5.862  15.387  0.1677  0.2577  0.6788
   24DOPE   C39 3068   8.703   5.905  15.300 -0.2691  0.0183 -0.3879
   24DOPE   H9X 3069   8.798   5.933  15.348 -0.7079 -0.3268  0.7128
   24DOPE  C310 3070   8.671   5.926  15.173  0.2493 -0.1899 -0.3983
   24DOPE  H10X 3071   8.741   5.992  15.120  0.2258  0.1241 -0.0380
   24DOPE  C311 3072   8.538   5.899  15.112  0.0407  0.1363  0.0337
   24DOPE  H11X 3073   8.541   5.840  15.019  0.4173 -1.3349  0.9553
   24DOPE  H11Y 3074   8.479   5.832  15.179  0.4308  0.0618  0.3026
   24DOPE  C312 3075   8.456   6.020  15.087  0.1278 -0.3953 -0.6529
   24DOPE  H12X 3076   8.376   5.998  15.013 -0.3255  0.4376 -0.4265
   24DOPE  H12Y 3077   8.526   6.097  15.048  0.8169  0.8035  2.6041
   24DOPE  C313 3078   8.397   6.089  15.215 -0.1701 -0.2651  0.0772
   24DOPE  H13X 3079   8.318   6.023  15.258 -1.3912  1.5028  0.6795
   24DOPE  H13Y 3080   8.479   6.116  15.284 -0.3077  1.0263 -0.2428
   24DOPE  C314 3081   8.319   6.216  15.202  0.4369 -0.1431 -0.4225
   24DOPE  H14X 3082   8.376   6.296  15.149  2.1487 -1.3648 -0.5122
   24DOPE  H14Y 3083   8.299   6.256  15.304  0.4777 -3.0819  0.8482
   24DOPE  C315 3084   8.180   6.214  15.122 -0.1837  0.1173  0.1922
   24DOPE  H15X 3085   8.110   6.145  15.174 -0.4129  1.9098  2.4369
   24DOPE  H15Y 3086   8.206   6.165  15.026 -1.8094 -0.9095  0.2321
   24DOPE  C316 3087   8.123   6.353  15.098 -0.3639 -0.6420  0.5451
   24DOPE  H16X 3088   8.211   6.420  15.084 -1.2740  0.5568  0.4122
   24DOPE  H16Y 3089   8.082   6.399  15.190 -0.2366  2.2228 -0.7220
   24DOPE  C317 3090   8.017   6.353  14.985 -0.2051  0.2643 -0.5144
   24DOPE  H17X 3091   8.071   6.326  14.892  2.0415 -0.2496  0.8671
   24DOPE  H17Y 3092   7.947   6.271  15.014 -0.5072  1.0558  1.1020
   24DOPE  C318 3093   7.933   6.478  14.959  0.2502 -0.1974 -0.0270
   24DOPE  H18X 3094   7.836   6.458  14.908  0.3514 -1.0061  0.0869
   24DOPE  H18Y 3095   7.910   6.521  15.059  2.2902 -0.9820  0.8364
   24DOPE  H18Z 3096   8.004   6.543  14.903  0.0340  0.7948  0.8127
   25DOPE     N 3097   1.287   5.383  16.215  0.0543  0.2390 -0.0700
   25DOPE   HN1 3098   1.324   5.292  16.179  1.0467 -0.3811  2.3543
   25DOPE   HN2 3099   1.360   5.453  16.193  1.4459 -1.2569 -0.4231
   25DOPE   HN3 3100   1.280   5.382  16.318 -0.9935 -1.4562 -0.1217
   25DOPE   C12 3101   1.161   5.428  16.137  0.3406  0.8778  0.3565
   25DOPE  H12A 3102   1.134   5.524  16.187  0.7850  0.3152  1.7035
   25DOPE  H12B 3103   1.079   5.355  16.157 -1.8910  2.3001 -2.6380
   25DOPE   C11 3104   1.197   5.445  15.984 -0.3437  0.3851 -0.3308
   25DOPE  H11A 3105   1.254   5.540  15.981 -0.4611  0.5291  1.1912
   25DOPE  H11B 3106   1.098   5.473  15.942 -1.8056 -1.5843  1.5484
   25DOPE     P 3107   1.211   5.262  15.792 -0.0798 -0.5012 -0.2954
   25DOPE   O13 3108   1.126   5.148  15.821  0.6632  0.3088  0.8458
   25DOPE   O14 3109   1.341   5.234  15.728  0.4047 -0.0995 -0.3549
   25DOPE   O11 3110   1.131   5.373  15.711  0.2672  0.2670 -0.3015
   25DOPE   O12 3111   1.254   5.328  15.930 -0.1381 -0.2620  0.6480
   25DOPE    C1 3112   1.193   5.498  15.661 -0.3599 -0.1419  0.1679
   25DOPE    HA 3113   1.304   5.497  15.651 -0.3539  2.2868 -0.7337
   25DOPE    HB 3114   1.168   5.582  15.729  0.0616  2.4103 -2.5964
   25DOPE    C2 3115   1.149   5.534  15.513 -0.1616 -0.2414 -0.6030
   25DOPE    HS 3116   1.220   5.611  15.476 -0.8824  1.9130  2.1116
   25DOPE   O21 3117   1.016   5.577  15.510  0.3016  0.0099  0.2683
   25DOPE   C21 3118   0.999   5.705  15.530  0.1332  0.1488 -0.7402
   25DOPE   O22 3119   1.089   5.787  15.544  0.4015 -0.6711  0.8075
   25DOPE   C22 3120   0.849   5.742  15.545  0.3196 -0.2560  0.8989
   25DOPE   H2R 3121   0.840   5.781  15.648  2.2563 -0.7057  1.2725
   25DOPE   H2S 3122   0.784   5.652  15.545 -0.7697  0.5108  1.2493
   25DOPE    C3 3123   1.152   5.412  15.427 -0.4339 -0.4670  0.2779
   25DOPE    HX 3124   1.094   5.329  15.473 -1.3519  0.5316  0.9660
   25DOPE    HY 3125   1.257   5.378  15.419 -0.2443  0.3370 -0.8353
   25DOPE   O31 3126   1.112   5.433  15.292  0.1424 -0.9254 -0.1121
   25DOPE   C31 3127   1.012   5.364  15.247  0.2315 -0.4235 -0.8915
   25DOPE   O32 3128   0.938   5.287  15.304 -0.2298 -0.4582 -0.6133
   25DOPE   C32 3129   1.009   5.407  15.099  0.2506  0.1670  0.1581
   25DOPE   H2X 3130   1.002   5.518  15.097 -0.8809  0.1105 -0.4850
   25DOPE   H2Y 3131   1.109   5.379  15.060 -0.1649 -0.5665 -0.4092
   25DOPE   C23 3132   0.793   5.846  15.441  0.3459  0.0751 -0.7908
   25DOPE   H3R 3133   0.857   5.936  15.429 -0.5171  0.6773 -1.0010
   25DOPE   H3S 3134   0.706   5.886  15.498 -1.3830 -2.7692 -1.2485
   25DOPE   C24 3135   0.739   5.787  15.306  0.1774 -0.3017  0.5830
   25DOPE   H4R 3136   0.712   5.681  15.326  1.5518 -0.8473 -0.3311
   25DOPE   H4S 3137   0.829   5.794  15.242  0.5783  0.0824  1.1830
   25DOPE   C25 3138   0.631   5.873  15.231 -0.0014 -0.9052 -0.2834
   25DOPE   H5R 3139   0.688   5.958  15.186 -1.7466  1.0534  1.0160
   25DOPE   H5S 3140   0.564   5.912  15.310 -0.7710  3.0066 -2.5833
   25DOPE   C26 3141   0.557   5.788  15.131 -0.4192 -0.4066 -0.6539
   25DOPE   H6R 3142   0.616   5.768  15.039 -0.2398  0.8770 -0.8343
   25DOPE   H6S 3143   0.475   5.846  15.083  0.4616  0.7879 -0.7505
   25DOPE   C27 3144   0.506   5.658  15.191  0.9346  0.8418  0.0420
   25DOPE   H7R 3145   0.482   5.660  15.299  2.9276 -0.9233  0.5980
   25DOPE   H7S 3146   0.583   5.579  15.203 -1.0879 -1.1382  0.5311
   25DOPE   C28 3147   0.392   5.586  15.117 -0.5250 -0.0785  0.3055
   25DOPE   H8R 3148   0.307   5.656  15.104 -1.4775 -1.1418  0.6662
   25DOPE   H8S 3149   0.357   5.502  15.181  2.9524 -3.2933 -1.6230
   25DOPE   C29 3150   0.441   5.516  14.990  0.0530  0.1901  0.2726
   25DOPE   H9R 3151   0.501   5.427  15.014  0.5785  0.6538  0.7111
   25DOPE  C210 3152   0.399   5.538  14.864 -0.3006 -0.4630  0.3193
   25DOPE  H10R 3153   0.446   5.467  14.794 -0.8226  0.1112 -0.6371
   25DOPE  C211 3154   0.309   5.642  14.809 -0.1245  0.1576  0.6407
   25DOPE  H11R 3155   0.345   5.658  14.705 -1.7867  0.2484  0.0462
   25DOPE  H11S 3156   0.324   5.735  14.867 -2.1049  0.2678  1.0777
   25DOPE  C212 3157   0.164   5.607  14.817 -0.0210  0.6119 -0.4480
   25DOPE  H12R 3158   0.124   5.708  14.795  0.0891  0.4269 -1.5279
   25DOPE  H12S 3159   0.125   5.572  14.915  0.1271 -1.1211 -0.9814
   25DOPE  C213 3160   0.119   5.515  14.701 -0.8655 -0.0860 -0.2162
   25DOPE  H13R 3161   0.169   5.419  14.724  1.6902  0.7334 -1.9371
   25DOPE  H13S 3162   0.164   5.547  14.605 -0.1625 -1.9965 -0.5693
   25DOPE  C214 3163  -0.038   5.498  14.700 -0.4065 -0.2798 -0.4980
   25DOPE  H14R 3164  -0.079   5.590  14.654 -1.4688  0.0761  1.0798
   25DOPE  H14S 3165  -0.070   5.491  14.806  1.1144  0.5767  0.0484
   25DOPE  C215 3166  -0.067   5.375  14.614 -0.3785 -0.4531  0.1360
   25DOPE  H15R 3167  -0.040   5.275  14.654 -0.1959 -1.4937 -2.3705
   25DOPE  H15S 3168   0.010   5.379  14.533 -1.0109 -1.6205 -0.5452
   25DOPE  C216 3169  -0.216   5.374  14.565  0.1898 -0.1150 -0.0596
   25DOPE  H16R 3170  -0.230   5.456  14.491 -3.2932 -0.2523  0.2710
   25DOPE  H16S 3171  -0.279   5.409  14.650 -0.6887 -2.4404  0.3001
   25DOPE  C217 3172  -0.264   5.245  14.510 -0.2164 -0.0638  0.8907
   25DOPE  H17R 3173  -0.190   5.202  14.438 -0.3497 -1.1795  1.3935
   25DOPE  H17S 3174  -0.351   5.280  14.450  0.1738 -1.1811 -0.3847
   25DOPE  C218 3175  -0.319   5.147  14.610  0.1069  0.1081 -0.2465
   25DOPE  H18R 3176  -0.391   5.203  14.674  2.2695  1.1354  1.3881
   25DOPE  H18S 3177  -0.246   5.101  14.680  2.2648  0.2444 -2.2792
   25DOPE  H18T 3178  -0.373   5.060  14.566  1.1178 -0.5587 -0.1978
   25DOPE   C33 3179   0.887   5.355  15.007 -0.5996  0.5335 -0.2118
   25DOPE   H3X 3180   0.876   5.424  14.921 -0.0609 -1.3820 -1.8717
   25DOPE   H3Y 3181   0.791   5.357  15.064 -0.9620  1.0425 -0.8250
   25DOPE   C34 3182   0.916   5.209  14.967  0.6387 -0.4306 -1.0184
   25DOPE   H4X 3183   1.008   5.192  14.906 -0.8939  0.0507 -3.6058
   25DOPE   H4Y 3184   0.931   5.149  15.059  1.3978 -3.2821 -2.8501
   25DOPE   C35 3185   0.814   5.130  14.889  0.5086  0.4944  0.4773
   25DOPE   H5X 3186   0.716   5.128  14.940  0.0021  0.7114 -0.4680
   25DOPE   H5Y 3187   0.851   5.027  14.872  0.6130  0.6671 -0.4073
   25DOPE   C36 3188   0.794   5.187  14.746  0.1118  0.0637  0.2418
   25DOPE   H6X 3189   0.896   5.186  14.703 -0.0533 -0.8316 -0.1503
   25DOPE   H6Y 3190   0.758   5.292  14.753 -4.6211 -1.3611  0.6960
   25DOPE   C37 3191   0.694   5.109  14.655  0.8650 -0.5635  1.0495
   25DOPE   H7X 3192   0.717   5.001  14.654 -1.1484 -1.0275 -0.9833
   25DOPE   H7Y 3193   0.589   5.109  14.691 -0.0067  0.0622 -1.3268
   25DOPE   C38 3194   0.713   5.155  14.510  0.4586 -0.1744  0.3044
   25DOPE   H8X 3195   0.661   5.086  14.440  0.3950 -1.1234  1.2516
   25DOPE   H8Y 3196   0.816   5.152  14.468  0.0282 -2.1698 -0.7344
   25DOPE   C39 3197   0.640   5.289  14.489 -0.5137  0.1056 -0.2813
   25DOPE   H9X 3198   0.532   5.293  14.504 -0.2819  3.6547  1.3767
   25DOPE  C310 3199   0.697   5.393  14.431  0.1224  0.2287 -0.3418
   25DOPE  H10X 3200   0.626   5.473  14.405  1.5554  2.0846  1.2002
   25DOPE  C311 3201   0.841   5.407  14.384 -0.0951  0.2001  0.0628
   25DOPE  H11X 3202   0.866   5.310  14.336 -3.4867 -0.1597 -1.2084
   25DOPE  H11Y 3203   0.843   5.482  14.302 -0.1878  0.2223  0.0802
   25DOPE  C312 3204   0.944   5.450  14.499  0.9685 -0.2070  0.6300
   25DOPE  H12X 3205   0.935   5.365  14.570 -3.0822 -1.3617 -1.0249
   25DOPE  H12Y 3206   0.896   5.543  14.538 -0.6056  0.7584 -3.1942
   25DOPE  C313 3207   1.089   5.477  14.457 -0.2190  0.0083 -0.8873
   25DOPE  H13X 3208   1.121   5.387  14.401 -0.6180  0.3238 -1.6236
   25DOPE  H13Y 3209   1.104   5.568  14.395  0.7230  1.1720  0.9629
   25DOPE  C314 3210   1.197   5.489  14.565  0.0257  0.2572  0.0140
   25DOPE  H14X 3211   1.185   5.592  14.604 -0.2283  0.6081 -0.9647
   25DOPE  H14Y 3212   1.302   5.485  14.529  0.5363 -1.5201  1.5386
   25DOPE  C315 3213   1.194   5.380  14.677 -0.1954 -0.9811 -0.2689
   25DOPE  H15X 3214   1.220   5.287  14.622  2.3608  0.0817 -1.0424
   25DOPE  H15Y 3215   1.091   5.377  14.719 -1.1102 -1.6179 -2.4540
   25DOPE  C316 3216   1.298   5.403  14.788 -0.1444 -0.1462 -0.0153
   25DOPE  H16X 3217   1.269   5.488  14.853 -0.5312 -1.5303  1.7376
   25DOPE  H16Y 3218   1.388   5.429  14.728 -1.4957  1.4141 -1.4511
   25DOPE  C317 3219   1.322   5.278  14.881 -0.0858  0.2338 -0.8468
   25DOPE  H17X 3220   1.224   5.264  14.932  1.1882 -0.8009  1.4817
   25DOPE  H17Y 3221   1.332   5.181  14.827 -4.0332 -2.4909  2.6476
   25DOPE  C318 3222   1.435   5.286  14.991 -0.7079  0.7756 -0.0233
   25DOPE  H18X 3223   1.428   5.191  15.048  0.4698  0.2879 -0.6607
   25DOPE  H18Y 3224   1.538   5.301  14.951 -1.0440  0.8934 -0.8557
   25DOPE  H18Z 3225   1.427   5.370  15.064  1.0973  0.5860  0.4384
   26DOPE     N 3226   7.981   7.345  15.886  0.6742 -0.3660  0.4976
   26DOPE   HN1 3227   8.081   7.370  15.904  0.6575  0.9549 -0.9752
   26DOPE   HN2 3228   7.944   7.259  15.931  0.6859 -0.1540  0.9203
   26DOPE   HN3 3229   7.982   7.328  15.784 -2.2573  0.2711  0.2900
   26DOPE   C12 3230   7.896   7.456  15.947 -0.1730  0.5596  0.0776
   26DOPE  H12A 3231   7.927   7.467  16.054  0.4790  1.1074 -0.1613
   26DOPE  H12B 3232   7.792   7.419  15.935  0.6303 -1.2203 -2.1960
   26DOPE   C11 3233   7.923   7.595  15.890  0.6681 -0.0406 -0.0840
   26DOPE  H11A 3234   7.866   7.678  15.938  0.8910  1.2561 -1.9704
   26DOPE  H11B 3235   7.898   7.589  15.782  1.4777  0.9476 -0.3475
   26DOPE     P 3236   8.132   7.727  16.003  0.4081  0.3088  0.0981
   26DOPE   O13 3237   8.257   7.661  16.045 -1.0691 -0.1672 -0.1384
   26DOPE   O14 3238   8.033   7.775  16.097  0.4403 -0.0059  0.1006
   26DOPE   O11 3239   8.162   7.849  15.905 -0.0298 -0.3087  0.4370
   26DOPE   O12 3240   8.061   7.623  15.907 -0.0453  0.3491  0.1236
   26DOPE    C1 3241   8.229   7.822  15.785 -0.0688  0.6110 -0.1942
   26DOPE    HA 3242   8.156   7.764  15.725 -3.4547  4.2811 -0.0367
   26DOPE    HB 3243   8.328   7.773  15.797 -0.4480 -0.5042 -1.4233
   26DOPE    C2 3244   8.255   7.951  15.703  0.5903  0.3426 -0.0055
   26DOPE    HS 3245   8.340   8.003  15.752  0.2034  2.6997 -1.6627
   26DOPE   O21 3246   8.134   8.030  15.703 -0.8895 -0.4977 -0.0124
   26DOPE   C21 3247   8.154   8.160  15.714 -0.6719  0.5238 -0.3986
   26DOPE   O22 3248   8.265   8.206  15.736  0.2805  0.2710  0.0135
   26DOPE   C22 3249   8.021   8.244  15.713 -0.3978 -0.0260  0.5003
   26DOPE   H2R 3250   8.036   8.312  15.800  1.3041  0.3888 -0.0855
   26DOPE   H2S 3251   7.937   8.171  15.725 -1.2804  0.8746 -0.0928
   26DOPE    C3 3252   8.303   7.924  15.557  0.1974 -0.1060 -0.2537
   26DOPE    HX 3253   8.329   8.017  15.502 -1.1271  0.7271  0.4716
   26DOPE    HY 3254   8.215   7.882  15.504  0.1168 -1.4930  0.9018
   26DOPE   O31 3255   8.409   7.823  15.547  0.6394  0.4928 -0.0465
   26DOPE   C31 3256   8.523   7.860  15.501  0.3375 -0.1985 -0.8297
   26DOPE   O32 3257   8.570   7.977  15.504  0.2334 -0.4943 -0.1158
   26DOPE   C32 3258   8.599   7.745  15.430 -0.8124  0.1495  0.0556
   26DOPE   H2X 3259   8.704   7.746  15.465 -1.0586 -1.5578  0.9393
   26DOPE   H2Y 3260   8.558   7.647  15.461  1.2341 -0.5626  0.6910
   26DOPE   C23 3261   8.020   8.326  15.590 -0.4131  0.7497 -0.1871
   26DOPE   H3R 3262   8.108   8.392  15.578 -0.5479  0.8832 -0.4589
   26DOPE   H3S 3263   7.925   8.384  15.581  0.1829  1.8725  0.4574
   26DOPE   C24 3264   8.027   8.241  15.455 -0.7936  0.5714 -0.1788
   26DOPE   H4R 3265   7.966   8.151  15.477  1.2429 -0.4302  1.8329
   26DOPE   H4S 3266   8.126   8.192  15.442 -0.3851  1.6005 -1.1057
   26DOPE   C25 3267   7.975   8.332  15.347 -0.9132  0.1253 -0.0188
   26DOPE   H5R 3268   8.056   8.403  15.319 -0.9080  0.0676 -0.1505
   26DOPE   H5S 3269   7.901   8.404  15.389 -0.0679  1.0358 -0.0381
   26DOPE   C26 3270   7.909   8.263  15.230 -0.1121 -0.3435  0.3329
   26DOPE   H6R 3271   7.872   8.339  15.158  1.0623 -1.8976 -2.0509
   26DOPE   H6S 3272   7.820   8.205  15.261  0.2282 -2.3037 -1.9886
   26DOPE   C27 3273   8.004   8.161  15.164  0.4159  1.1251 -0.4832
   26DOPE   H7R 3274   7.964   8.115  15.072 -0.0366 -0.1612  0.3192
   26DOPE   H7S 3275   8.031   8.078  15.233 -0.4825  2.5013  1.6312
   26DOPE   C28 3276   8.147   8.212  15.120  0.5035 -0.8812  0.2535
   26DOPE   H8R 3277   8.200   8.259  15.205  1.4373  0.2785 -0.9362
   26DOPE   H8S 3278   8.135   8.294  15.046  2.1613  0.3510  1.2832
   26DOPE   C29 3279   8.237   8.101  15.063 -0.2036  0.6946 -0.0881
   26DOPE   H9R 3280   8.237   8.005  15.118  0.0591  0.5189 -0.3969
   26DOPE  C210 3281   8.319   8.111  14.955  0.4035 -0.2613 -0.5513
   26DOPE  H10R 3282   8.390   8.035  14.921  0.9582  0.8542 -2.0122
   26DOPE  C211 3283   8.346   8.238  14.869  0.0142  0.4252 -0.3987
   26DOPE  H11R 3284   8.455   8.255  14.874  0.0961  1.3791 -3.5810
   26DOPE  H11S 3285   8.302   8.326  14.920  1.0531  0.2828  0.7883
   26DOPE  C212 3286   8.303   8.241  14.718  0.0236  0.3018 -0.5980
   26DOPE  H12R 3287   8.336   8.151  14.661  0.6154 -0.6875  1.2129
   26DOPE  H12S 3288   8.349   8.332  14.675 -0.8462  0.7307 -0.6464
   26DOPE  C213 3289   8.150   8.245  14.707  0.2778  0.6952  0.0376
   26DOPE  H13R 3290   8.099   8.182  14.782  0.6529  0.0564 -0.2330
   26DOPE  H13S 3291   8.110   8.205  14.611  0.7835 -0.8966  0.4591
   26DOPE  C214 3292   8.098   8.390  14.703 -0.2063  0.6863  0.1115
   26DOPE  H14R 3293   8.151   8.453  14.628  2.8052 -0.3394  1.2425
   26DOPE  H14S 3294   8.113   8.439  14.802  0.8148 -0.0638  0.3433
   26DOPE  C215 3295   7.944   8.396  14.664 -0.0013 -0.8014 -1.2013
   26DOPE  H15R 3296   7.943   8.340  14.568 -2.6979 -0.5973 -1.3630
   26DOPE  H15S 3297   7.922   8.504  14.653  1.1396 -0.4911 -0.5620
   26DOPE  C216 3298   7.837   8.337  14.762  0.6942 -0.1286 -0.0927
   26DOPE  H16R 3299   7.828   8.380  14.864 -1.7850  1.6065 -0.9357
   26DOPE  H16S 3300   7.863   8.231  14.779 -4.1059 -1.4386  0.6361
   26DOPE  C217 3301   7.695   8.344  14.713  0.2711 -0.3326 -0.0822
   26DOPE  H17R 3302   7.693   8.310  14.607  1.0987 -2.8185  0.6318
   26DOPE  H17S 3303   7.669   8.452  14.712  1.7324  0.0677  1.3496
   26DOPE  C218 3304   7.595   8.255  14.793 -0.0762 -0.1017  0.0554
   26DOPE  H18R 3305   7.625   8.150  14.774  1.5100  0.4412 -0.5933
   26DOPE  H18S 3306   7.488   8.257  14.760 -0.1607 -0.3617  0.3058
   26DOPE  H18T 3307   7.595   8.267  14.903  0.8471  1.5222 -0.1000
   26DOPE   C33 3308   8.592   7.746  15.271 -0.3065 -0.0812  0.5970
   26DOPE   H3X 3309   8.627   7.845  15.236 -0.1062 -0.0579  0.8606
   26DOPE   H3Y 3310   8.484   7.726  15.253  0.3549 -2.8201 -0.8767
   26DOPE   C34 3311   8.669   7.626  15.213  0.3103 -0.1565  0.4131
   26DOPE   H4X 3312   8.719   7.670  15.124  2.3267  1.4976  2.2446
   26DOPE   H4Y 3313   8.752   7.588  15.277  1.7687 -1.5778 -2.1506
   26DOPE   C35 3314   8.585   7.505  15.154 -0.4422 -0.0234 -0.3755
   26DOPE   H5X 3315   8.537   7.535  15.059 -0.1844  0.0625 -0.4803
   26DOPE   H5Y 3316   8.501   7.487  15.224 -0.7862  0.7870 -0.5662
   26DOPE   C36 3317   8.670   7.377  15.130 -0.4169  0.0897 -0.1241
   26DOPE   H6X 3318   8.597   7.298  15.100  0.5221 -1.1932  0.8903
   26DOPE   H6Y 3319   8.721   7.353  15.225  0.7577 -1.4351 -1.1001
   26DOPE   C37 3320   8.777   7.403  15.023  0.8780  0.7215  0.7381
   26DOPE   H7X 3321   8.732   7.413  14.922 -0.6532 -1.2436  1.1411
   26DOPE   H7Y 3322   8.833   7.494  15.052  1.3998  1.0744 -1.2413
   26DOPE   C38 3323   8.881   7.289  15.025 -0.1017 -0.6855 -0.8705
   26DOPE   H8X 3324   8.826   7.194  15.017 -1.0850 -0.1328 -0.7920
   26DOPE   H8Y 3325   8.928   7.274  15.125  0.4905 -1.9459 -1.3238
   26DOPE   C39 3326   8.992   7.315  14.922  0.3199 -0.3535 -0.6140
   26DOPE   H9X 3327   9.017   7.420  14.903 -0.2868 -0.3996 -1.7312
   26DOPE  C310 3328   9.043   7.226  14.842 -0.3880 -0.8989 -0.0717
   26DOPE  H10X 3329   9.121   7.258  14.771  0.8525  0.4004  1.7886
   26DOPE  C311 3330   9.010   7.086  14.817  0.0595 -0.0408  0.4306
   26DOPE  H11X 3331   9.089   7.030  14.871  1.6664  1.6154 -0.0574
   26DOPE  H11Y 3332   8.909   7.063  14.855  0.5826 -1.3616  1.0734
   26DOPE  C312 3333   9.019   7.058  14.663 -0.5402  0.2893 -0.2096
   26DOPE  H12X 3334   8.998   6.950  14.647 -1.0455  0.6022 -1.7929
   26DOPE  H12Y 3335   9.124   7.075  14.631  0.6695 -2.6661  1.7731
   26DOPE  C313 3336   8.925   7.125  14.560 -0.1910  0.2809  0.5907
   26DOPE  H13X 3337   8.822   7.132  14.601  0.3350  1.4567  1.7829
   26DOPE  H13Y 3338   8.952   7.229  14.535 -3.7558  0.8651 -1.4824
   26DOPE  C314 3339   8.932   7.055  14.428 -0.4462  0.3139 -0.3276
   26DOPE  H14X 3340   8.890   6.953  14.443 -1.5864  0.8713  0.3602
   26DOPE  H14Y 3341   9.041   7.043  14.413 -0.0651  0.2546  2.0184
   26DOPE  C315 3342   8.859   7.114  14.303 -0.4113  0.0358  0.5669
   26DOPE  H15X 3343   8.892   7.051  14.217  1.2457  2.7703 -0.9342
   26DOPE  H15Y 3344   8.890   7.217  14.276 -3.4406  0.5919 -1.2555
   26DOPE  C316 3345   8.707   7.103  14.317  0.5257  0.1273  0.0733
   26DOPE  H16X 3346   8.666   7.168  14.397  0.6734 -1.0942  1.1761
   26DOPE  H16Y 3347   8.688   6.995  14.333  1.0292 -0.1044 -0.8130
   26DOPE  C317 3348   8.625   7.144  14.189 -0.9568 -0.5203  0.7593
   26DOPE  H17X 3349   8.635   7.253  14.172 -1.4145 -0.3889  1.3020
   26DOPE  H17Y 3350   8.660   7.080  14.106 -1.3400 -0.7401  0.7631
   26DOPE  C318 3351   8.471   7.118  14.214 -0.5881  0.0610  0.3822
   26DOPE  H18X 3352   8.429   7.195  14.282  0.2201  0.3141  0.6066
   26DOPE  H18Y 3353   8.418   7.111  14.116  0.4264  2.0171 -0.3815
   26DOPE  H18Z 3354   8.462   7.016  14.257  0.1325 -1.0141 -1.8383
   27DOPE     N 3355   7.137   0.228  15.546 -0.1272  0.8459 -0.2779
   27DOPE   HN1 3356   7.137   0.300  15.471 -2.4420  0.0886 -1.0962
   27DOPE   HN2 3357   7.050   0.237  15.602  1.1011  0.1734  1.8261
   27DOPE   HN3 3358   7.227   0.224  15.597  0.2223  1.1906 -0.8517
   27DOPE   C12 3359   7.112   0.100  15.487 -0.0860  0.1283  0.7499
   27DOPE  H12A 3360   7.097   0.020  15.562 -0.4394  0.0526  0.6042
   27DOPE  H12B 3361   7.203   0.078  15.428 -1.2494 -1.0351 -0.6681
   27DOPE   C11 3362   6.990   0.118  15.391 -0.1140  0.4943  0.4490
   27DOPE  H11A 3363   6.975   0.031  15.324  0.6965  0.6939 -0.0077
   27DOPE  H11B 3364   7.023   0.203  15.328  2.0938  0.6080  1.6780
   27DOPE     P 3365   6.762   0.038  15.493  0.3158 -0.2702  0.1199
   27DOPE   O13 3366   6.690   0.108  15.603 -0.7007  0.9786  1.1311
   27DOPE   O14 3367   6.830  -0.085  15.529 -0.2139 -0.0551  0.0761
   27DOPE   O11 3368   6.664   0.010  15.373  0.3786 -0.1427  0.3305
   27DOPE   O12 3369   6.864   0.143  15.449  0.7367  0.2380 -0.3472
   27DOPE    C1 3370   6.642   0.113  15.276 -0.9163  0.0923  0.7197
   27DOPE    HA 3371   6.685   0.213  15.301  0.1806 -0.8352  2.8723
   27DOPE    HB 3372   6.533   0.134  15.276 -0.7764  0.8614  0.5757
   27DOPE    C2 3373   6.677   0.070  15.129 -0.0238  0.2001 -0.5252
   27DOPE    HS 3374   6.585   0.086  15.068 -2.2797 -1.0788  2.3330
   27DOPE   O21 3375   6.728  -0.067  15.109 -0.6472 -0.7195  0.0589
   27DOPE   C21 3376   6.641  -0.162  15.147  0.3278 -0.3288  0.3417
   27DOPE   O22 3377   6.522  -0.142  15.150 -0.0307  0.4796  0.0933
   27DOPE   C22 3378   6.714  -0.298  15.152  0.1508 -0.9252  0.1660
   27DOPE   H2R 3379   6.816  -0.277  15.114 -0.7495  0.3166 -1.7060
   27DOPE   H2S 3380   6.659  -0.378  15.096 -1.2144 -0.3553  0.6427
   27DOPE    C3 3381   6.788   0.168  15.073  0.5492 -0.1685 -0.5282
   27DOPE    HX 3382   6.803   0.127  14.971 -0.6764 -5.1377  1.0085
   27DOPE    HY 3383   6.876   0.156  15.140 -0.3354  0.6186  0.8239
   27DOPE   O31 3384   6.741   0.303  15.068 -0.2631  0.1793  0.3971
   27DOPE   C31 3385   6.836   0.398  15.088  0.1277  0.1232  0.0468
   27DOPE   O32 3386   6.952   0.371  15.109  0.5782  0.3016  0.0428
   27DOPE   C32 3387   6.779   0.543  15.062  0.7244  0.1342  0.1206
   27DOPE   H2X 3388   6.686   0.537  15.002  0.2934  0.9061  0.6790
   27DOPE   H2Y 3389   6.741   0.576  15.162 -0.7825 -0.4435 -0.2323
   27DOPE   C23 3390   6.728  -0.359  15.302 -0.1377 -0.2218 -0.3140
   27DOPE   H3R 3391   6.628  -0.399  15.331 -0.0984 -0.2516 -0.2196
   27DOPE   H3S 3392   6.753  -0.278  15.374  1.7097 -0.3850 -0.7281
   27DOPE   C24 3393   6.838  -0.461  15.305  0.3267  0.2612 -0.1655
   27DOPE   H4R 3394   6.851  -0.498  15.201 -0.0528  1.1743 -0.5384
   27DOPE   H4S 3395   6.824  -0.534  15.388  0.5875  3.1144  2.5706
   27DOPE   C25 3396   6.972  -0.399  15.346  0.9209 -0.6836 -0.1526
   27DOPE   H5R 3397   6.969  -0.372  15.454  2.6274  0.7544 -0.4203
   27DOPE   H5S 3398   6.981  -0.300  15.297  1.1903 -1.0615 -0.8866
   27DOPE   C26 3399   7.092  -0.483  15.306  0.0699  0.1090 -0.3128
   27DOPE   H6R 3400   7.114  -0.489  15.197  2.9898  0.6422  0.1544
   27DOPE   H6S 3401   7.088  -0.589  15.340  0.0341  0.3747  0.5201
   27DOPE   C27 3402   7.218  -0.428  15.372 -0.1786 -0.2915 -0.6131
   27DOPE   H7R 3403   7.300  -0.502  15.363  0.6409  0.6412 -0.9032
   27DOPE   H7S 3404   7.196  -0.418  15.480  0.1008 -1.3174 -0.4576
   27DOPE   C28 3405   7.259  -0.288  15.331 -0.2106  0.8184  0.5538
   27DOPE   H8R 3406   7.176  -0.216  15.350  1.9256  3.6807 -0.3638
   27DOPE   H8S 3407   7.262  -0.288  15.220  0.6322 -1.4383  0.5344
   27DOPE   C29 3408   7.393  -0.250  15.395  0.0415 -0.1351 -0.0639
   27DOPE   H9R 3409   7.383  -0.207  15.496 -0.4479  0.0707 -0.1952
   27DOPE  C210 3410   7.516  -0.236  15.334 -0.3249 -0.1282 -0.2920
   27DOPE  H10R 3411   7.607  -0.218  15.394 -0.2358  2.6971 -1.1097
   27DOPE  C211 3412   7.561  -0.266  15.189  0.3395 -0.1184  0.3356
   27DOPE  H11R 3413   7.636  -0.192  15.153 -0.5076 -0.0169 -1.3129
   27DOPE  H11S 3414   7.480  -0.243  15.117  0.1618  0.0748  0.5958
   27DOPE  C212 3415   7.616  -0.407  15.163  0.0992 -0.9013  0.6539
   27DOPE  H12R 3416   7.559  -0.483  15.221  0.8808 -1.7616  0.3127
   27DOPE  H12S 3417   7.720  -0.410  15.200 -0.0626 -1.3196  1.0789
   27DOPE  C213 3418   7.612  -0.465  15.020 -0.2696  0.6936 -0.2029
   27DOPE  H13R 3419   7.650  -0.567  15.042  1.7535  1.1726 -1.2810
   27DOPE  H13S 3420   7.689  -0.426  14.950  0.2286 -2.5557 -1.6616
   27DOPE  C214 3421   7.473  -0.473  14.960  0.0455  0.0435 -0.4409
   27DOPE  H14R 3422   7.446  -0.379  14.907 -0.7990  1.1348  1.8117
   27DOPE  H14S 3423   7.400  -0.488  15.042  1.3812 -1.7106  0.4871
   27DOPE  C215 3424   7.458  -0.587  14.861 -0.3603 -0.0311 -0.6077
   27DOPE  H15R 3425   7.350  -0.590  14.834 -0.2524  1.5580 -1.3699
   27DOPE  H15S 3426   7.482  -0.676  14.922 -3.4761 -1.3268 -1.0732
   27DOPE  C216 3427   7.533  -0.564  14.727  0.0473 -0.2074  1.1406
   27DOPE  H16R 3428   7.642  -0.571  14.747  0.1932  0.6221  0.7153
   27DOPE  H16S 3429   7.519  -0.460  14.688  2.1616 -0.2171  0.2319
   27DOPE  C217 3430   7.509  -0.657  14.607 -0.4641 -0.0982 -0.2626
   27DOPE  H17R 3431   7.401  -0.654  14.579  0.0065  2.0530 -2.1441
   27DOPE  H17S 3432   7.536  -0.763  14.629  1.6808  0.5015  0.1978
   27DOPE  C218 3433   7.594  -0.627  14.484  0.3633  0.3407 -0.1797
   27DOPE  H18R 3434   7.571  -0.526  14.442 -3.2739 -0.7678 -1.1394
   27DOPE  H18S 3435   7.575  -0.702  14.405  0.8246 -0.2485  0.2620
   27DOPE  H18T 3436   7.703  -0.633  14.507  0.4724  0.3657 -0.6806
   27DOPE   C33 3437   6.877   0.647  15.010 -0.4114 -0.3085  0.2309
   27DOPE   H3X 3438   6.820   0.742  14.996  0.8361  0.6808  1.5722
   27DOPE   H3Y 3439   6.926   0.608  14.918  1.2233  0.5203  0.7132
   27DOPE   C34 3440   6.993   0.682  15.110  0.2937 -0.2682  0.1995
   27DOPE   H4X 3441   6.947   0.717  15.205 -1.4753  0.2924 -0.8163
   27DOPE   H4Y 3442   7.060   0.593  15.116  0.1525 -0.5545 -1.6506
   27DOPE   C35 3443   7.079   0.808  15.060 -0.5044  0.0636 -0.0926
   27DOPE   H5X 3444   7.138   0.849  15.144  0.1425  1.0596 -1.0130
   27DOPE   H5Y 3445   7.007   0.877  15.012 -0.8745 -0.2810 -0.0455
   27DOPE   C36 3446   7.195   0.787  14.956 -0.8822  0.6046 -0.1520
   27DOPE   H6X 3447   7.261   0.876  14.948  1.4713 -0.9211  0.9040
   27DOPE   H6Y 3448   7.157   0.753  14.857  0.3563 -2.6867  0.3576
   27DOPE   C37 3449   7.288   0.670  14.992  0.3905  0.2939 -0.3255
   27DOPE   H7X 3450   7.328   0.683  15.095  1.2497  1.6285 -0.8115
   27DOPE   H7Y 3451   7.231   0.575  14.992  0.2947  0.3208  1.1576
   27DOPE   C38 3452   7.408   0.668  14.890  0.0728  0.4171  0.5309
   27DOPE   H8X 3453   7.463   0.765  14.894  1.1242 -0.2074  3.3154
   27DOPE   H8Y 3454   7.364   0.660  14.788 -2.0991 -0.7347  1.4899
   27DOPE   C39 3455   7.514   0.559  14.922 -0.1120 -0.0175 -0.6006
   27DOPE   H9X 3456   7.561   0.576  15.020  0.5930  2.1325 -1.2444
   27DOPE  C310 3457   7.546   0.454  14.846 -0.3186  0.5472  0.6473
   27DOPE  H10X 3458   7.637   0.405  14.881 -0.7948  0.4107  1.7296
   27DOPE  C311 3459   7.502   0.426  14.704 -0.1879  0.4107  0.3456
   27DOPE  H11X 3460   7.430   0.342  14.711  0.0719  0.2145  0.7202
   27DOPE  H11Y 3461   7.462   0.510  14.644  1.5186 -0.1699 -1.7322
   27DOPE  C312 3462   7.624   0.382  14.621 -0.2393 -0.0084  0.7017
   27DOPE  H12X 3463   7.713   0.354  14.682  1.1094  2.5407  0.0526
   27DOPE  H12Y 3464   7.654   0.476  14.569  0.0686 -0.0028  0.8907
   27DOPE  C313 3465   7.604   0.274  14.517  0.0912 -0.0689 -0.0122
   27DOPE  H13X 3466   7.561   0.178  14.554 -1.6757 -0.1472 -2.0944
   27DOPE  H13Y 3467   7.538   0.314  14.437  2.7691  0.3894 -2.1396
   27DOPE  C314 3468   7.732   0.266  14.431 -0.1321  0.7256 -0.1568
   27DOPE  H14X 3469   7.812   0.221  14.493 -0.6606 -0.8851 -0.5955
   27DOPE  H14Y 3470   7.756   0.365  14.385 -0.2993  1.7615  1.8497
   27DOPE  C315 3471   7.723   0.150  14.325  0.2269 -0.7068  0.5559
   27DOPE  H15X 3472   7.613   0.147  14.307 -0.1562 -0.1147  2.4897
   27DOPE  H15Y 3473   7.762   0.054  14.364 -2.0384 -2.0068 -0.2030
   27DOPE  C316 3474   7.799   0.191  14.196 -0.4617 -0.1180  0.5143
   27DOPE  H16X 3475   7.773   0.285  14.142  0.5051 -1.6482 -2.9138
   27DOPE  H16Y 3476   7.782   0.119  14.113  0.8557  3.3455 -3.1023
   27DOPE  C317 3477   7.951   0.208  14.214  0.4802 -0.4083 -0.4079
   27DOPE  H17X 3478   8.000   0.270  14.136 -0.7560 -0.5939 -1.3479
   27DOPE  H17Y 3479   7.976   0.268  14.305  0.3925  0.3552 -0.8782
   27DOPE  C318 3480   8.030   0.080  14.227  0.1385  0.0653 -0.4510
   27DOPE  H18X 3481   8.046   0.037  14.126 -0.4160 -2.1160  0.3328
   27DOPE  H18Y 3482   8.125   0.112  14.275 -1.2333  1.3172  1.6215
   27DOPE  H18Z 3483   7.986   0.011  14.303 -0.1424  2.8612  2.0982
   28DOPE     N 3484   8.255   7.574  16.306  0.3669 -0.1626 -0.0916
   28DOPE   HN1 3485   8.228   7.481  16.343 -1.0882  0.8115  1.4110
   28DOPE   HN2 3486   8.186   7.644  16.341 -1.1744 -2.0036  0.7110
   28DOPE   HN3 3487   8.255   7.584  16.202  0.2663 -3.2071 -0.4560
   28DOPE   C12 3488   8.391   7.600  16.370  0.6315 -0.4410  0.2688
   28DOPE  H12A 3489   8.392   7.566  16.476  1.8604 -3.1650 -0.5333
   28DOPE  H12B 3490   8.387   7.710  16.387 -0.8145 -0.4660  0.2275
   28DOPE   C11 3491   8.515   7.558  16.287 -0.2003 -0.2272  0.2686
   28DOPE  H11A 3492   8.601   7.620  16.319 -0.4500 -0.3355  1.1826
   28DOPE  H11B 3493   8.489   7.571  16.180  0.1020 -1.0226  0.0902
   28DOPE     P 3494   8.479   7.313  16.202  0.0040 -0.4291 -0.0413
   28DOPE   O13 3495   8.333   7.314  16.208  0.1081 -0.2661 -0.6291
   28DOPE   O14 3496   8.545   7.181  16.228  0.1902 -0.5323 -0.7565
   28DOPE   O11 3497   8.522   7.364  16.067  0.2982 -0.3092  0.3592
   28DOPE   O12 3498   8.532   7.422  16.311  0.1959  0.2510 -0.2936
   28DOPE    C1 3499   8.642   7.329  15.995 -0.6736 -0.1360 -0.6507
   28DOPE    HA 3500   8.708   7.265  16.057 -1.3548 -0.8543 -0.6451
   28DOPE    HB 3501   8.694   7.424  15.968  0.2031  0.2510  2.1385
   28DOPE    C2 3502   8.604   7.254  15.864  0.6731 -0.0742  0.0825
   28DOPE    HS 3503   8.692   7.244  15.797 -0.7554  0.1500 -1.9318
   28DOPE   O21 3504   8.505   7.330  15.789 -0.2705 -0.1239 -0.0354
   28DOPE   C21 3505   8.548   7.391  15.683 -0.4277  0.6419  0.1523
   28DOPE   O22 3506   8.662   7.415  15.648 -0.0522 -0.2596 -0.1518
   28DOPE   C22 3507   8.423   7.444  15.604 -0.0616  0.0458  0.0396
   28DOPE   H2R 3508   8.433   7.554  15.620 -1.3858  0.3815 -1.2028
   28DOPE   H2S 3509   8.333   7.404  15.655  0.2981  0.7581  1.2730
   28DOPE    C3 3510   8.555   7.111  15.888  0.5042 -0.2366 -0.4085
   28DOPE    HX 3511   8.463   7.121  15.949 -0.2940  0.4250 -1.6837
   28DOPE    HY 3512   8.635   7.053  15.939  0.6883 -0.8211 -1.3254
   28DOPE   O31 3513   8.510   7.034  15.771 -0.1382 -0.4441  0.3699
   28DOPE   C31 3514   8.611   7.003  15.689 -0.8554 -0.4732  0.3086
   28DOPE   O32 3515   8.724   7.047  15.692 -0.2473 -0.6478  0.4605
   28DOPE   C32 3516   8.567   6.897  15.577  0.4041 -0.3522 -0.3169
   28DOPE   H2X 3517   8.535   6.812  15.641  2.5683 -1.2541 -0.3598
   28DOPE   H2Y 3518   8.471   6.932  15.533 -0.9320 -1.0161  1.8793
   28DOPE   C23 3519   8.416   7.406  15.459  0.2453 -0.0914 -0.0317
   28DOPE   H3R 3520   8.517   7.401  15.413 -0.1435 -1.0884 -0.8258
   28DOPE   H3S 3521   8.353   7.481  15.406 -0.3062 -0.3929  0.1818
   28DOPE   C24 3522   8.353   7.272  15.431 -0.4091 -0.3238  0.1991
   28DOPE   H4R 3523   8.254   7.261  15.480  0.0153 -1.4068  0.8697
   28DOPE   H4S 3524   8.427   7.197  15.465 -1.1152 -1.3072 -0.3461
   28DOPE   C25 3525   8.337   7.251  15.277 -0.2797 -0.7697  0.3910
   28DOPE   H5R 3526   8.438   7.221  15.241 -0.2439  0.8952 -1.0078
   28DOPE   H5S 3527   8.307   7.343  15.223  1.7235 -0.2766  0.0298
   28DOPE   C26 3528   8.252   7.132  15.244  0.7048  1.3630 -0.1296
   28DOPE   H6R 3529   8.148   7.149  15.280  0.8118  3.3045 -0.6189
   28DOPE   H6S 3530   8.286   7.041  15.299 -0.1563 -1.3387 -3.6965
   28DOPE   C27 3531   8.232   7.080  15.095 -1.1252  0.0773  0.1691
   28DOPE   H7R 3532   8.153   7.145  15.053 -1.8873  0.8454  2.6389
   28DOPE   H7S 3533   8.193   6.977  15.103 -0.6887  0.0393  2.6279
   28DOPE   C28 3534   8.358   7.092  15.008 -0.3945  0.3775  0.5511
   28DOPE   H8R 3535   8.401   7.193  15.023  3.4642 -1.3514  2.5037
   28DOPE   H8S 3536   8.324   7.086  14.902 -0.9151  0.5784  0.6993
   28DOPE   C29 3537   8.476   7.002  15.033 -0.1229  0.6318 -0.4361
   28DOPE   H9R 3538   8.507   7.008  15.139 -1.9846 -1.8779  0.3436
   28DOPE  C210 3539   8.536   6.914  14.950 -0.0777  0.1069  0.4163
   28DOPE  H10R 3540   8.625   6.863  14.991 -1.3579 -0.8639  2.1194
   28DOPE  C211 3541   8.509   6.880  14.808 -0.2420 -0.0065 -0.4022
   28DOPE  H11R 3542   8.440   6.949  14.756 -1.7850 -0.7577  0.5503
   28DOPE  H11S 3543   8.473   6.775  14.797  1.3914 -0.4090 -2.3754
   28DOPE  C212 3544   8.640   6.876  14.733 -0.1777  0.6751 -0.2019
   28DOPE  H12R 3545   8.700   6.796  14.780  0.6413  2.2855  1.6137
   28DOPE  H12S 3546   8.690   6.975  14.725 -0.9158  1.0897  0.0997
   28DOPE  C213 3547   8.628   6.833  14.583 -0.0630  0.1786 -0.8069
   28DOPE  H13R 3548   8.728   6.842  14.536  1.8015  0.0860  2.7858
   28DOPE  H13S 3549   8.555   6.896  14.528 -0.8876 -1.0320 -1.1415
   28DOPE  C214 3550   8.576   6.687  14.578 -0.4801  0.1027 -0.8812
   28DOPE  H14R 3551   8.496   6.672  14.653 -1.5068  1.5139 -1.6559
   28DOPE  H14S 3552   8.657   6.621  14.618  0.3223  1.1811 -0.6725
   28DOPE  C215 3553   8.523   6.653  14.437 -0.1772 -0.3289  0.5310
   28DOPE  H15R 3554   8.607   6.687  14.374  1.8494 -1.9456  2.2048
   28DOPE  H15S 3555   8.428   6.698  14.402  0.6159  0.4143 -0.7230
   28DOPE  C216 3556   8.520   6.503  14.424  0.0918 -0.0082 -0.1229
   28DOPE  H16R 3557   8.454   6.455  14.500 -1.9856  0.5418 -1.5040
   28DOPE  H16S 3558   8.624   6.470  14.442  0.5691  0.6272 -1.6194
   28DOPE  C217 3559   8.447   6.462  14.297  0.1017 -0.1909 -0.1380
   28DOPE  H17R 3560   8.338   6.484  14.296  0.3183  0.9774 -1.0846
   28DOPE  H17S 3561   8.450   6.351  14.287  0.8766 -0.1283 -0.7015
   28DOPE  C218 3562   8.511   6.521  14.176  0.2193 -0.0729 -0.4049
   28DOPE  H18R 3563   8.599   6.462  14.142  0.8306 -2.4369  4.4310
   28DOPE  H18S 3564   8.537   6.627  14.192  0.1924 -0.0401 -0.5707
   28DOPE  H18T 3565   8.430   6.521  14.099 -0.8102 -1.5298  0.6033
   28DOPE   C33 3566   8.676   6.857  15.475 -0.3471  0.0753  0.2465
   28DOPE   H3X 3567   8.646   6.759  15.433 -0.7898  0.5455 -0.5863
   28DOPE   H3Y 3568   8.770   6.830  15.526 -0.2977 -0.1260  0.0510
   28DOPE   C34 3569   8.700   6.944  15.353 -0.1599 -0.3504 -0.6164
   28DOPE   H4X 3570   8.603   6.957  15.302 -0.2880  0.1176 -0.2641
   28DOPE   H4Y 3571   8.734   7.045  15.387 -0.7722 -0.7681  1.3585
   28DOPE   C35 3572   8.803   6.889  15.249 -0.9208  0.1392  0.0289
   28DOPE   H5X 3573   8.791   6.957  15.162  1.0035  0.0100 -0.4025
   28DOPE   H5Y 3574   8.774   6.786  15.220 -1.2390 -0.3642  2.0248
   28DOPE   C36 3575   8.953   6.901  15.300 -0.4604 -0.3010  0.5925
   28DOPE   H6X 3576   8.974   6.841  15.391  0.9004 -0.1021  0.4220
   28DOPE   H6Y 3577   8.968   7.009  15.325  1.2366  0.2158 -2.3197
   28DOPE   C37 3578   9.047   6.867  15.190  0.0146 -0.5421  0.3878
   28DOPE   H7X 3579   9.042   6.763  15.151 -0.7195 -0.8427  1.2650
   28DOPE   H7Y 3580   9.027   6.932  15.102  0.6115  0.5729  1.0630
   28DOPE   C38 3581   9.192   6.882  15.224 -0.0879 -0.7082 -0.3396
   28DOPE   H8X 3582   9.216   6.982  15.265 -0.5103 -0.7788  0.0813
   28DOPE   H8Y 3583   9.236   6.890  15.122 -1.4025 -2.2240 -1.0785
   28DOPE   C39 3584   9.241   6.760  15.301  0.8265  0.1717  0.5734
   28DOPE   H9X 3585   9.168   6.731  15.378 -0.2899  0.5118 -0.3204
   28DOPE  C310 3586   9.348   6.687  15.281 -0.4046  0.2246 -0.9919
   28DOPE  H10X 3587   9.358   6.597  15.344 -1.0110  0.3232 -0.7496
   28DOPE  C311 3588   9.457   6.716  15.177 -0.8367 -0.8550 -0.3523
   28DOPE  H11X 3589   9.464   6.824  15.148  0.0669 -1.2737 -1.8352
   28DOPE  H11Y 3590   9.552   6.706  15.234 -1.8294 -0.8640  1.3558
   28DOPE  C312 3591   9.442   6.642  15.047 -0.4465 -1.1574  0.3744
   28DOPE  H12X 3592   9.428   6.534  15.067 -2.1394 -0.9881  0.2835
   28DOPE  H12Y 3593   9.532   6.657  14.983 -0.3858 -2.0444  0.2356
   28DOPE  C313 3594   9.323   6.689  14.964 -0.0673  0.6656 -0.2786
   28DOPE  H13X 3595   9.230   6.649  15.009  0.8624 -1.3487 -0.0008
   28DOPE  H13Y 3596   9.316   6.799  14.957 -1.1464  0.5605 -1.1344
   28DOPE  C314 3597   9.326   6.642  14.815  0.2568 -0.5544 -0.1096
   28DOPE  H14X 3598   9.333   6.532  14.829 -1.1005 -0.4842  1.4109
   28DOPE  H14Y 3599   9.418   6.679  14.765 -0.0940 -0.3475 -0.6139
   28DOPE  C315 3600   9.193   6.674  14.739  0.3130  0.4060 -0.7371
   28DOPE  H15X 3601   9.212   6.636  14.636 -0.1224  0.6372 -0.9086
   28DOPE  H15Y 3602   9.163   6.780  14.722 -0.0904  0.2646 -0.9282
   28DOPE  C316 3603   9.065   6.616  14.802 -0.4256 -0.0676 -0.3032
   28DOPE  H16X 3604   9.047   6.674  14.896 -1.2155 -1.8997  0.7227
   28DOPE  H16Y 3605   9.083   6.511  14.834 -2.5416 -0.5955 -0.7118
   28DOPE  C317 3606   8.937   6.630  14.719 -0.2224  0.2986 -0.0384
   28DOPE  H17X 3607   8.859   6.589  14.786  1.4672 -1.0156  1.2302
   28DOPE  H17Y 3608   8.917   6.738  14.706  0.5006  0.4104 -0.2547
   28DOPE  C318 3609   8.943   6.560  14.587  0.5294  0.0557  0.1740
   28DOPE  H18X 3610   8.847   6.570  14.533  0.3569 -0.3045  0.4101
   28DOPE  H18Y 3611   9.012   6.605  14.512  3.0250 -3.0059  0.4646
   28DOPE  H18Z 3612   8.972   6.453  14.589 -0.3872 -0.2515 -1.4185
   29DOPE     N 3613   1.469   0.803  15.610  0.1841  0.7539 -0.3762
   29DOPE   HN1 3614   1.566   0.786  15.643 -0.8206 -1.4050  1.8510
   29DOPE   HN2 3615   1.454   0.894  15.564  0.3511  0.2381 -1.4687
   29DOPE   HN3 3616   1.408   0.801  15.695  0.3741  1.6176 -0.2113
   29DOPE   C12 3617   1.422   0.691  15.522  0.1765  0.0255 -0.1522
   29DOPE  H12A 3618   1.425   0.592  15.572 -1.2260 -0.0514 -0.1927
   29DOPE  H12B 3619   1.493   0.685  15.437  0.1064 -3.1416 -0.0796
   29DOPE   C11 3620   1.280   0.717  15.468  0.1130  0.1839 -0.5112
   29DOPE  H11A 3621   1.211   0.696  15.552 -0.2561 -0.0025 -0.8532
   29DOPE  H11B 3622   1.253   0.648  15.385  2.8813 -1.6891  0.0267
   29DOPE     P 3623   1.124   0.912  15.407 -0.1307  0.1238  0.2293
   29DOPE   O13 3624   1.135   1.028  15.318 -0.2374 -0.4384  0.2753
   29DOPE   O14 3625   1.053   0.932  15.531  0.0209 -0.1863 -0.6699
   29DOPE   O11 3626   1.043   0.797  15.331  0.4213 -0.3507  0.2372
   29DOPE   O12 3627   1.272   0.855  15.432 -0.4067  0.0809  0.2493
   29DOPE    C1 3628   1.069   0.739  15.204 -0.0792 -0.5305 -0.1032
   29DOPE    HA 3629   1.019   0.640  15.196  0.0089 -0.4693 -1.5887
   29DOPE    HB 3630   1.174   0.712  15.184  0.3656  1.0519 -0.0274
   29DOPE    C2 3631   1.000   0.828  15.099 -0.4871 -0.5860 -0.0804
   29DOPE    HS 3632   1.025   0.933  15.126 -1.5824 -0.3736  0.1488
   29DOPE   O21 3633   0.857   0.812  15.118 -0.0498  0.6063  0.1806
   29DOPE   C21 3634   0.777   0.920  15.089  0.1564  0.1030 -1.1039
   29DOPE   O22 3635   0.810   1.033  15.062  0.3141 -0.2451  0.1016
   29DOPE   C22 3636   0.633   0.872  15.092  0.7044 -0.7537  0.8794
   29DOPE   H2R 3637   0.595   0.862  15.196 -0.4425  0.6283  0.6192
   29DOPE   H2S 3638   0.635   0.771  15.047 -1.1604 -1.0281  1.3673
   29DOPE    C3 3639   1.036   0.779  14.954 -0.1453  0.7597 -0.0513
   29DOPE    HX 3640   1.009   0.672  14.938  1.5288  0.1102  1.2781
   29DOPE    HY 3641   1.146   0.787  14.960 -0.2886  3.2945  0.2707
   29DOPE   O31 3642   0.983   0.860  14.848  0.1322 -0.3446  0.7332
   29DOPE   C31 3643   1.040   0.980  14.820 -0.1154 -0.7841 -0.6443
   29DOPE   O32 3644   1.145   1.016  14.871  0.2036  0.2626 -0.1437
   29DOPE   C32 3645   0.954   1.056  14.727  0.5783  0.9969 -0.4993
   29DOPE   H2X 3646   0.851   1.015  14.736  0.7850  0.1507 -1.7560
   29DOPE   H2Y 3647   0.964   1.164  14.752 -0.3355  0.9822 -0.0323
   29DOPE   C23 3648   0.540   0.976  15.022 -0.6185  0.2778 -0.1723
   29DOPE   H3R 3649   0.602   1.026  14.945 -2.1805  1.7830 -0.5254
   29DOPE   H3S 3650   0.502   1.044  15.101 -0.7284 -1.1268  1.0167
   29DOPE   C24 3651   0.419   0.908  14.948  0.0584 -0.4241  0.2368
   29DOPE   H4R 3652   0.345   0.986  14.922  2.3686  1.1602 -2.0360
   29DOPE   H4S 3653   0.387   0.814  14.998 -0.7870 -0.0478  0.4257
   29DOPE   C25 3654   0.456   0.836  14.817 -0.5283 -0.7710  0.8856
   29DOPE   H5R 3655   0.524   0.751  14.840 -0.6150 -0.4697  2.3567
   29DOPE   H5S 3656   0.508   0.904  14.745 -0.8685 -1.0573  0.3615
   29DOPE   C26 3657   0.334   0.766  14.748 -0.2875 -0.0490  0.0630
   29DOPE   H6R 3658   0.256   0.841  14.771  0.8288  0.8301  1.0813
   29DOPE   H6S 3659   0.313   0.665  14.789  1.1270 -0.4199 -0.0595
   29DOPE   C27 3660   0.359   0.750  14.593 -0.4712 -0.1737  0.2227
   29DOPE   H7R 3661   0.441   0.675  14.587 -0.5039 -0.1120 -1.2639
   29DOPE   H7S 3662   0.390   0.846  14.549 -2.3992 -0.0578 -1.0054
   29DOPE   C28 3663   0.244   0.699  14.508  0.0820  0.8657  0.0810
   29DOPE   H8R 3664   0.244   0.588  14.518 -0.6991  1.0784  3.8716
   29DOPE   H8S 3665   0.267   0.716  14.401 -0.8330 -0.5731 -0.3761
   29DOPE   C29 3666   0.112   0.756  14.542 -0.1505 -0.6572 -0.3297
   29DOPE   H9R 3667   0.076   0.759  14.646  0.8517 -0.4928  0.0213
   29DOPE  C210 3668   0.018   0.820  14.463 -0.0628  0.2458 -0.0516
   29DOPE  H10R 3669  -0.072   0.855  14.515 -1.0908 -1.2799 -0.7172
   29DOPE  C211 3670   0.021   0.825  14.315  0.0699 -0.2775  0.1777
   29DOPE  H11R 3671  -0.068   0.771  14.275  0.1657  0.2085 -0.7192
   29DOPE  H11S 3672   0.108   0.768  14.276  0.9962 -0.3453  2.2365
   29DOPE  C212 3673   0.017   0.967  14.254  0.1183 -0.0053 -0.6701
   29DOPE  H12R 3674   0.117   1.002  14.288 -0.2000  1.0342 -0.7646
   29DOPE  H12S 3675  -0.061   1.034  14.296 -1.1997 -2.8669  1.8487
   29DOPE  C213 3676   0.014   0.977  14.101 -0.6156  0.2124  0.3972
   29DOPE  H13R 3677  -0.085   0.935  14.074 -0.5432 -1.0493  1.9715
   29DOPE  H13S 3678   0.097   0.912  14.067 -0.3705  1.4752 -1.5284
   29DOPE  C214 3679   0.040   1.119  14.051 -0.0699 -0.0556 -0.3475
   29DOPE  H14R 3680   0.124   1.117  13.978 -0.1503 -1.7639 -0.4392
   29DOPE  H14S 3681   0.074   1.179  14.138  1.2999  0.1861 -1.0213
   29DOPE  C215 3682  -0.090   1.182  13.990 -0.3741 -0.2326  0.0283
   29DOPE  H15R 3683  -0.063   1.276  13.938  1.5488 -0.6713  0.1645
   29DOPE  H15S 3684  -0.165   1.216  14.065  0.1627 -0.8315  0.8615
   29DOPE  C216 3685  -0.162   1.105  13.874 -0.4982 -0.8282  0.1077
   29DOPE  H16R 3686  -0.243   1.176  13.846  1.6597  1.2518 -1.2340
   29DOPE  H16S 3687  -0.192   1.009  13.922  0.1858 -0.0622  2.1805
   29DOPE  C217 3688  -0.074   1.076  13.750 -0.4550  0.0883  0.4327
   29DOPE  H17R 3689   0.020   1.029  13.786 -1.9741 -1.4181  2.7051
   29DOPE  H17S 3690  -0.058   1.168  13.690 -0.6746  0.5733  1.1032
   29DOPE  C218 3691  -0.131   0.971  13.657 -0.2022 -0.4520  0.4226
   29DOPE  H18R 3692  -0.234   1.004  13.629  0.5329  1.8106  0.1276
   29DOPE  H18S 3693  -0.140   0.873  13.709 -0.1662 -0.3961  0.5364
   29DOPE  H18T 3694  -0.071   0.965  13.565 -0.8757 -0.4722 -0.0224
   29DOPE   C33 3695   1.016   1.039  14.585 -0.3408 -0.2850 -0.0828
   29DOPE   H3X 3696   1.029   0.933  14.553 -1.4855  0.0268 -1.6964
   29DOPE   H3Y 3697   1.119   1.080  14.587 -1.4075  2.6811  2.6848
   29DOPE   C34 3698   0.943   1.126  14.481 -0.6515  0.2486  0.2019
   29DOPE   H4X 3699   0.838   1.096  14.462 -0.7598  1.9484 -2.3906
   29DOPE   H4Y 3700   0.930   1.231  14.515 -1.1411  1.7627 -4.0360
   29DOPE   C35 3701   1.023   1.125  14.345  0.3251 -0.1373 -0.4284
   29DOPE   H5X 3702   1.132   1.134  14.361  0.2574  0.2597 -0.2074
   29DOPE   H5Y 3703   0.998   1.209  14.277 -1.9935  1.7276  2.5340
   29DOPE   C36 3704   1.001   0.998  14.259 -0.0150 -0.2749  0.2598
   29DOPE   H6X 3705   0.897   0.988  14.220  0.0926 -0.0628 -0.0910
   29DOPE   H6Y 3706   1.017   0.913  14.328  1.1251  1.1971  1.8838
   29DOPE   C37 3707   1.085   1.001  14.135  0.3803  0.3941  0.1018
   29DOPE   H7X 3708   1.064   1.088  14.070  1.3598  0.3094 -0.3568
   29DOPE   H7Y 3709   1.187   1.028  14.171  0.6856  0.7865 -1.0056
   29DOPE   C38 3710   1.077   0.867  14.054  0.2233  0.5403 -0.0814
   29DOPE   H8X 3711   0.975   0.822  14.062  0.1906  0.7760  0.9541
   29DOPE   H8Y 3712   1.143   0.802  14.115 -0.3226 -0.1111 -0.1680
   29DOPE   C39 3713   1.126   0.889  13.916 -0.2280  0.6037 -0.1497
   29DOPE   H9X 3714   1.123   0.990  13.873  0.1552  0.2244 -1.0794
   29DOPE  C310 3715   1.196   0.802  13.850 -0.1369 -0.4875  0.4781
   29DOPE  H10X 3716   1.221   0.826  13.746 -3.1444  1.6156  0.0932
   29DOPE  C311 3717   1.253   0.671  13.894  0.1767  0.5699 -0.6092
   29DOPE  H11X 3718   1.349   0.647  13.843  0.5938 -0.2536  0.5287
   29DOPE  H11Y 3719   1.265   0.661  14.004 -3.3703 -1.7744 -0.2857
   29DOPE  C312 3720   1.136   0.577  13.863 -0.5005  0.1439 -0.3611
   29DOPE  H12X 3721   1.043   0.631  13.890 -0.2407  1.3144 -1.6628
   29DOPE  H12Y 3722   1.133   0.487  13.927 -0.4986  0.7296  0.4693
   29DOPE  C313 3723   1.121   0.537  13.717  0.4644 -0.2172  0.3802
   29DOPE  H13X 3724   1.068   0.617  13.662 -1.4979  0.0393  2.4584
   29DOPE  H13Y 3725   1.227   0.530  13.685  0.2012 -1.0913 -0.3381
   29DOPE  C314 3726   1.059   0.406  13.693 -0.0678 -0.0324 -0.2864
   29DOPE  H14X 3727   0.955   0.413  13.733 -0.0333 -0.1689 -0.1732
   29DOPE  H14Y 3728   1.103   0.323  13.752 -2.5439 -0.6081  0.9050
   29DOPE  C315 3729   1.058   0.357  13.545 -0.3020  0.3066  0.6936
   29DOPE  H15X 3730   1.162   0.328  13.517  0.3139  1.9349  1.2046
   29DOPE  H15Y 3731   1.028   0.443  13.482 -0.0889 -0.1216 -0.0068
   29DOPE  C316 3732   0.975   0.229  13.511  0.2289 -0.3299 -0.3757
   29DOPE  H16X 3733   1.006   0.190  13.412  0.9449  0.1490 -0.3544
   29DOPE  H16Y 3734   0.870   0.264  13.510 -0.2149 -1.5787  0.6670
   29DOPE  C317 3735   0.991   0.114  13.617 -0.4320  0.7439  0.8778
   29DOPE  H17X 3736   0.943   0.163  13.704 -2.0720  0.5714  0.0983
   29DOPE  H17Y 3737   0.920   0.035  13.586 -0.6784  1.9769 -2.1233
   29DOPE  C318 3738   1.139   0.063  13.635  0.2451 -0.2029  0.1009
   29DOPE  H18X 3739   1.197   0.145  13.682  0.7938 -1.8015  2.3951
   29DOPE  H18Y 3740   1.137  -0.022  13.707  0.1133 -0.1291  0.1843
   29DOPE  H18Z 3741   1.187   0.023  13.543  2.7225  1.7887  0.4034
   30DOPE     N 3742   0.798   0.756  15.480  0.5485  0.2131 -0.4612
   30DOPE   HN1 3743   0.738   0.707  15.411  2.5454 -1.0754 -1.3927
   30DOPE   HN2 3744   0.781   0.858  15.472  0.0002  0.1296 -0.3962
   30DOPE   HN3 3745   0.897   0.733  15.456  0.4759 -1.3624  0.5360
   30DOPE   C12 3746   0.760   0.702  15.616  0.1232  0.1205 -0.4147
   30DOPE  H12A 3747   0.835   0.743  15.687  0.8505  0.4429 -1.3442
   30DOPE  H12B 3748   0.762   0.591  15.612  1.6890  0.1138  0.1883
   30DOPE   C11 3749   0.620   0.746  15.679  0.4151  0.1129 -0.1746
   30DOPE  H11A 3750   0.614   0.857  15.673  0.9452  0.2050  0.7767
   30DOPE  H11B 3751   0.624   0.720  15.787  1.6045 -0.0301 -0.2307
   30DOPE     P 3752   0.439   0.554  15.668 -0.4351  0.0734 -0.1365
   30DOPE   O13 3753   0.330   0.585  15.768 -0.1199  0.1512  0.3663
   30DOPE   O14 3754   0.546   0.462  15.711 -0.2158 -0.0166 -0.8098
   30DOPE   O11 3755   0.386   0.491  15.535 -0.3997  0.4108  0.7897
   30DOPE   O12 3756   0.510   0.687  15.611 -0.2466  0.2467  0.8724
   30DOPE    C1 3757   0.243   0.522  15.517  0.2610  0.8125 -0.2102
   30DOPE    HA 3758   0.218   0.630  15.520 -0.8902  0.5795 -0.9804
   30DOPE    HB 3759   0.187   0.473  15.600 -0.4969  0.2989 -1.0128
   30DOPE    C2 3760   0.200   0.462  15.379  0.3280  0.3359 -0.0975
   30DOPE    HS 3761   0.096   0.424  15.373  1.2292 -2.6361  1.1745
   30DOPE   O21 3762   0.277   0.337  15.353 -0.1077  0.3947 -0.1799
   30DOPE   C21 3763   0.240   0.225  15.422  0.4664  0.2152  0.5043
   30DOPE   O22 3764   0.149   0.223  15.502  0.0960 -0.1924  0.4417
   30DOPE   C22 3765   0.335   0.101  15.390  0.2755 -0.2764  0.1050
   30DOPE   H2R 3766   0.437   0.113  15.431 -0.1480  0.0826  1.0983
   30DOPE   H2S 3767   0.354   0.096  15.281 -1.7121 -0.8487 -0.2654
   30DOPE    C3 3768   0.220   0.568  15.268 -1.2908  0.3682  0.3920
   30DOPE    HX 3769   0.307   0.630  15.300 -0.5940 -0.3378 -0.1059
   30DOPE    HY 3770   0.125   0.626  15.279 -3.8964 -3.1269 -1.5900
   30DOPE   O31 3771   0.221   0.512  15.135 -0.0051 -0.0126  0.6109
   30DOPE   C31 3772   0.344   0.475  15.090  0.8764 -0.1542  0.4507
   30DOPE   O32 3773   0.451   0.498  15.145  0.1462  0.1663 -0.4696
   30DOPE   C32 3774   0.319   0.388  14.966 -0.2260  0.2048 -0.4955
   30DOPE   H2X 3775   0.287   0.290  15.006 -0.2151  1.3443  2.5851
   30DOPE   H2Y 3776   0.232   0.426  14.909 -2.0714 -0.7745  1.5128
   30DOPE   C23 3777   0.280  -0.030  15.443 -0.4111 -0.3160 -0.0420
   30DOPE   H3R 3778   0.267  -0.019  15.553  0.0010  3.0106 -0.2123
   30DOPE   H3S 3779   0.353  -0.108  15.414  0.5044  0.8543 -0.9728
   30DOPE   C24 3780   0.148  -0.086  15.391  0.5258  0.1703  0.2139
   30DOPE   H4R 3781   0.067  -0.019  15.426  2.4781  3.0354 -0.3232
   30DOPE   H4S 3782   0.128  -0.181  15.443  2.2778  1.0971  2.8045
   30DOPE   C25 3783   0.140  -0.116  15.239 -0.1808 -0.1549 -0.1967
   30DOPE   H5R 3784   0.167  -0.027  15.180  2.3964 -0.0251  1.0404
   30DOPE   H5S 3785   0.041  -0.138  15.194 -0.8572  1.8901  0.2160
   30DOPE   C26 3786   0.234  -0.236  15.199  0.5442 -0.3409  0.5659
   30DOPE   H6R 3787   0.211  -0.326  15.259 -0.4692 -0.9815 -0.7400
   30DOPE   H6S 3788   0.338  -0.200  15.210  0.5414 -0.0783 -0.1872
   30DOPE   C27 3789   0.216  -0.278  15.053  0.1591 -0.0632  0.2327
   30DOPE   H7R 3790   0.212  -0.188  14.988 -0.7847 -2.5578 -3.4254
   30DOPE   H7S 3791   0.124  -0.340  15.042  0.4816 -0.4638 -0.2225
   30DOPE   C28 3792   0.329  -0.367  15.007  0.0853 -0.0199  0.2750
   30DOPE   H8R 3793   0.333  -0.466  15.058  1.4977 -0.6845 -1.0280
   30DOPE   H8S 3794   0.425  -0.324  15.041  0.0895 -1.5616  2.3862
   30DOPE   C29 3795   0.344  -0.385  14.860  0.3867 -0.1814  0.3975
   30DOPE   H9R 3796   0.364  -0.294  14.801  1.0423 -0.6196 -0.0728
   30DOPE  C210 3797   0.319  -0.502  14.796  0.1992  0.3135 -0.5833
   30DOPE  H10R 3798   0.315  -0.500  14.686  2.4243 -1.0694 -0.7316
   30DOPE  C211 3799   0.270  -0.633  14.859  0.7491  0.2037 -0.0061
   30DOPE  H11R 3800   0.215  -0.618  14.955 -0.0505 -0.6538 -0.3171
   30DOPE  H11S 3801   0.359  -0.699  14.858  0.9959  0.5160 -1.6622
   30DOPE  C212 3802   0.171  -0.706  14.763 -0.4535  0.0670 -0.1600
   30DOPE  H12R 3803   0.142  -0.806  14.804  0.1965 -0.1440 -0.2044
   30DOPE  H12S 3804   0.227  -0.728  14.670  1.0053 -0.2158  0.7456
   30DOPE  C213 3805   0.047  -0.622  14.729 -0.4020 -1.1192  0.0687
   30DOPE  H13R 3806   0.077  -0.518  14.704 -0.0761 -0.5446  2.6105
   30DOPE  H13S 3807  -0.021  -0.603  14.815 -1.5548 -2.0950 -0.5965
   30DOPE  C214 3808  -0.055  -0.679  14.619  0.7536  0.3818 -0.4486
   30DOPE  H14R 3809  -0.049  -0.790  14.622 -1.6788  0.2256  1.3695
   30DOPE  H14S 3810  -0.014  -0.661  14.517  1.5760 -0.0818 -0.2090
   30DOPE  C215 3811  -0.200  -0.630  14.645  0.3097  0.4156  0.0185
   30DOPE  H15R 3812  -0.200  -0.520  14.631 -0.6531  0.0937 -3.4464
   30DOPE  H15S 3813  -0.229  -0.668  14.745  0.7271 -0.2438 -0.1047
   30DOPE  C216 3814  -0.304  -0.679  14.539 -0.6822  0.5932  0.3697
   30DOPE  H16R 3815  -0.347  -0.777  14.568 -1.8105  0.4243 -1.6871
   30DOPE  H16S 3816  -0.249  -0.690  14.442 -0.3558  1.1853  0.4803
   30DOPE  C217 3817  -0.407  -0.572  14.519 -0.2878  0.7332 -0.8069
   30DOPE  H17R 3818  -0.462  -0.614  14.432  1.3259  1.0765 -2.0444
   30DOPE  H17S 3819  -0.369  -0.475  14.481 -3.6528  1.9988 -1.2817
   30DOPE  C218 3820  -0.490  -0.548  14.650 -0.1662  0.5473 -0.6348
   30DOPE  H18R 3821  -0.512  -0.645  14.700 -2.8621  0.6611 -1.4431
   30DOPE  H18S 3822  -0.590  -0.503  14.630 -0.2173 -0.1170 -1.9573
   30DOPE  H18T 3823  -0.438  -0.486  14.726 -0.0892 -0.7158  0.3865
   30DOPE   C33 3824   0.445   0.374  14.878 -0.0590 -0.0474 -0.4101
   30DOPE   H3X 3825   0.499   0.467  14.852  0.5550  0.3048  1.8528
   30DOPE   H3Y 3826   0.417   0.325  14.783 -1.4503  0.0471 -0.0804
   30DOPE   C34 3827   0.558   0.300  14.949 -0.7009 -0.1053  0.6420
   30DOPE   H4X 3828   0.633   0.272  14.872 -2.6057  1.0207 -1.7573
   30DOPE   H4Y 3829   0.610   0.374  15.014 -0.7767  2.0718 -1.6181
   30DOPE   C35 3830   0.526   0.179  15.038  0.5021  0.3737  0.4084
   30DOPE   H5X 3831   0.478   0.220  15.129 -1.5406 -1.4575  0.2465
   30DOPE   H5Y 3832   0.615   0.126  15.078  1.2065 -0.1940 -1.7548
   30DOPE   C36 3833   0.432   0.065  14.974 -0.5097  0.0737  0.0563
   30DOPE   H6X 3834   0.325   0.086  14.994 -0.4594 -1.8825  2.9834
   30DOPE   H6Y 3835   0.433  -0.036  15.022 -0.2585 -1.9003 -3.7302
   30DOPE   C37 3836   0.463   0.036  14.826  0.3900  0.5079 -0.6385
   30DOPE   H7X 3837   0.385  -0.026  14.777 -1.4312  1.0781  1.3647
   30DOPE   H7Y 3838   0.460   0.133  14.772  0.4953  0.8020 -0.1267
   30DOPE   C38 3839   0.602  -0.026  14.813  0.6109  0.5550 -0.1123
   30DOPE   H8X 3840   0.604  -0.111  14.884  0.0502 -1.7158 -2.6335
   30DOPE   H8Y 3841   0.670   0.043  14.868  2.2481 -0.1242 -1.2226
   30DOPE   C39 3842   0.643  -0.071  14.676  1.2481 -0.5606 -0.6742
   30DOPE   H9X 3843   0.620  -0.178  14.669 -3.0774  0.2084 -1.3664
   30DOPE  C310 3844   0.710  -0.002  14.575 -0.2802 -0.0018 -0.5456
   30DOPE  H10X 3845   0.727  -0.059  14.482 -0.4884 -1.6140  0.3595
   30DOPE  C311 3846   0.708   0.155  14.578 -0.2197 -0.3798 -0.2548
   30DOPE  H11X 3847   0.657   0.196  14.668  0.8864  1.3137 -0.3467
   30DOPE  H11Y 3848   0.812   0.192  14.587 -0.0343 -1.0117  0.3264
   30DOPE  C312 3849   0.632   0.217  14.463 -0.2687  0.0644 -0.3196
   30DOPE  H12X 3850   0.688   0.191  14.371 -0.3396 -0.7617 -0.1406
   30DOPE  H12Y 3851   0.656   0.323  14.485 -0.0349  0.0773 -0.6303
   30DOPE  C313 3852   0.484   0.180  14.463  0.8946  0.7037 -0.3108
   30DOPE  H13X 3853   0.474   0.073  14.437 -1.8699  0.9431 -0.5906
   30DOPE  H13Y 3854   0.444   0.190  14.567  2.5813  0.5665  0.3841
   30DOPE  C314 3855   0.390   0.260  14.368  0.3179  0.1350  0.6550
   30DOPE  H14X 3856   0.287   0.238  14.404  0.5382 -1.4929  0.3744
   30DOPE  H14Y 3857   0.395   0.218  14.266  0.0109  0.0826  0.6579
   30DOPE  C315 3858   0.439   0.407  14.350  0.2093 -0.1174  0.5724
   30DOPE  H15X 3859   0.545   0.406  14.318  0.3092 -1.4889  0.9019
   30DOPE  H15Y 3860   0.421   0.454  14.449  1.2243  1.4932  0.0267
   30DOPE  C316 3861   0.365   0.477  14.231  0.2096 -0.0426 -0.5868
   30DOPE  H16X 3862   0.260   0.494  14.261 -0.1910 -1.3155 -1.1936
   30DOPE  H16Y 3863   0.361   0.424  14.133 -0.7301  0.0292 -0.5894
   30DOPE  C317 3864   0.448   0.609  14.207 -0.5409  0.5387  0.1798
   30DOPE  H17X 3865   0.474   0.663  14.301  1.7074  1.5960 -0.9678
   30DOPE  H17Y 3866   0.544   0.575  14.163 -0.6521  1.4133 -0.7542
   30DOPE  C318 3867   0.381   0.709  14.116 -1.0120  0.1572 -0.2632
   30DOPE  H18X 3868   0.305   0.768  14.172 -0.0228  0.7586  0.4816
   30DOPE  H18Y 3869   0.460   0.783  14.094 -1.2499  0.2738 -0.7276
   30DOPE  H18Z 3870   0.339   0.661  14.025  1.0181 -0.3950 -0.9617
   31DOPE     N 3871   4.705   5.352  12.602  0.1457  0.0061 -0.1447
   31DOPE   HN1 3872   4.756   5.263  12.620  1.7485  1.3389  2.5357
   31DOPE   HN2 3873   4.779   5.420  12.573  1.3441 -1.2239 -0.0649
   31DOPE   HN3 3874   4.674   5.383  12.696  0.5432  1.0184 -0.3305
   31DOPE   C12 3875   4.598   5.321  12.502 -0.6145 -0.3722 -0.0379
   31DOPE  H12A 3876   4.529   5.407  12.492 -0.0568 -0.0994 -1.9642
   31DOPE  H12B 3877   4.531   5.245  12.548 -1.9352  1.1702  0.6576
   31DOPE   C11 3878   4.662   5.273  12.370 -0.2575  0.1969  0.3795
   31DOPE  H11A 3879   4.708   5.367  12.332  0.5300 -0.7167 -0.9904
   31DOPE  H11B 3880   4.587   5.242  12.295 -0.1887  0.0465  0.3738
   31DOPE     P 3881   4.749   5.038  12.450  0.2109  0.2272 -0.5182
   31DOPE   O13 3882   4.879   4.961  12.442  0.4872 -0.0241 -0.3673
   31DOPE   O14 3883   4.625   4.978  12.390 -0.4848  1.0633 -0.0100
   31DOPE   O11 3884   4.725   5.080  12.599 -0.2669 -0.4035 -0.0188
   31DOPE   O12 3885   4.767   5.176  12.380 -0.4258  0.3544 -0.0927
   31DOPE    C1 3886   4.818   5.041  12.702 -0.0295 -0.4219 -0.7784
   31DOPE    HA 3887   4.798   5.113  12.783 -0.1209 -0.3835 -0.8350
   31DOPE    HB 3888   4.923   5.061  12.671 -0.2344  0.2269 -1.0602
   31DOPE    C2 3889   4.797   4.901  12.746 -0.0367  0.3231 -0.0690
   31DOPE    HS 3890   4.798   4.843  12.652  0.8933  1.8134 -1.0309
   31DOPE   O21 3891   4.672   4.891  12.817 -0.3511  0.0271 -0.0833
   31DOPE   C21 3892   4.630   4.767  12.810  0.1649  0.1144 -0.4076
   31DOPE   O22 3893   4.669   4.676  12.732 -0.7184  0.0275 -0.0676
   31DOPE   C22 3894   4.522   4.750  12.916  0.4609  0.3857 -0.2398
   31DOPE   H2R 3895   4.437   4.816  12.892  0.0471  0.3862  1.1605
   31DOPE   H2S 3896   4.575   4.775  13.010 -0.0410 -1.1795  0.4978
   31DOPE    C3 3897   4.925   4.861  12.833 -0.4226  0.8663 -0.5239
   31DOPE    HX 3898   4.902   4.914  12.928 -2.7735  1.1598 -1.1973
   31DOPE    HY 3899   5.021   4.889  12.785  0.9792 -0.3497  1.3866
   31DOPE   O31 3900   4.927   4.720  12.866  0.1816 -0.3782 -0.6490
   31DOPE   C31 3901   5.004   4.623  12.804 -0.2816 -0.6935  0.6759
   31DOPE   O32 3902   5.077   4.649  12.709 -0.8616  0.0361  0.2636
   31DOPE   C32 3903   4.990   4.500  12.893 -0.5299  0.6099  0.0459
   31DOPE   H2X 3904   4.907   4.502  12.967  0.6841  1.7674  1.4354
   31DOPE   H2Y 3905   4.962   4.410  12.835  0.2165  0.5185 -0.1732
   31DOPE   C23 3906   4.455   4.610  12.934  0.3977 -0.4805 -0.4792
   31DOPE   H3R 3907   4.534   4.533  12.947  0.0087 -0.4825  2.7228
   31DOPE   H3S 3908   4.402   4.585  12.840 -0.4556  0.3489 -0.2319
   31DOPE   C24 3909   4.364   4.595  13.059 -0.2328  0.3112 -0.1668
   31DOPE   H4R 3910   4.274   4.654  13.034 -0.0303  0.2451 -1.0832
   31DOPE   H4S 3911   4.419   4.633  13.147  0.2749 -0.6890 -0.0328
   31DOPE   C25 3912   4.338   4.442  13.091  0.0976  0.0529 -0.0435
   31DOPE   H5R 3913   4.302   4.392  12.998  3.0916 -1.5902 -0.4421
   31DOPE   H5S 3914   4.250   4.429  13.158  0.4879 -1.4481  0.2190
   31DOPE   C26 3915   4.455   4.362  13.137  0.7455 -0.3898 -0.3491
   31DOPE   H6R 3916   4.535   4.362  13.059 -0.4828  0.0075 -1.6617
   31DOPE   H6S 3917   4.435   4.253  13.139 -3.0787  0.1683  0.4410
   31DOPE   C27 3918   4.521   4.402  13.269  0.5427  0.5058 -0.9251
   31DOPE   H7R 3919   4.455   4.397  13.358 -1.8351 -1.5699 -2.6500
   31DOPE   H7S 3920   4.548   4.510  13.266  0.3792  0.5245 -2.1571
   31DOPE   C28 3921   4.642   4.314  13.289 -0.5665 -0.0390 -0.3112
   31DOPE   H8R 3922   4.683   4.303  13.187  1.5953  0.3374  0.4613
   31DOPE   H8S 3923   4.617   4.212  13.323 -1.5838  0.5377  0.7722
   31DOPE   C29 3924   4.741   4.379  13.382 -0.4938 -0.3218 -0.8831
   31DOPE   H9R 3925   4.774   4.483  13.370  1.7531 -0.9635 -0.6477
   31DOPE  C210 3926   4.775   4.334  13.502 -0.0103  0.2403 -0.1127
   31DOPE  H10R 3927   4.831   4.409  13.560  2.5065  0.4513 -2.6371
   31DOPE  C211 3928   4.737   4.203  13.567 -0.1255 -0.5079  0.0016
   31DOPE  H11R 3929   4.837   4.155  13.560  0.5260  0.8997 -0.7591
   31DOPE  H11S 3930   4.664   4.137  13.516  0.6090 -0.9977 -0.4457
   31DOPE  C212 3931   4.686   4.220  13.713 -0.1283  0.2394  0.1953
   31DOPE  H12R 3932   4.759   4.279  13.771  0.4495 -0.8124  0.5644
   31DOPE  H12S 3933   4.667   4.120  13.759 -0.1675  0.0953 -0.1308
   31DOPE  C213 3934   4.548   4.290  13.724 -0.1859 -1.0395  0.7016
   31DOPE  H13R 3935   4.472   4.221  13.684 -0.9770  0.4418 -0.4537
   31DOPE  H13S 3936   4.545   4.380  13.658  1.0404  1.4475  3.7622
   31DOPE  C214 3937   4.523   4.344  13.862 -0.5031 -0.0164  0.0311
   31DOPE  H14R 3938   4.612   4.390  13.910 -0.6717 -0.1109  0.4333
   31DOPE  H14S 3939   4.511   4.263  13.937 -0.2498  0.4110  0.5421
   31DOPE  C215 3940   4.404   4.438  13.872  1.4775 -0.5137  0.3566
   31DOPE  H15R 3941   4.422   4.529  13.811  0.7543 -1.2599 -1.0304
   31DOPE  H15S 3942   4.407   4.469  13.978 -2.5457  0.8425  0.2338
   31DOPE  C216 3943   4.272   4.368  13.846 -0.3179  0.1307  0.5400
   31DOPE  H16R 3944   4.278   4.271  13.900  0.5305 -0.4536 -0.5594
   31DOPE  H16S 3945   4.255   4.342  13.739  2.2857 -1.6444  0.4813
   31DOPE  C217 3946   4.147   4.455  13.880  1.0124  0.2071  0.2499
   31DOPE  H17R 3947   4.132   4.547  13.819 -0.9415  0.2440  0.7202
   31DOPE  H17S 3948   4.154   4.493  13.984  1.6166  1.8579 -0.3562
   31DOPE  C218 3949   4.006   4.384  13.864 -0.4316 -0.3109 -0.6761
   31DOPE  H18R 3950   3.987   4.373  13.755  2.1309 -0.3836 -1.1642
   31DOPE  H18S 3951   3.930   4.444  13.919 -0.0140  0.3946 -0.8612
   31DOPE  H18T 3952   4.013   4.283  13.910 -0.1204  0.4475  1.0060
   31DOPE   C33 3953   5.131   4.476  12.955 -0.4579  0.1902 -0.4565
   31DOPE   H3X 3954   5.160   4.566  13.013  2.1318 -1.6860  1.4059
   31DOPE   H3Y 3955   5.211   4.455  12.880 -0.0989  3.1878 -1.0391
   31DOPE   C34 3956   5.116   4.371  13.066  0.1176 -0.3563  0.1850
   31DOPE   H4X 3957   5.034   4.401  13.135 -0.6031 -0.1011 -0.7561
   31DOPE   H4Y 3958   5.073   4.281  13.017 -3.3998  1.1895  0.1505
   31DOPE   C35 3959   5.243   4.327  13.143 -0.0765  0.0249  0.4941
   31DOPE   H5X 3960   5.300   4.421  13.161 -0.5795  0.2301  1.0786
   31DOPE   H5Y 3961   5.302   4.260  13.078 -2.4548  0.0084 -1.7887
   31DOPE   C36 3962   5.206   4.249  13.272  0.4459 -0.4372 -0.5276
   31DOPE   H6X 3963   5.118   4.181  13.264  0.7333 -0.7295 -1.2961
   31DOPE   H6Y 3964   5.192   4.317  13.359  0.3030 -0.7258 -0.3195
   31DOPE   C37 3965   5.315   4.142  13.312 -0.0015  0.2176  0.0952
   31DOPE   H7X 3966   5.311   4.063  13.234 -0.8187 -0.3923  0.7262
   31DOPE   H7Y 3967   5.420   4.177  13.316  0.7765 -1.6396 -2.0001
   31DOPE   C38 3968   5.283   4.086  13.451 -0.5521  0.2376  0.0448
   31DOPE   H8X 3969   5.363   4.009  13.461 -0.7356 -0.5694 -3.4589
   31DOPE   H8Y 3970   5.186   4.033  13.435 -0.9632  1.1622 -0.5686
   31DOPE   C39 3971   5.290   4.180  13.571 -0.4730 -0.1708  0.8427
   31DOPE   H9X 3972   5.325   4.279  13.540  0.0253 -0.8867 -1.0076
   31DOPE  C310 3973   5.245   4.164  13.696 -0.4032 -0.1802  0.1665
   31DOPE  H10X 3974   5.244   4.247  13.767  0.5764 -1.0441  1.2367
   31DOPE  C311 3975   5.175   4.049  13.765 -0.2440  0.0078 -0.3829
   31DOPE  H11X 3976   5.148   3.982  13.680 -1.0387 -0.2943  0.1033
   31DOPE  H11Y 3977   5.242   3.993  13.833 -0.2423  0.6997  0.1914
   31DOPE  C312 3978   5.046   4.094  13.846 -0.0930 -0.3159 -0.0590
   31DOPE  H12X 3979   4.975   4.010  13.864 -1.1872  0.5141 -0.3816
   31DOPE  H12Y 3980   4.998   4.159  13.770  1.5302  1.2947  0.2278
   31DOPE  C313 3981   5.070   4.158  13.978  0.6017  0.3317 -0.7542
   31DOPE  H13X 3982   5.112   4.082  14.048 -1.8263 -1.5116 -1.1692
   31DOPE  H13Y 3983   5.147   4.238  13.967  0.0705  0.6564 -2.2391
   31DOPE  C314 3984   4.946   4.222  14.044 -0.3718 -1.0452 -0.0052
   31DOPE  H14X 3985   4.868   4.150  14.078  0.9670 -2.6441 -0.2308
   31DOPE  H14Y 3986   4.902   4.298  13.976  1.2698  0.4291  0.5116
   31DOPE  C315 3987   5.001   4.316  14.157  0.1302 -0.5885 -0.7091
   31DOPE  H15X 3988   4.988   4.424  14.136 -1.3943 -0.6604 -0.2895
   31DOPE  H15Y 3989   5.108   4.289  14.165  0.5723  1.3400  0.3781
   31DOPE  C316 3990   4.929   4.286  14.292  0.2985  0.0374 -0.2208
   31DOPE  H16X 3991   4.946   4.178  14.310  2.1611  0.0926 -1.3353
   31DOPE  H16Y 3992   4.821   4.311  14.284  0.1207 -0.5952  0.1803
   31DOPE  C317 3993   4.985   4.359  14.417 -0.1254 -0.2954 -0.8059
   31DOPE  H17X 3994   5.092   4.335  14.434 -0.5040 -0.4729  1.7142
   31DOPE  H17Y 3995   4.969   4.469  14.414  2.3015  0.3091  2.5734
   31DOPE  C318 3996   4.917   4.323  14.550  0.1202 -0.1317  0.0224
   31DOPE  H18X 3997   4.906   4.214  14.568  1.3415 -0.0728  1.4114
   31DOPE  H18Y 3998   4.982   4.362  14.632 -1.2574  1.2078  0.5148
   31DOPE  H18Z 3999   4.818   4.372  14.562  0.9694  1.4067  1.1831
   32DOPE     N 4000   6.319   3.137  12.114  0.2926 -0.5590  0.2657
   32DOPE   HN1 4001   6.271   3.163  12.025  0.6342 -0.2489  0.1702
   32DOPE   HN2 4002   6.261   3.162  12.196  0.2849 -1.5013  0.5569
   32DOPE   HN3 4003   6.402   3.200  12.118 -0.7352  0.7603  1.6891
   32DOPE   C12 4004   6.358   2.989  12.123  0.6098  0.2261 -0.2134
   32DOPE  H12A 4005   6.467   2.981  12.102  0.1590  0.8403 -3.3032
   32DOPE  H12B 4006   6.286   2.950  12.048 -1.9600 -0.1294  2.2764
   32DOPE   C11 4007   6.320   2.914  12.255 -0.2523 -0.3933  0.5808
   32DOPE  H11A 4008   6.389   2.961  12.327  0.7597  1.0705 -1.2376
   32DOPE  H11B 4009   6.358   2.814  12.227 -0.1842 -0.5560  1.2453
   32DOPE     P 4010   6.115   2.867  12.412  0.3188 -0.5645  0.3148
   32DOPE   O13 4011   6.138   2.725  12.396  0.1329  0.5370  0.1690
   32DOPE   O14 4012   5.977   2.916  12.426  0.5265 -0.2108  0.9933
   32DOPE   O11 4013   6.213   2.919  12.523 -0.2745 -0.0278 -0.5392
   32DOPE   O12 4014   6.182   2.925  12.279  0.1172 -1.2062 -0.0726
   32DOPE    C1 4015   6.164   2.920  12.659 -0.3704  0.5871 -0.3842
   32DOPE    HA 4016   6.061   2.961  12.672 -0.8792 -0.7368 -0.0416
   32DOPE    HB 4017   6.212   3.001  12.718 -3.9228  1.2819  1.8762
   32DOPE    C2 4018   6.189   2.789  12.744 -0.0499  0.5935 -0.9062
   32DOPE    HS 4019   6.287   2.748  12.709 -0.5647 -0.0692 -1.6016
   32DOPE   O21 4020   6.072   2.710  12.728  0.3472  0.8617  0.1545
   32DOPE   C21 4021   6.094   2.577  12.690 -0.0250  0.2456 -0.3522
   32DOPE   O22 4022   6.204   2.532  12.686 -0.2414 -0.4480 -0.2940
   32DOPE   C22 4023   5.961   2.512  12.645 -0.2712  0.0891  0.1118
   32DOPE   H2R 4024   5.986   2.491  12.539  0.2599 -0.6490  0.3748
   32DOPE   H2S 4025   5.874   2.580  12.658 -1.7929 -1.9129  1.0110
   32DOPE    C3 4026   6.209   2.832  12.890  0.3828 -0.0475  0.1433
   32DOPE    HX 4027   6.108   2.868  12.919 -0.1539 -0.8704 -0.6526
   32DOPE    HY 4028   6.279   2.917  12.905  3.7473 -2.6747  0.5913
   32DOPE   O31 4029   6.251   2.722  12.977 -0.6423  0.3323 -0.3779
   32DOPE   C31 4030   6.382   2.701  12.984 -0.2602  0.2616  0.5802
   32DOPE   O32 4031   6.469   2.765  12.930 -0.4484 -0.2156 -0.1548
   32DOPE   C32 4032   6.398   2.570  13.054  0.2381 -0.3636 -0.4773
   32DOPE   H2X 4033   6.298   2.523  13.066 -0.2176  0.6919  0.0390
   32DOPE   H2Y 4034   6.463   2.500  12.999 -0.0963 -2.5935  1.7579
   32DOPE   C23 4035   5.934   2.384  12.726  0.3739 -0.5669 -1.0701
   32DOPE   H3R 4036   6.024   2.319  12.731 -1.3686 -3.1001 -1.2928
   32DOPE   H3S 4037   5.862   2.326  12.665 -0.1077 -0.9464 -0.1553
   32DOPE   C24 4038   5.883   2.410  12.876  0.2202 -0.0390  0.4383
   32DOPE   H4R 4039   5.826   2.319  12.904  2.5955 -1.3306  1.3736
   32DOPE   H4S 4040   5.833   2.510  12.872  2.3052  1.0249 -1.2871
   32DOPE   C25 4041   5.979   2.421  12.998 -0.1745 -0.1734  0.1416
   32DOPE   H5R 4042   6.042   2.512  12.991 -1.6966  0.8461 -0.9824
   32DOPE   H5S 4043   6.046   2.332  12.993 -0.4702 -0.3834 -0.1936
   32DOPE   C26 4044   5.910   2.404  13.130 -0.1119  0.5021  0.4292
   32DOPE   H6R 4045   5.860   2.304  13.127 -0.2345  0.5491  0.9777
   32DOPE   H6S 4046   5.836   2.482  13.156 -0.4835  0.6458 -0.9583
   32DOPE   C27 4047   5.996   2.401  13.267 -0.8064 -0.0652 -0.3716
   32DOPE   H7R 4048   5.937   2.367  13.354 -0.5556 -1.4801 -0.7374
   32DOPE   H7S 4049   6.028   2.506  13.288 -1.2439  0.0722 -0.3806
   32DOPE   C28 4050   6.111   2.301  13.254 -0.5023 -1.0043  0.5345
   32DOPE   H8R 4051   6.160   2.322  13.156 -1.9100  1.8511  0.3117
   32DOPE   H8S 4052   6.072   2.198  13.239  1.4650 -1.6923 -0.0980
   32DOPE   C29 4053   6.204   2.298  13.368  0.3321  0.0520  0.6707
   32DOPE   H9R 4054   6.243   2.397  13.396  0.1237  0.2222  0.3711
   32DOPE  C210 4055   6.239   2.198  13.443 -0.6411 -0.2267 -0.2442
   32DOPE  H10R 4056   6.316   2.221  13.519 -0.2722 -3.0589  0.3631
   32DOPE  C211 4057   6.198   2.056  13.425 -0.2578 -0.1190  0.4625
   32DOPE  H11R 4058   6.092   2.051  13.391 -0.3901  1.6258  0.5496
   32DOPE  H11S 4059   6.214   1.999  13.519 -0.2001 -0.5576  0.1876
   32DOPE  C212 4060   6.283   1.979  13.326 -0.0235  0.2425 -0.5836
   32DOPE  H12R 4061   6.276   2.030  13.227  0.8961 -0.5992 -1.0916
   32DOPE  H12S 4062   6.233   1.881  13.311 -0.3289  0.3855 -0.5167
   32DOPE  C213 4063   6.423   1.956  13.378  0.3256  0.3688  0.1124
   32DOPE  H13R 4064   6.479   2.048  13.404 -1.0381  1.2789 -0.0520
   32DOPE  H13S 4065   6.473   1.916  13.286  0.4616  0.1059  0.3004
   32DOPE  C214 4066   6.432   1.852  13.494  0.4508  0.3522 -0.2283
   32DOPE  H14R 4067   6.378   1.760  13.463  1.3845 -0.8961  1.6641
   32DOPE  H14S 4068   6.384   1.888  13.587  0.8560 -2.1240  1.0206
   32DOPE  C215 4069   6.579   1.811  13.521  0.5133 -0.1176 -0.3700
   32DOPE  H15R 4070   6.635   1.825  13.426 -3.4984  2.2862 -2.6960
   32DOPE  H15S 4071   6.574   1.705  13.555  1.9095  0.2717  1.2099
   32DOPE  C216 4072   6.647   1.890  13.638  0.2064  0.1343  0.2904
   32DOPE  H16R 4073   6.616   1.857  13.740 -0.9106  0.1663 -0.0207
   32DOPE  H16S 4074   6.612   1.994  13.619  0.0362 -0.3328 -2.2900
   32DOPE  C217 4075   6.805   1.890  13.626  0.3823 -0.3617  0.4912
   32DOPE  H17R 4076   6.843   1.927  13.529 -0.0382  0.0100  0.4663
   32DOPE  H17S 4077   6.839   1.788  13.653  2.3085  0.2550  0.5173
   32DOPE  C218 4078   6.864   1.990  13.735 -0.6992  0.3455 -0.3281
   32DOPE  H18R 4079   6.836   2.094  13.709 -2.4866 -0.0513 -0.1427
   32DOPE  H18S 4080   6.974   1.976  13.734 -0.7796 -0.4094 -1.2372
   32DOPE  H18T 4081   6.820   1.967  13.834 -0.0551  1.1544  0.1514
   32DOPE   C33 4082   6.448   2.587  13.200 -0.6406  0.5364  0.2246
   32DOPE   H3X 4083   6.554   2.618  13.202 -0.0663 -1.3171  1.3319
   32DOPE   H3Y 4084   6.453   2.484  13.241 -2.6024 -0.6515 -2.2376
   32DOPE   C34 4085   6.364   2.679  13.294 -0.3419  0.3492  0.1865
   32DOPE   H4X 4086   6.377   2.783  13.258  4.9176 -0.6030 -1.5767
   32DOPE   H4Y 4087   6.255   2.664  13.277 -0.8263  1.3194  2.1530
   32DOPE   C35 4088   6.405   2.671  13.439 -0.4412 -0.4181  0.0733
   32DOPE   H5X 4089   6.405   2.564  13.469 -0.2991 -0.0983  1.2793
   32DOPE   H5Y 4090   6.335   2.722  13.509  1.2632  0.9501  0.8810
   32DOPE   C36 4091   6.543   2.735  13.467  0.0309  0.0863  0.6724
   32DOPE   H6X 4092   6.539   2.831  13.412 -1.2632 -1.2930 -1.8158
   32DOPE   H6Y 4093   6.623   2.672  13.424  0.5901  1.5038 -0.4283
   32DOPE   C37 4094   6.575   2.761  13.621 -0.0208  0.1320  0.7128
   32DOPE   H7X 4095   6.683   2.786  13.629  0.1168 -0.7291  1.9136
   32DOPE   H7Y 4096   6.517   2.848  13.659 -0.5464  0.1905 -0.2007
   32DOPE   C38 4097   6.542   2.636  13.698  0.2252 -0.2034  0.0457
   32DOPE   H8X 4098   6.600   2.552  13.655  1.3085 -0.9591  2.7731
   32DOPE   H8Y 4099   6.439   2.596  13.685 -0.2199  0.7229  0.6290
   32DOPE   C39 4100   6.567   2.658  13.847  0.2185 -0.0264 -0.8347
   32DOPE   H9X 4101   6.518   2.747  13.889  1.9959  0.6030  0.0240
   32DOPE  C310 4102   6.652   2.587  13.922 -0.5065  0.5040 -0.6138
   32DOPE  H10X 4103   6.650   2.598  14.031 -0.8007  1.2283 -0.6930
   32DOPE  C311 4104   6.738   2.468  13.875 -1.0100  0.1069  0.5048
   32DOPE  H11X 4105   6.761   2.392  13.953  0.3180  0.7188  0.7242
   32DOPE  H11Y 4106   6.684   2.425  13.787 -0.7046  2.4590 -0.8947
   32DOPE  C312 4107   6.872   2.508  13.810 -0.1109  0.0752 -0.2703
   32DOPE  H12X 4108   6.856   2.548  13.708 -0.3242 -1.2107 -0.7592
   32DOPE  H12Y 4109   6.928   2.418  13.779 -0.5599 -1.2145  2.3992
   32DOPE  C313 4110   6.969   2.600  13.896  0.8218 -0.6252 -0.0649
   32DOPE  H13X 4111   6.904   2.687  13.921 -1.1953 -1.9689 -0.3920
   32DOPE  H13Y 4112   7.008   2.555  13.990  0.9553  2.0276  1.2439
   32DOPE  C314 4113   7.087   2.659  13.812 -0.8017 -0.0472  0.0883
   32DOPE  H14X 4114   7.139   2.739  13.869 -0.5146 -0.4044  0.3382
   32DOPE  H14Y 4115   7.039   2.714  13.729  0.4889 -1.1517 -1.4472
   32DOPE  C315 4116   7.195   2.560  13.773  0.2894  0.1910  0.3008
   32DOPE  H15X 4117   7.167   2.514  13.676 -0.3354  0.7388  0.2143
   32DOPE  H15Y 4118   7.223   2.483  13.848 -0.4060  0.4806  0.8811
   32DOPE  C316 4119   7.324   2.640  13.749 -0.5831  0.1418  0.1567
   32DOPE  H16X 4120   7.357   2.698  13.838  1.8408  0.4032 -0.8407
   32DOPE  H16Y 4121   7.310   2.719  13.672  1.0691  0.0732 -0.2430
   32DOPE  C317 4122   7.433   2.540  13.702 -0.3374  0.1079  0.2991
   32DOPE  H17X 4123   7.429   2.438  13.746  1.9304 -0.1205  0.0737
   32DOPE  H17Y 4124   7.433   2.516  13.593 -1.3689 -0.8764  0.4969
   32DOPE  C318 4125   7.568   2.606  13.735 -0.2243 -0.8853 -0.0280
   32DOPE  H18X 4126   7.662   2.553  13.710  0.6489  0.5474  0.1351
   32DOPE  H18Y 4127   7.584   2.703  13.684  3.7438 -1.9046 -1.0559
   32DOPE  H18Z 4128   7.572   2.623  13.845 -1.7442 -2.4833  0.3147
   33DOPE     N 4129   4.825   3.534  12.302 -0.6162  0.4009  0.0368
   33DOPE   HN1 4130   4.787   3.512  12.397  0.4044 -0.5906  0.2287
   33DOPE   HN2 4131   4.925   3.515  12.320 -0.7220  1.9774  3.1127
   33DOPE   HN3 4132   4.826   3.637  12.283 -0.4518  0.4778  0.4405
   33DOPE   C12 4133   4.769   3.463  12.184 -0.3622  0.0716 -0.2638
   33DOPE  H12A 4134   4.798   3.356  12.181  0.8871  0.3837  0.1221
   33DOPE  H12B 4135   4.814   3.513  12.096  0.9637  1.1105  0.9488
   33DOPE   C11 4136   4.617   3.451  12.181 -0.1956 -0.2909  0.2726
   33DOPE  H11A 4137   4.593   3.440  12.074  0.0509  0.3920  0.1416
   33DOPE  H11B 4138   4.560   3.544  12.200 -1.1219 -1.0838  1.5185
   33DOPE     P 4139   4.532   3.211  12.211  0.3042  0.1305  0.2684
   33DOPE   O13 4140   4.639   3.172  12.123  0.6124  0.2508 -0.2394
   33DOPE   O14 4141   4.395   3.207  12.157 -0.6818 -0.7563 -0.2912
   33DOPE   O11 4142   4.544   3.125  12.343  0.1302  0.7688 -0.1064
   33DOPE   O12 4143   4.562   3.357  12.270 -0.8212  0.6301 -0.7315
   33DOPE    C1 4144   4.623   3.171  12.456 -0.2564 -0.1473  0.2161
   33DOPE    HA 4145   4.585   3.257  12.515 -2.8016 -1.2899  0.4000
   33DOPE    HB 4146   4.726   3.203  12.430  0.0815  0.4187  2.0807
   33DOPE    C2 4147   4.645   3.059  12.562 -0.1265  0.1822  0.1019
   33DOPE    HS 4148   4.668   2.970  12.500 -2.5076 -0.2350 -0.2884
   33DOPE   O21 4149   4.522   3.043  12.631 -0.5166 -1.0530  0.5898
   33DOPE   C21 4150   4.517   2.950  12.727 -0.6672 -0.2223  0.1815
   33DOPE   O22 4151   4.590   2.853  12.737  0.0569  0.2852  0.2211
   33DOPE   C22 4152   4.394   2.975  12.812 -0.2572 -0.3308  0.0692
   33DOPE   H2R 4153   4.332   2.885  12.791 -0.1471 -0.4578  0.2924
   33DOPE   H2S 4154   4.347   3.072  12.782  0.5982 -0.1686 -0.7718
   33DOPE    C3 4155   4.762   3.109  12.658 -0.2488 -0.6618 -1.0610
   33DOPE    HX 4156   4.730   3.209  12.695 -1.9737 -1.6442  0.2209
   33DOPE    HY 4157   4.852   3.123  12.594  0.5893 -0.1215  0.1916
   33DOPE   O31 4158   4.781   3.032  12.775  0.0648  0.6964 -0.1074
   33DOPE   C31 4159   4.867   2.929  12.769  0.8080 -0.1029  0.8272
   33DOPE   O32 4160   4.912   2.886  12.664 -0.2817 -0.2648  0.7583
   33DOPE   C32 4161   4.906   2.894  12.919  0.3944 -0.3605  1.1812
   33DOPE   H2X 4162   4.975   2.807  12.911  0.5361 -0.1013 -0.9192
   33DOPE   H2Y 4163   4.967   2.982  12.951  0.1785  0.5182 -0.6807
   33DOPE   C23 4164   4.413   2.985  12.971  0.4482  0.3197 -0.1638
   33DOPE   H3R 4165   4.466   2.891  12.998  0.9501  0.6577  0.0278
   33DOPE   H3S 4166   4.317   2.987  13.026  1.0156 -0.4255  0.8895
   33DOPE   C24 4167   4.481   3.119  13.006  0.2213  0.2354  0.0336
   33DOPE   H4R 4168   4.433   3.193  12.938  2.1678 -0.2527 -1.9798
   33DOPE   H4S 4169   4.590   3.115  12.985  0.0640  0.6587 -0.9132
   33DOPE   C25 4170   4.472   3.181  13.150  0.0180 -0.2370 -0.7633
   33DOPE   H5R 4171   4.444   3.111  13.232  4.2173  0.7730  1.8294
   33DOPE   H5S 4172   4.391   3.257  13.144 -0.8216 -1.1636 -1.5647
   33DOPE   C26 4173   4.608   3.246  13.197 -0.4737  0.5818 -0.1030
   33DOPE   H6R 4174   4.683   3.166  13.186 -0.0574  1.2578 -3.2547
   33DOPE   H6S 4175   4.599   3.287  13.300  1.8266 -0.5752  0.6288
   33DOPE   C27 4176   4.660   3.369  13.111  0.8033 -0.4869 -0.1639
   33DOPE   H7R 4177   4.586   3.451  13.124  0.9788 -0.5909  1.9350
   33DOPE   H7S 4178   4.653   3.337  13.005 -0.8135 -1.2289  0.1385
   33DOPE   C28 4179   4.793   3.404  13.173 -0.0429 -0.3178 -0.1304
   33DOPE   H8R 4180   4.793   3.399  13.284  2.5729  0.4836 -0.0294
   33DOPE   H8S 4181   4.807   3.510  13.141 -0.2603 -0.8122 -1.9764
   33DOPE   C29 4182   4.895   3.327  13.095  0.4315 -0.2284  0.0991
   33DOPE   H9R 4183   4.888   3.329  12.986 -1.6731  0.9302  0.2027
   33DOPE  C210 4184   5.005   3.254  13.139  0.0722  0.4888 -0.1063
   33DOPE  H10R 4185   5.064   3.193  13.069  1.9267 -1.2335  2.7430
   33DOPE  C211 4186   5.055   3.244  13.285 -0.3857  0.0582 -0.1700
   33DOPE  H11R 4187   5.027   3.145  13.325  0.8550  0.8371  2.9062
   33DOPE  H11S 4188   5.020   3.320  13.358  1.2141 -0.9268  1.7222
   33DOPE  C212 4189   5.214   3.241  13.306 -0.6309  0.9863 -0.9733
   33DOPE  H12R 4190   5.219   3.236  13.417  0.3012  2.0754 -0.9538
   33DOPE  H12S 4191   5.276   3.328  13.276  1.7155 -0.6934 -1.2533
   33DOPE  C213 4192   5.288   3.122  13.251  0.6981  0.4305 -0.6779
   33DOPE  H13R 4193   5.300   3.133  13.141  3.3725  0.8049 -0.4225
   33DOPE  H13S 4194   5.216   3.038  13.264 -1.2625  2.3249  1.7378
   33DOPE  C214 4195   5.416   3.092  13.321  0.0675  0.4118 -0.1087
   33DOPE  H14R 4196   5.474   3.186  13.338  2.3749 -0.3495 -2.8569
   33DOPE  H14S 4197   5.475   3.039  13.244  0.4157  3.3282 -2.0187
   33DOPE  C215 4198   5.408   3.011  13.446  1.3781 -0.4262  0.3632
   33DOPE  H15R 4199   5.387   2.904  13.424 -0.7344 -0.0753  0.4511
   33DOPE  H15S 4200   5.325   3.042  13.513  2.5898  1.8899  0.8925
   33DOPE  C216 4201   5.543   3.015  13.523  0.4413  0.2665 -0.4520
   33DOPE  H16R 4202   5.558   3.120  13.555  0.2535  0.6861 -1.6852
   33DOPE  H16S 4203   5.610   3.001  13.436 -0.8427  2.4754 -1.8850
   33DOPE  C217 4204   5.567   2.911  13.631  0.3249  0.1883  0.2134
   33DOPE  H17R 4205   5.675   2.896  13.653  0.6137  2.5097  0.7185
   33DOPE  H17S 4206   5.533   2.813  13.594  0.1285 -0.6288  2.4160
   33DOPE  C218 4207   5.496   2.950  13.758  0.2065  0.0105 -0.5202
   33DOPE  H18R 4208   5.517   2.896  13.853  0.2645 -0.4746 -0.8080
   33DOPE  H18S 4209   5.385   2.958  13.747  0.1691 -0.9391 -0.9177
   33DOPE  H18T 4210   5.534   3.050  13.789  0.1181 -0.0613 -0.1692
   33DOPE   C33 4211   4.786   2.881  13.016  0.5455 -0.6234  0.1946
   33DOPE   H3X 4212   4.736   2.784  12.996 -0.7207 -0.2751  1.4741
   33DOPE   H3Y 4213   4.711   2.959  12.992 -0.0554 -1.3032 -0.1725
   33DOPE   C34 4214   4.821   2.896  13.162 -0.2478  0.3012 -1.5467
   33DOPE   H4X 4215   4.896   2.816  13.178 -0.2602  0.0372 -2.7561
   33DOPE   H4Y 4216   4.855   3.000  13.182  0.3040  0.3068 -2.4958
   33DOPE   C35 4217   4.698   2.870  13.250  0.4206  0.0003  0.7221
   33DOPE   H5X 4218   4.616   2.932  13.211  1.1725  0.3506 -0.3288
   33DOPE   H5Y 4219   4.714   2.906  13.354 -2.0014  2.5904  0.2876
   33DOPE   C36 4220   4.650   2.725  13.267  1.0965 -0.1424 -0.1914
   33DOPE   H6X 4221   4.737   2.662  13.296  0.1415 -1.9301 -1.0106
   33DOPE   H6Y 4222   4.626   2.679  13.168  1.5321 -1.0215  0.0995
   33DOPE   C37 4223   4.535   2.709  13.367  0.0208  0.6317  0.0389
   33DOPE   H7X 4224   4.525   2.600  13.383  1.8176  0.7614  2.6363
   33DOPE   H7Y 4225   4.553   2.754  13.467  1.4708 -2.0701  1.0884
   33DOPE   C38 4226   4.397   2.752  13.312 -0.5613  0.5539  0.7763
   33DOPE   H8X 4227   4.382   2.714  13.208  0.0202  1.1410  0.4630
   33DOPE   H8Y 4228   4.390   2.863  13.310 -2.6533  0.4569 -0.6390
   33DOPE   C39 4229   4.284   2.694  13.390 -0.6639  0.0338 -0.0227
   33DOPE   H9X 4230   4.240   2.606  13.341  1.9060 -0.9480 -0.7214
   33DOPE  C310 4231   4.232   2.730  13.513 -0.1290  0.0176  0.2550
   33DOPE  H10X 4232   4.142   2.682  13.554 -0.7863 -0.9443 -2.1424
   33DOPE  C311 4233   4.263   2.842  13.606 -0.1809  0.3847  0.4569
   33DOPE  H11X 4234   4.373   2.850  13.621  0.0022 -1.1847  0.0481
   33DOPE  H11Y 4235   4.224   2.940  13.571  0.7961  0.3483 -0.7753
   33DOPE  C312 4236   4.205   2.809  13.746  0.1838 -0.2012 -0.3669
   33DOPE  H12X 4237   4.094   2.810  13.741  0.2160 -0.4758 -1.3871
   33DOPE  H12Y 4238   4.239   2.885  13.820 -0.7723  1.1591 -1.2742
   33DOPE  C313 4239   4.246   2.667  13.803  0.5509  0.9426 -0.9827
   33DOPE  H13X 4240   4.209   2.588  13.735  0.9171  0.4107 -0.5752
   33DOPE  H13Y 4241   4.356   2.660  13.789  0.8721 -0.1524  1.4902
   33DOPE  C314 4242   4.206   2.641  13.944 -0.3423 -0.3723 -0.1795
   33DOPE  H14X 4243   4.250   2.709  14.021 -1.8150 -0.2230  0.5590
   33DOPE  H14Y 4244   4.268   2.556  13.982  0.0707  0.0064  0.0057
   33DOPE  C315 4245   4.060   2.606  13.978 -0.1565 -0.3503 -0.6198
   33DOPE  H15X 4246   3.999   2.694  13.948 -0.0460 -0.0187  0.0928
   33DOPE  H15Y 4247   4.052   2.598  14.088  0.3019 -1.1163 -0.6385
   33DOPE  C316 4248   4.009   2.473  13.930  0.2247 -0.1341  0.4161
   33DOPE  H16X 4249   4.095   2.404  13.941  0.2478  0.1792  2.7670
   33DOPE  H16Y 4250   3.991   2.475  13.820 -0.5819  0.5698  0.5472
   33DOPE  C317 4251   3.889   2.417  14.015 -0.3199 -0.0934  0.9594
   33DOPE  H17X 4252   3.920   2.404  14.121  0.5029 -0.2104  0.7127
   33DOPE  H17Y 4253   3.810   2.495  14.019 -0.2553 -0.0720  2.5439
   33DOPE  C318 4254   3.851   2.275  13.959 -0.0377 -0.6373 -0.6578
   33DOPE  H18X 4255   3.813   2.296  13.856 -1.1011 -0.0691 -0.1650
   33DOPE  H18Y 4256   3.935   2.202  13.953  1.5684  1.1224 -0.7512
   33DOPE  H18Z 4257   3.770   2.242  14.026  1.6459 -1.9278  0.8365
   34DOPE     N 4258   5.066   5.741  12.161 -0.6508 -0.0324 -0.2911
   34DOPE   HN1 4259   5.133   5.821  12.155 -1.4918  0.6101 -1.6383
   34DOPE   HN2 4260   5.023   5.715  12.070 -0.9106 -1.3212  0.1882
   34DOPE   HN3 4261   4.982   5.762  12.219 -1.2528 -2.0799 -0.3411
   34DOPE   C12 4262   5.144   5.623  12.213 -0.1182 -0.2926 -0.4678
   34DOPE  H12A 4263   5.241   5.621  12.158  0.1287 -0.5570 -0.0267
   34DOPE  H12B 4264   5.097   5.526  12.185  0.5776 -0.6995 -0.2560
   34DOPE   C11 4265   5.163   5.622  12.358 -0.5156  0.1058 -0.1603
   34DOPE  H11A 4266   5.249   5.689  12.378 -1.1186  0.9834 -0.5063
   34DOPE  H11B 4267   5.183   5.517  12.390 -1.6073 -0.4378 -1.1834
   34DOPE     P 4268   4.961   5.616  12.519  0.0618  0.0452 -0.3805
   34DOPE   O13 4269   4.933   5.472  12.491  0.4135 -0.2538  1.0125
   34DOPE   O14 4270   4.844   5.702  12.537  1.0067  0.5989  0.3778
   34DOPE   O11 4271   5.046   5.622  12.651 -0.4252 -0.4475  0.5867
   34DOPE   O12 4272   5.053   5.685  12.425 -0.5529 -0.2498  0.4550
   34DOPE    C1 4273   5.099   5.746  12.703 -0.0083 -0.1536 -0.3599
   34DOPE    HA 4274   5.071   5.832  12.640  1.7597  1.1059  0.4794
   34DOPE    HB 4275   5.210   5.753  12.704 -0.1195  2.1965 -0.7612
   34DOPE    C2 4276   5.038   5.777  12.841 -0.3737  0.5664  0.2633
   34DOPE    HS 4277   5.076   5.876  12.875 -1.5064  1.6798 -1.5263
   34DOPE   O21 4278   5.069   5.677  12.931  0.3655  0.5662 -0.0317
   34DOPE   C21 4279   5.188   5.637  12.970  0.5584  0.0039  0.2951
   34DOPE   O22 4280   5.292   5.687  12.940 -0.6881  0.0108 -0.0596
   34DOPE   C22 4281   5.169   5.517  13.048  0.1915  1.7029  0.2001
   34DOPE   H2R 4282   5.140   5.442  12.971  1.7531 -0.0985  1.2769
   34DOPE   H2S 4283   5.077   5.531  13.109 -0.7315  0.2515 -0.8052
   34DOPE    C3 4284   4.885   5.800  12.835  0.0873 -0.1656  0.2571
   34DOPE    HX 4285   4.836   5.701  12.842 -2.6637  1.2135  2.6170
   34DOPE    HY 4286   4.846   5.854  12.746 -1.7680  0.1809  1.2455
   34DOPE   O31 4287   4.855   5.878  12.950  0.0642 -0.8588  0.2598
   34DOPE   C31 4288   4.722   5.876  12.968 -0.1083  0.3772 -0.0804
   34DOPE   O32 4289   4.649   5.828  12.883 -0.0324  0.4189 -0.0738
   34DOPE   C32 4290   4.675   5.931  13.102  0.1824  0.3416  0.2815
   34DOPE   H2X 4291   4.652   6.038  13.084 -0.1820  0.0303 -1.1961
   34DOPE   H2Y 4292   4.578   5.880  13.117 -0.1756  0.1409 -2.2821
   34DOPE   C23 4293   5.301   5.476  13.129  0.1676  0.3293  0.5009
   34DOPE   H3R 4294   5.335   5.563  13.189 -0.2369  1.1376 -0.4060
   34DOPE   H3S 4295   5.382   5.447  13.059  0.7770  1.2602  0.7990
   34DOPE   C24 4296   5.266   5.361  13.222 -0.4008  0.5644 -0.4172
   34DOPE   H4R 4297   5.228   5.273  13.166 -1.5038  0.6798  0.1116
   34DOPE   H4S 4298   5.183   5.385  13.292 -0.1233  2.7658 -0.7672
   34DOPE   C25 4299   5.390   5.305  13.296  0.7221 -0.8663 -0.0933
   34DOPE   H5R 4300   5.456   5.387  13.333  0.5785 -0.1646 -1.3283
   34DOPE   H5S 4301   5.455   5.258  13.220  1.4236  2.3368 -1.6354
   34DOPE   C26 4302   5.359   5.210  13.410 -0.2576 -0.1440  0.4608
   34DOPE   H6R 4303   5.292   5.131  13.369  0.7801 -1.4842  1.2319
   34DOPE   H6S 4304   5.304   5.255  13.495 -0.0413  0.1153  0.4644
   34DOPE   C27 4305   5.485   5.141  13.459  0.1123  0.3377 -0.0263
   34DOPE   H7R 4306   5.549   5.222  13.499  0.7938 -0.2660  0.1310
   34DOPE   H7S 4307   5.539   5.101  13.370 -0.1490  1.7472 -0.8372
   34DOPE   C28 4308   5.475   5.026  13.561  0.0162 -0.0735 -0.5580
   34DOPE   H8R 4309   5.560   4.954  13.557 -0.2120 -0.4040  0.2880
   34DOPE   H8S 4310   5.391   4.960  13.529  1.3887 -1.9922 -0.4175
   34DOPE   C29 4311   5.460   5.073  13.706 -0.1645 -0.3253  0.6216
   34DOPE   H9R 4312   5.552   5.102  13.758  0.6587 -0.7719 -0.5479
   34DOPE  C210 4313   5.351   5.068  13.780 -0.1931  0.6492  0.0681
   34DOPE  H10R 4314   5.345   5.104  13.884 -0.7606  1.0305 -0.0875
   34DOPE  C211 4315   5.211   5.027  13.731 -0.7830 -0.6470  0.6455
   34DOPE  H11R 4316   5.173   4.941  13.791 -0.2721 -4.2713 -3.6427
   34DOPE  H11S 4317   5.209   4.972  13.634  0.2434 -0.1997  0.3552
   34DOPE  C212 4318   5.110   5.150  13.733 -0.2871  0.4658 -0.3490
   34DOPE  H12R 4319   5.145   5.232  13.668 -0.3604 -1.0378 -2.3759
   34DOPE  H12S 4320   5.103   5.183  13.839 -0.4671  0.7783 -0.4587
   34DOPE  C213 4321   4.966   5.113  13.688 -0.3724  0.4551  0.0796
   34DOPE  H13R 4322   4.908   5.205  13.714  0.5319  1.2314 -0.5792
   34DOPE  H13S 4323   4.922   5.030  13.748 -1.9689  0.3537 -1.1505
   34DOPE  C214 4324   4.958   5.083  13.536 -0.1856  0.0299  0.3212
   34DOPE  H14R 4325   5.032   5.000  13.527 -0.3289 -0.4591  2.9294
   34DOPE  H14S 4326   4.988   5.173  13.479 -2.5569  0.4962 -0.2658
   34DOPE  C215 4327   4.813   5.057  13.496 -0.6436 -1.1580  0.0119
   34DOPE  H15R 4328   4.762   5.152  13.524 -0.8211 -1.1508 -0.3266
   34DOPE  H15S 4329   4.767   4.976  13.556  2.3003 -3.7813 -0.9908
   34DOPE  C216 4330   4.793   5.030  13.344 -0.4643 -0.1055 -0.1406
   34DOPE  H16R 4331   4.870   4.957  13.311  0.7002  0.6156  0.8714
   34DOPE  H16S 4332   4.824   5.115  13.280  1.7988 -1.8543 -1.5154
   34DOPE  C217 4333   4.654   4.978  13.315  0.3464  0.4120  0.4127
   34DOPE  H17R 4334   4.576   5.034  13.370 -0.5980 -0.2504 -0.2372
   34DOPE  H17S 4335   4.644   4.871  13.341 -0.6455  0.5911  0.7920
   34DOPE  C218 4336   4.618   4.986  13.167 -1.1483 -0.3758  0.4601
   34DOPE  H18R 4337   4.594   5.091  13.141 -0.6999 -1.0415 -3.1163
   34DOPE  H18S 4338   4.527   4.925  13.146 -0.8763 -0.6335  0.0122
   34DOPE  H18T 4339   4.703   4.955  13.102 -0.8064 -0.4948  0.9634
   34DOPE   C33 4340   4.774   5.921  13.223 -0.5271  0.4478 -0.2904
   34DOPE   H3X 4341   4.860   5.985  13.194  0.6254 -0.1245  1.6302
   34DOPE   H3Y 4342   4.819   5.819  13.227  0.9312  0.9701 -1.9836
   34DOPE   C34 4343   4.704   5.962  13.351 -0.3152 -0.1611  0.1649
   34DOPE   H4X 4344   4.670   6.068  13.350  0.0441 -0.0316  0.7350
   34DOPE   H4Y 4345   4.621   5.892  13.374 -2.2210  2.0659  0.4807
   34DOPE   C35 4346   4.797   5.953  13.473 -0.4575  0.6015  1.0978
   34DOPE   H5X 4347   4.884   6.022  13.476  1.4880 -1.7300  1.0044
   34DOPE   H5Y 4348   4.839   5.851  13.459 -0.4301  0.9350 -1.9185
   34DOPE   C36 4349   4.732   5.975  13.605 -0.1321 -0.0722 -0.7039
   34DOPE   H6X 4350   4.654   5.897  13.623 -0.3375 -0.2167 -2.1317
   34DOPE   H6Y 4351   4.676   6.070  13.599  1.5961  0.9014 -2.0531
   34DOPE   C37 4352   4.825   5.968  13.725 -0.6915  0.0880  0.8151
   34DOPE   H7X 4353   4.870   5.868  13.744  3.6954  1.5323 -0.6943
   34DOPE   H7Y 4354   4.920   6.017  13.694  3.0913 -5.9713  1.1798
   34DOPE   C38 4355   4.759   6.022  13.854  0.2025  0.3555 -0.0029
   34DOPE   H8X 4356   4.667   5.960  13.862  0.8027 -0.9642 -2.4105
   34DOPE   H8Y 4357   4.722   6.127  13.841 -1.5352  0.0469  1.7912
   34DOPE   C39 4358   4.853   6.007  13.976 -0.2603 -0.4868 -0.2147
   34DOPE   H9X 4359   4.873   5.900  13.995 -2.0843 -1.3681 -2.6822
   34DOPE  C310 4360   4.928   6.107  14.038 -0.2204  0.0149  0.5080
   34DOPE  H10X 4361   5.005   6.075  14.110  1.8553 -0.2392 -1.6715
   34DOPE  C311 4362   4.923   6.255  14.007 -0.0620  0.4210  0.6115
   34DOPE  H11X 4363   4.825   6.291  13.968  0.1672  0.4232  0.0346
   34DOPE  H11Y 4364   4.944   6.318  14.096  1.0586 -1.6306  1.8740
   34DOPE  C312 4365   5.043   6.286  13.918 -0.0374 -0.8604  0.3622
   34DOPE  H12X 4366   5.013   6.370  13.851 -0.8140 -0.8887  0.6736
   34DOPE  H12Y 4367   5.055   6.202  13.847  1.0006 -0.3247 -0.1230
   34DOPE  C313 4368   5.175   6.338  13.988  0.1024  0.1163 -0.2037
   34DOPE  H13X 4369   5.153   6.412  14.067  3.9611  1.2550 -0.0201
   34DOPE  H13Y 4370   5.200   6.247  14.047 -1.0306  1.1070  1.9069
   34DOPE  C314 4371   5.291   6.377  13.890 -0.5918  1.0743 -0.9211
   34DOPE  H14X 4372   5.287   6.308  13.803 -3.1277  2.2102 -1.8285
   34DOPE  H14Y 4373   5.385   6.364  13.948  0.1612  1.9289 -1.9141
   34DOPE  C315 4374   5.274   6.522  13.843 -0.4960  0.1934 -0.1447
   34DOPE  H15X 4375   5.268   6.584  13.935 -0.9452  0.5150 -0.3887
   34DOPE  H15Y 4376   5.179   6.540  13.789 -0.1538  0.6158 -0.6162
   34DOPE  C316 4377   5.395   6.573  13.758 -0.3544 -0.2623 -0.6187
   34DOPE  H16X 4378   5.484   6.513  13.787  0.3563 -0.3882 -2.8775
   34DOPE  H16Y 4379   5.409   6.683  13.763  2.1788 -0.4917 -1.1261
   34DOPE  C317 4380   5.377   6.549  13.606 -0.4447  0.0657 -0.0354
   34DOPE  H17X 4381   5.467   6.598  13.565 -0.0831  0.3089  1.0288
   34DOPE  H17Y 4382   5.397   6.444  13.577 -0.0009 -0.4415  1.9283
   34DOPE  C318 4383   5.253   6.611  13.530 -1.0863  0.1750  0.3603
   34DOPE  H18X 4384   5.254   6.604  13.419  0.7620  1.3528  0.2655
   34DOPE  H18Y 4385   5.161   6.558  13.563 -0.4383 -0.6397  0.8562
   34DOPE  H18Z 4386   5.257   6.721  13.549  1.8116  0.4380 -1.1811
   35DOPE     N 4387   6.392   1.799  12.205 -0.0707 -0.1575  0.3581
   35DOPE   HN1 4388   6.439   1.884  12.242  1.3154  0.1094 -1.8516
   35DOPE   HN2 4389   6.357   1.833  12.113 -0.9077 -0.9733  0.3508
   35DOPE   HN3 4390   6.313   1.758  12.259 -0.4187 -1.7094 -1.2071
   35DOPE   C12 4391   6.492   1.694  12.168  0.8622  0.5151 -0.0769
   35DOPE  H12A 4392   6.558   1.741  12.092  0.8571  2.1785  0.9055
   35DOPE  H12B 4393   6.433   1.613  12.118  0.7325  1.8138 -2.1432
   35DOPE   C11 4394   6.562   1.645  12.301 -0.0217 -0.1487 -0.1380
   35DOPE  H11A 4395   6.633   1.562  12.283  1.5704  0.8398  1.2784
   35DOPE  H11B 4396   6.482   1.612  12.370 -0.5680 -0.5050 -0.9239
   35DOPE     P 4397   6.677   1.765  12.503  0.0455 -0.0437 -0.3143
   35DOPE   O13 4398   6.730   1.899  12.528  0.4623  0.4808  0.0232
   35DOPE   O14 4399   6.763   1.658  12.557  0.0595  0.2669  0.0917
   35DOPE   O11 4400   6.532   1.756  12.578 -0.1654 -0.5171 -0.2747
   35DOPE   O12 4401   6.641   1.749  12.355  0.2006 -0.4763  0.2938
   35DOPE    C1 4402   6.430   1.857  12.541  0.9280 -0.2740  0.2224
   35DOPE    HA 4403   6.329   1.824  12.573  0.2572  1.3506 -0.0907
   35DOPE    HB 4404   6.427   1.871  12.431 -1.7608 -4.6497 -0.4883
   35DOPE    C2 4405   6.433   2.000  12.607  0.5688  0.4661  0.2943
   35DOPE    HS 4406   6.526   2.040  12.561  0.0995 -1.0239 -2.1175
   35DOPE   O21 4407   6.450   1.993  12.753  0.0394  0.6593  0.1374
   35DOPE   C21 4408   6.493   2.108  12.819 -0.2112 -0.3057 -0.1805
   35DOPE   O22 4409   6.533   2.207  12.764 -0.0754  0.3447 -0.2606
   35DOPE   C22 4410   6.465   2.092  12.966  0.2951  0.1013 -0.3563
   35DOPE   H2R 4411   6.470   1.987  13.002  0.5700 -0.0412 -0.8003
   35DOPE   H2S 4412   6.361   2.121  12.992 -0.1789 -0.2092 -1.8401
   35DOPE    C3 4413   6.303   2.092  12.570 -0.0849  0.3087  0.1387
   35DOPE    HX 4414   6.314   2.112  12.461 -1.3623  0.3320  0.0001
   35DOPE    HY 4415   6.318   2.192  12.616 -2.0145  0.3441  0.7827
   35DOPE   O31 4416   6.174   2.041  12.604  0.5627 -0.0580  0.8643
   35DOPE   C31 4417   6.121   2.074  12.723  0.0169  0.0186 -0.2597
   35DOPE   O32 4418   6.171   2.153  12.799  0.0552  0.1225  0.0916
   35DOPE   C32 4419   5.996   1.982  12.744 -0.3240 -0.3681 -0.0641
   35DOPE   H2X 4420   5.902   2.027  12.706 -0.4643 -0.3007  0.3524
   35DOPE   H2Y 4421   6.010   1.889  12.685  0.6959 -0.2469 -0.0360
   35DOPE   C23 4422   6.567   2.175  13.046 -0.0521  0.4499 -0.4518
   35DOPE   H3R 4423   6.535   2.169  13.152  0.4925 -1.8929 -0.3768
   35DOPE   H3S 4424   6.564   2.282  13.015  0.4277  0.5836 -0.0466
   35DOPE   C24 4425   6.715   2.119  13.051  0.3546 -0.2354 -0.0700
   35DOPE   H4R 4426   6.772   2.195  13.110  1.2634 -0.7290 -0.2834
   35DOPE   H4S 4427   6.768   2.120  12.953  0.5931 -0.0732  0.0590
   35DOPE   C25 4428   6.728   1.985  13.116 -0.4415 -0.4821 -0.1210
   35DOPE   H5R 4429   6.660   1.910  13.070  1.4259 -1.7587 -0.9188
   35DOPE   H5S 4430   6.689   1.998  13.219 -0.2588 -0.6162 -0.0339
   35DOPE   C26 4431   6.870   1.948  13.119 -0.2335  0.2882  0.4277
   35DOPE   H6R 4432   6.919   2.013  13.196 -0.3909 -0.7034  1.3796
   35DOPE   H6S 4433   6.915   1.955  13.017 -2.1632  1.0795 -0.4082
   35DOPE   C27 4434   6.880   1.801  13.174 -0.0597 -0.8136 -1.0014
   35DOPE   H7R 4435   6.832   1.737  13.098 -1.4963 -1.3552  0.3053
   35DOPE   H7S 4436   6.826   1.788  13.271  0.1775  0.2236 -0.7166
   35DOPE   C28 4437   7.026   1.759  13.202 -0.8176 -0.2578  0.2926
   35DOPE   H8R 4438   7.068   1.825  13.281 -2.1186 -1.6905  2.2628
   35DOPE   H8S 4439   7.072   1.779  13.103 -2.5205  1.1142 -0.2788
   35DOPE   C29 4440   7.041   1.621  13.252  0.3870  0.5973 -1.1733
   35DOPE   H9R 4441   6.976   1.544  13.207 -0.4299 -0.3332  1.4389
   35DOPE  C210 4442   7.106   1.566  13.359 -0.0384 -0.6267  0.2653
   35DOPE  H10R 4443   7.108   1.458  13.375  0.9388 -0.5845  0.4808
   35DOPE  C211 4444   7.198   1.645  13.453  0.6023  0.2663 -1.3178
   35DOPE  H11R 4445   7.202   1.754  13.434  1.3203  0.9549  2.1299
   35DOPE  H11S 4446   7.298   1.605  13.427 -0.0500 -1.5676 -1.1937
   35DOPE  C212 4447   7.147   1.619  13.600 -0.3146 -0.4941  0.2966
   35DOPE  H12R 4448   7.149   1.509  13.617  0.7469 -0.4324  0.6639
   35DOPE  H12S 4449   7.040   1.643  13.611 -0.4523 -0.4825 -0.9506
   35DOPE  C213 4450   7.230   1.690  13.712  0.4232 -1.4368 -0.0331
   35DOPE  H13R 4451   7.233   1.797  13.681  1.2074 -1.5623 -0.4104
   35DOPE  H13S 4452   7.333   1.652  13.730  1.2349  0.4452 -0.3712
   35DOPE  C214 4453   7.157   1.661  13.842  0.5230  0.2847 -0.0082
   35DOPE  H14R 4454   7.131   1.554  13.852  1.4348  0.0952  0.3461
   35DOPE  H14S 4455   7.062   1.719  13.837  0.7124  0.4935 -1.7684
   35DOPE  C215 4456   7.221   1.721  13.974  0.3808 -0.2898  0.7260
   35DOPE  H15R 4457   7.217   1.831  13.960 -2.8613 -0.2296  1.2496
   35DOPE  H15S 4458   7.326   1.686  13.972  0.5414  0.1612 -1.7220
   35DOPE  C216 4459   7.138   1.696  14.101 -0.4230  0.0708  0.1901
   35DOPE  H16R 4460   7.108   1.590  14.093  0.3423 -0.2065  0.8199
   35DOPE  H16S 4461   7.044   1.756  14.102 -1.5955 -1.6657  2.1238
   35DOPE  C217 4462   7.225   1.722  14.224  0.3860  0.1126  0.1126
   35DOPE  H17R 4463   7.237   1.832  14.230 -1.5583  0.2977  1.3687
   35DOPE  H17S 4464   7.321   1.667  14.211  0.2658 -0.0736  0.0025
   35DOPE  C218 4465   7.165   1.666  14.357 -0.7052 -0.5459  0.2062
   35DOPE  H18R 4466   7.142   1.557  14.348 -0.0195 -0.6306 -0.6243
   35DOPE  H18S 4467   7.064   1.712  14.362  0.1404  1.3184  1.1294
   35DOPE  H18T 4468   7.219   1.698  14.449  0.9191 -2.4937  0.0141
   35DOPE   C33 4469   5.976   1.937  12.892  0.2647  0.3965 -0.0903
   35DOPE   H3X 4470   5.868   1.913  12.904 -0.1987  1.7217 -1.2525
   35DOPE   H3Y 4471   6.003   2.019  12.962  1.3658  1.2009 -1.3827
   35DOPE   C34 4472   6.071   1.822  12.941 -0.1995  0.3259 -0.4121
   35DOPE   H4X 4473   6.036   1.787  13.041  1.4001 -0.4268 -0.0757
   35DOPE   H4Y 4474   6.072   1.734  12.873  2.0447  0.4269 -0.5972
   35DOPE   C35 4475   6.225   1.856  12.971  0.8848  0.8796 -0.2830
   35DOPE   H5X 4476   6.230   1.948  13.033 -0.6969 -0.7810  2.4806
   35DOPE   H5Y 4477   6.264   1.882  12.870 -3.3699 -1.5211 -2.8620
   35DOPE   C36 4478   6.295   1.739  13.039  0.2803  0.2270 -0.1690
   35DOPE   H6X 4479   6.244   1.709  13.133 -2.6068  0.8089 -1.4720
   35DOPE   H6Y 4480   6.404   1.758  13.055  0.6541 -2.1950  0.7264
   35DOPE   C37 4481   6.298   1.607  12.959 -0.5425 -0.2366 -0.2649
   35DOPE   H7X 4482   6.191   1.577  12.955 -1.1737  1.7658  0.0614
   35DOPE   H7Y 4483   6.332   1.635  12.858 -3.1024 -0.9531 -1.4176
   35DOPE   C38 4484   6.378   1.485  13.006 -0.5767  0.5116  0.5091
   35DOPE   H8X 4485   6.348   1.393  12.951 -1.5681 -0.2431  2.2137
   35DOPE   H8Y 4486   6.341   1.469  13.110 -1.1712  0.9276  0.3645
   35DOPE   C39 4487   6.526   1.512  13.002 -0.1497 -0.5826  0.0802
   35DOPE   H9X 4488   6.564   1.514  12.899  1.0671  0.7264  0.5297
   35DOPE  C310 4489   6.610   1.535  13.110 -0.1565  0.7372 -0.2061
   35DOPE  H10X 4490   6.715   1.553  13.084 -0.2879 -0.8586 -2.0439
   35DOPE  C311 4491   6.586   1.524  13.261  0.5706 -0.1310 -0.4130
   35DOPE  H11X 4492   6.633   1.600  13.327 -0.9395  0.5845 -0.1194
   35DOPE  H11Y 4493   6.478   1.544  13.276  0.9581  1.2501  0.8696
   35DOPE  C312 4494   6.626   1.383  13.290  0.2566  0.6315  0.0034
   35DOPE  H12X 4495   6.735   1.374  13.310  0.2355  0.6095  0.1087
   35DOPE  H12Y 4496   6.614   1.312  13.205 -1.7677  1.1571 -0.1881
   35DOPE  C313 4497   6.546   1.329  13.417 -0.3220 -0.6633 -0.5101
   35DOPE  H13X 4498   6.438   1.334  13.392  0.0860  1.4846 -2.1421
   35DOPE  H13Y 4499   6.568   1.225  13.448  0.2494 -0.6952 -0.9906
   35DOPE  C314 4500   6.573   1.425  13.530  0.6491  0.5102  0.0830
   35DOPE  H14X 4501   6.490   1.498  13.543 -0.6311 -1.1305  1.4424
   35DOPE  H14Y 4502   6.665   1.485  13.512  0.3490  0.7939 -0.5789
   35DOPE  C315 4503   6.599   1.344  13.661 -0.5281  0.0676  0.8157
   35DOPE  H15X 4504   6.702   1.303  13.661 -0.3511  0.4301  2.4241
   35DOPE  H15Y 4505   6.525   1.262  13.656 -0.3202 -0.1122  0.6673
   35DOPE  C316 4506   6.601   1.422  13.795 -0.1286 -0.4138  1.4518
   35DOPE  H16X 4507   6.618   1.344  13.872  0.4003 -1.5463  0.2030
   35DOPE  H16Y 4508   6.500   1.468  13.804  0.8208  2.3623 -0.7184
   35DOPE  C317 4509   6.706   1.533  13.814  0.2506  0.1439  0.2629
   35DOPE  H17X 4510   6.804   1.494  13.778 -0.1712  1.6466 -2.8491
   35DOPE  H17Y 4511   6.678   1.616  13.745  0.8051 -0.3390 -0.5644
   35DOPE  C318 4512   6.713   1.598  13.950 -0.0981  0.6028  0.4761
   35DOPE  H18X 4513   6.787   1.681  13.952  0.2314  0.3008  1.0534
   35DOPE  H18Y 4514   6.613   1.643  13.969 -0.2479  1.1902 -1.4498
   35DOPE  H18Z 4515   6.741   1.521  14.024 -0.8310 -2.5896 -2.2886
   36DOPE     N 4516   8.301   4.248  12.388  0.3361 -0.1571 -0.1407
   36DOPE   HN1 4517   8.317   4.259  12.286 -0.7511  0.5617 -0.2443
   36DOPE   HN2 4518   8.283   4.341  12.431  2.2297  0.7163 -1.1048
   36DOPE   HN3 4519   8.387   4.207  12.431  0.8883  0.2146 -0.8672
   36DOPE   C12 4520   8.184   4.157  12.412 -0.1171 -0.2452 -0.1611
   36DOPE  H12A 4521   8.162   4.166  12.521  1.9832 -0.7381  0.3533
   36DOPE  H12B 4522   8.202   4.048  12.398 -2.4019 -0.6228 -0.4280
   36DOPE   C11 4523   8.057   4.205  12.340  0.0045  0.3519  0.1662
   36DOPE  H11A 4524   7.985   4.129  12.376  1.3839  0.3776  3.2976
   36DOPE  H11B 4525   8.080   4.202  12.231  1.7154  2.2951  0.4090
   36DOPE     P 4526   7.870   4.379  12.344  0.2359  0.1040  0.4475
   36DOPE   O13 4527   7.826   4.300  12.227  0.0768  0.4207 -0.1101
   36DOPE   O14 4528   7.854   4.521  12.330  0.1212 -0.2891 -0.3598
   36DOPE   O11 4529   7.791   4.330  12.471  0.6006  0.2943 -0.0957
   36DOPE   O12 4530   8.020   4.343  12.379 -0.2779  0.2657  0.1629
   36DOPE    C1 4531   7.647   4.338  12.483 -0.4481  0.1043 -0.0086
   36DOPE    HA 4532   7.604   4.240  12.514 -1.5915 -0.1932 -2.3041
   36DOPE    HB 4533   7.604   4.355  12.381  1.6931  2.5139 -0.5984
   36DOPE    C2 4534   7.590   4.452  12.577 -0.0608 -0.2310  0.8529
   36DOPE    HS 4535   7.642   4.542  12.538  1.9113 -0.8117  1.9747
   36DOPE   O21 4536   7.622   4.422  12.716 -0.2793 -0.3099  0.0389
   36DOPE   C21 4537   7.648   4.540  12.782  0.4447  0.1647  0.4525
   36DOPE   O22 4538   7.621   4.649  12.740 -0.7793  0.1213  0.3482
   36DOPE   C22 4539   7.712   4.511  12.917 -0.0981 -0.3581 -0.1134
   36DOPE   H2R 4540   7.796   4.442  12.896 -1.3474 -1.4064 -2.0535
   36DOPE   H2S 4541   7.634   4.459  12.977 -0.8753 -0.9452 -1.5693
   36DOPE    C3 4542   7.432   4.451  12.569 -0.4323 -0.0838 -0.5314
   36DOPE    HX 4543   7.403   4.480  12.466  0.9760  0.0758 -0.9084
   36DOPE    HY 4544   7.398   4.531  12.638  0.4564  0.2659 -0.4813
   36DOPE   O31 4545   7.387   4.320  12.599 -0.5341 -0.4773 -0.4222
   36DOPE   C31 4546   7.265   4.302  12.645 -0.6671 -0.7769  0.4029
   36DOPE   O32 4547   7.187   4.391  12.679 -0.0436 -0.0563  0.1051
   36DOPE   C32 4548   7.237   4.148  12.663 -1.0166 -1.1760  0.1927
   36DOPE   H2X 4549   7.131   4.122  12.645 -0.9610 -1.2962  0.0303
   36DOPE   H2Y 4550   7.308   4.094  12.596 -0.6138  1.2577 -1.4729
   36DOPE   C23 4551   7.764   4.649  12.982  0.6003 -0.1080  0.1301
   36DOPE   H3R 4552   7.674   4.708  13.008  0.3383  0.5705 -2.1092
   36DOPE   H3S 4553   7.815   4.708  12.902 -1.4150  0.7281 -0.5875
   36DOPE   C24 4554   7.857   4.618  13.102  0.6536  0.1987 -0.3011
   36DOPE   H4R 4555   7.898   4.719  13.127 -1.2730  1.5268 -2.0900
   36DOPE   H4S 4556   7.937   4.550  13.066 -0.2135 -1.2943  0.4927
   36DOPE   C25 4557   7.781   4.545  13.217 -0.3371 -0.2904 -0.6624
   36DOPE   H5R 4558   7.722   4.467  13.165 -0.5464  0.5690 -1.7470
   36DOPE   H5S 4559   7.704   4.615  13.258  1.9352  1.2954  1.1487
   36DOPE   C26 4560   7.875   4.502  13.331  0.2152  0.0317 -0.0656
   36DOPE   H6R 4561   7.823   4.506  13.429 -1.0089 -1.4084 -0.6295
   36DOPE   H6S 4562   7.959   4.575  13.335  0.9204 -0.7148 -0.9421
   36DOPE   C27 4563   7.922   4.363  13.294 -0.4763  0.2843  0.2243
   36DOPE   H7R 4564   7.977   4.374  13.198  0.2960 -0.6112  0.5399
   36DOPE   H7S 4565   7.838   4.298  13.261  1.0457 -1.0315 -1.2019
   36DOPE   C28 4566   7.998   4.288  13.404  0.2313  0.3502  0.3180
   36DOPE   H8R 4567   8.002   4.183  13.368 -1.5589  0.3406  0.0312
   36DOPE   H8S 4568   7.943   4.292  13.501  1.3518  0.2381  0.9736
   36DOPE   C29 4569   8.133   4.349  13.405 -0.0466 -0.8702 -0.3378
   36DOPE   H9R 4570   8.188   4.338  13.310  0.5090  0.1902 -0.1536
   36DOPE  C210 4571   8.177   4.431  13.498  0.6195  0.5322 -0.7396
   36DOPE  H10R 4572   8.274   4.479  13.477  0.8263 -0.9819 -3.6774
   36DOPE  C211 4573   8.110   4.462  13.636  0.4882 -0.2761 -0.5050
   36DOPE  H11R 4574   8.116   4.375  13.705  0.7253 -0.8004 -1.1708
   36DOPE  H11S 4575   7.999   4.473  13.634  0.4418  0.2978  1.9788
   36DOPE  C212 4576   8.175   4.582  13.706 -0.9836  0.3492  0.6997
   36DOPE  H12R 4577   8.170   4.656  13.624 -2.0380  1.0448  1.3623
   36DOPE  H12S 4578   8.277   4.552  13.738 -1.2889 -0.1829  1.1851
   36DOPE  C213 4579   8.103   4.626  13.832  0.5165 -0.3665 -0.2780
   36DOPE  H13R 4580   8.128   4.552  13.910 -3.6245 -0.0119  1.6578
   36DOPE  H13S 4581   7.994   4.606  13.828  0.4446 -0.0702  0.1668
   36DOPE  C214 4582   8.121   4.775  13.869  0.8847  0.0028  0.2541
   36DOPE  H14R 4583   8.089   4.838  13.783 -1.5135  1.2987  1.9856
   36DOPE  H14S 4584   8.231   4.784  13.882  0.7915 -0.4481  1.4454
   36DOPE  C215 4585   8.043   4.811  14.007 -0.3694  0.1395  0.1552
   36DOPE  H15R 4586   8.099   4.746  14.078  0.6533 -1.0868 -1.6820
   36DOPE  H15S 4587   7.936   4.783  13.998 -0.5758  0.5701  1.1970
   36DOPE  C216 4588   8.046   4.957  14.043  0.0516 -1.0011  0.7295
   36DOPE  H16R 4589   7.961   4.972  14.113 -1.3246 -0.4057 -0.9936
   36DOPE  H16S 4590   8.007   5.018  13.959 -0.8321 -2.5909 -0.0653
   36DOPE  C217 4591   8.176   5.008  14.092  0.3441  0.4233 -1.1964
   36DOPE  H17R 4592   8.248   5.040  14.014  2.0547  3.4547  1.3578
   36DOPE  H17S 4593   8.225   4.928  14.152  0.0928  0.3519 -1.0864
   36DOPE  C218 4594   8.146   5.135  14.172 -0.3884 -0.4972  0.7659
   36DOPE  H18R 4595   8.079   5.125  14.260 -0.3203 -2.9927  0.6223
   36DOPE  H18S 4596   8.104   5.212  14.103  1.8070  1.5912  1.6281
   36DOPE  H18T 4597   8.242   5.173  14.211  0.1406 -1.4604  0.4489
   36DOPE   C33 4598   7.261   4.109  12.815  0.7638 -1.0054  0.0692
   36DOPE   H3X 4599   7.197   4.178  12.874 -0.6246 -2.1744  0.0021
   36DOPE   H3Y 4600   7.365   4.122  12.850  0.4598 -0.6682  0.8657
   36DOPE   C34 4601   7.208   3.965  12.839 -0.5998 -0.3246 -0.2608
   36DOPE   H4X 4602   7.099   3.958  12.815 -0.8982  2.1192  0.1511
   36DOPE   H4Y 4603   7.255   3.890  12.771 -1.1214 -0.8950  0.0020
   36DOPE   C35 4604   7.218   3.918  12.988  0.3067  0.2241  0.6110
   36DOPE   H5X 4605   7.327   3.916  13.010  0.6264 -1.1228 -0.8699
   36DOPE   H5Y 4606   7.165   3.820  12.994  0.7196 -0.2149 -1.7744
   36DOPE   C36 4607   7.155   4.006  13.098  0.2739  0.8262  0.1394
   36DOPE   H6X 4608   7.045   4.015  13.084  0.5736  2.3094 -1.5514
   36DOPE   H6Y 4609   7.194   4.108  13.081 -1.3943  1.5532  0.5060
   36DOPE   C37 4610   7.188   3.956  13.239 -0.0072  0.6214  0.7441
   36DOPE   H7X 4611   7.140   3.858  13.255  0.6976 -0.3608 -2.4149
   36DOPE   H7Y 4612   7.295   3.930  13.242 -0.1770 -0.0402  2.9827
   36DOPE   C38 4613   7.139   4.052  13.351 -0.2093 -0.2309  0.0382
   36DOPE   H8X 4614   7.036   4.040  13.391 -0.2196  1.8941  0.7945
   36DOPE   H8Y 4615   7.139   4.155  13.309  1.0488 -1.0909 -2.2527
   36DOPE   C39 4616   7.235   4.069  13.465  0.4324 -0.3730 -0.1508
   36DOPE   H9X 4617   7.330   4.016  13.448  0.7235 -0.8102  2.4440
   36DOPE  C310 4618   7.207   4.134  13.578 -0.1806  0.6160 -0.0479
   36DOPE  H10X 4619   7.289   4.130  13.651  0.0043  1.4051 -0.2047
   36DOPE  C311 4620   7.076   4.205  13.615 -0.6126  0.1519 -0.3282
   36DOPE  H11X 4621   7.098   4.314  13.611 -2.8187  0.9544  3.9284
   36DOPE  H11Y 4622   6.992   4.185  13.546 -0.2818 -0.8279 -0.4610
   36DOPE  C312 4623   7.029   4.188  13.766 -0.0895 -0.0569  0.0981
   36DOPE  H12X 4624   7.113   4.220  13.832  0.2399 -1.7516  0.5489
   36DOPE  H12Y 4625   7.005   4.082  13.787  1.5226 -0.3769  0.4658
   36DOPE  C313 4626   6.901   4.278  13.802 -0.1569  0.1087  0.2908
   36DOPE  H13X 4627   6.902   4.367  13.735 -1.3937 -0.6770 -0.8178
   36DOPE  H13Y 4628   6.810   4.222  13.773  1.0316 -1.6851 -0.1081
   36DOPE  C314 4629   6.907   4.350  13.938  0.3934 -0.0392 -0.2143
   36DOPE  H14X 4630   6.817   4.413  13.957 -0.1635 -0.3062 -1.8409
   36DOPE  H14Y 4631   6.990   4.424  13.938 -0.1049  0.5273 -0.6921
   36DOPE  C315 4632   6.920   4.256  14.058  0.4541 -0.1388  0.5096
   36DOPE  H15X 4633   7.028   4.234  14.067  0.5883  0.5117  0.5070
   36DOPE  H15Y 4634   6.851   4.169  14.046 -0.0562  0.3486 -0.2642
   36DOPE  C316 4635   6.872   4.315  14.189  0.2534  0.4750 -0.0840
   36DOPE  H16X 4636   6.762   4.327  14.180  0.4115  0.9913 -1.5317
   36DOPE  H16Y 4637   6.911   4.417  14.210  1.3021  0.9008 -3.4970
   36DOPE  C317 4638   6.911   4.225  14.312  0.3467 -0.2214  0.2191
   36DOPE  H17X 4639   7.016   4.199  14.287  1.0545 -0.4636  3.1398
   36DOPE  H17Y 4640   6.911   4.289  14.403  0.1578  0.1108 -0.0105
   36DOPE  C318 4641   6.807   4.106  14.319  0.0421  0.5994  0.1023
   36DOPE  H18X 4642   6.817   4.048  14.225  2.0676 -1.5531  1.5656
   36DOPE  H18Y 4643   6.825   4.039  14.406  0.4222 -1.2723 -1.3633
   36DOPE  H18Z 4644   6.702   4.144  14.322 -0.9629 -1.9990  1.3104
   37DOPE     N 4645   5.836   2.977  12.168 -0.5820  0.2307 -0.2330
   37DOPE   HN1 4646   5.842   3.000  12.067  1.0405  0.0628 -0.2003
   37DOPE   HN2 4647   5.933   2.991  12.205 -0.4974 -0.1912 -0.2929
   37DOPE   HN3 4648   5.797   2.881  12.175 -2.0226  0.6161 -2.2179
   37DOPE   C12 4649   5.760   3.078  12.249 -0.6382  0.5244  0.2290
   37DOPE  H12A 4650   5.745   3.034  12.350 -1.5958  0.3180  0.0035
   37DOPE  H12B 4651   5.670   3.099  12.187 -0.1566  0.6815 -0.4196
   37DOPE   C11 4652   5.831   3.214  12.262 -0.1044  0.9957 -0.3920
   37DOPE  H11A 4653   5.768   3.292  12.311  0.0415  1.7025 -1.3050
   37DOPE  H11B 4654   5.850   3.251  12.159  0.4610 -1.4327 -1.2225
   37DOPE     P 4655   6.054   3.322  12.350  0.1293  0.2381 -0.0676
   37DOPE   O13 4656   5.981   3.449  12.329  0.4120 -0.0742  0.3319
   37DOPE   O14 4657   6.189   3.306  12.284  0.2539 -0.3362 -0.1126
   37DOPE   O11 4658   6.076   3.309  12.511 -0.1920 -0.2530 -0.1456
   37DOPE   O12 4659   5.960   3.201  12.319  0.0660 -0.1122  0.3961
   37DOPE    C1 4660   5.978   3.242  12.604 -0.3421 -0.2234 -0.0628
   37DOPE    HA 4661   6.025   3.202  12.697  0.4204 -0.0029 -0.3452
   37DOPE    HB 4662   5.935   3.150  12.557 -1.5125  1.7194 -3.0973
   37DOPE    C2 4663   5.861   3.333  12.659  0.5155 -0.5801  0.3132
   37DOPE    HS 4664   5.818   3.366  12.563 -0.3565 -1.1591  0.4942
   37DOPE   O21 4665   5.903   3.448  12.734  0.3978  0.0832  0.0131
   37DOPE   C21 4666   5.823   3.555  12.719 -0.0312  0.5194 -0.0164
   37DOPE   O22 4667   5.732   3.564  12.641 -0.4743 -0.2904 -0.5477
   37DOPE   C22 4668   5.858   3.653  12.834 -0.0536  0.1752  0.2672
   37DOPE   H2R 4669   5.792   3.742  12.826  0.2896  0.4486  0.4320
   37DOPE   H2S 4670   5.962   3.689  12.814  0.7079 -2.7538 -1.6563
   37DOPE    C3 4671   5.750   3.247  12.725  0.6379  0.6466  0.1268
   37DOPE    HX 4672   5.719   3.183  12.640  0.3326  1.3664 -0.3160
   37DOPE    HY 4673   5.665   3.314  12.749 -0.8258 -1.1185  0.1094
   37DOPE   O31 4674   5.792   3.166  12.838 -0.2765 -0.2630 -0.1935
   37DOPE   C31 4675   5.701   3.088  12.888  0.3589 -0.0758 -0.9579
   37DOPE   O32 4676   5.583   3.095  12.860  1.0470  0.4029 -0.6849
   37DOPE   C32 4677   5.764   3.006  12.997  0.1623 -0.0987 -0.0756
   37DOPE   H2X 4678   5.855   2.952  12.965  0.3226 -0.4559  0.9395
   37DOPE   H2Y 4679   5.819   3.079  13.060  1.3458 -1.4175  0.4566
   37DOPE   C23 4680   5.857   3.594  12.979  0.2514 -0.7898  0.4941
   37DOPE   H3R 4681   5.893   3.674  13.047 -1.4893 -0.0439  0.5793
   37DOPE   H3S 4682   5.921   3.503  12.974  1.1768 -0.0977 -2.0962
   37DOPE   C24 4683   5.721   3.541  13.015 -0.0156  0.5957 -0.5842
   37DOPE   H4R 4684   5.724   3.519  13.124  1.6134  1.3695 -0.4517
   37DOPE   H4S 4685   5.703   3.443  12.965  1.2421 -0.3269  0.6888
   37DOPE   C25 4686   5.596   3.631  12.990  0.4130 -0.3471 -0.1021
   37DOPE   H5R 4687   5.566   3.614  12.884  1.0227 -1.1063 -0.1634
   37DOPE   H5S 4688   5.620   3.739  12.995 -0.7177 -0.0626 -0.6053
   37DOPE   C26 4689   5.478   3.583  13.084  0.4923  0.2489  0.0261
   37DOPE   H6R 4690   5.473   3.472  13.090  2.7666  0.1590  1.3715
   37DOPE   H6S 4691   5.387   3.617  13.030  0.1081 -0.1100  0.4442
   37DOPE   C27 4692   5.478   3.653  13.223 -0.1424  0.2026  0.2440
   37DOPE   H7R 4693   5.458   3.762  13.214  2.6593  0.7518 -0.4394
   37DOPE   H7S 4694   5.582   3.646  13.264 -0.3249 -0.3574  0.6190
   37DOPE   C28 4695   5.372   3.594  13.308  0.3114 -0.6575 -0.1905
   37DOPE   H8R 4696   5.393   3.487  13.325 -3.0320 -1.4881 -0.4470
   37DOPE   H8S 4697   5.273   3.606  13.258  0.1196  0.6319  0.4411
   37DOPE   C29 4698   5.368   3.663  13.438 -0.0206 -0.9435  0.8206
   37DOPE   H9R 4699   5.284   3.732  13.454 -0.6295 -1.5482  0.3118
   37DOPE  C210 4700   5.463   3.648  13.536 -0.0194 -0.1077 -0.1006
   37DOPE  H10R 4701   5.450   3.717  13.621  1.5452  2.3321 -1.7066
   37DOPE  C211 4702   5.589   3.557  13.553  0.1912 -0.0032 -0.3542
   37DOPE  H11R 4703   5.593   3.477  13.476 -2.4252 -0.4290 -0.1638
   37DOPE  H11S 4704   5.577   3.506  13.651 -3.7139  1.0754 -0.0842
   37DOPE  C212 4705   5.719   3.631  13.543  0.4317 -0.7331  0.3599
   37DOPE  H12R 4706   5.752   3.671  13.642  1.0200 -1.1589  0.3378
   37DOPE  H12S 4707   5.710   3.717  13.474  0.9258 -0.7754  0.2372
   37DOPE  C213 4708   5.831   3.537  13.507 -0.9089 -0.1658 -0.2711
   37DOPE  H13R 4709   5.930   3.586  13.523 -0.7950 -0.5419  0.1870
   37DOPE  H13S 4710   5.830   3.504  13.401  2.0293  1.5050 -0.9460
   37DOPE  C214 4711   5.831   3.412  13.602  0.4618  0.3089 -0.4152
   37DOPE  H14R 4712   5.907   3.339  13.566  0.3827 -0.0873  0.2026
   37DOPE  H14S 4713   5.730   3.364  13.601  0.4392  0.3630 -1.2561
   37DOPE  C215 4714   5.867   3.437  13.747 -0.1426 -1.2257  0.1877
   37DOPE  H15R 4715   5.783   3.501  13.783  1.2420  1.2723 -0.8049
   37DOPE  H15S 4716   5.960   3.497  13.741  0.1178 -1.5651  0.7385
   37DOPE  C216 4717   5.882   3.320  13.840  0.4688 -0.9549 -0.1540
   37DOPE  H16R 4718   5.883   3.351  13.947 -0.1771 -2.4037  0.3001
   37DOPE  H16S 4719   5.972   3.263  13.811  3.5407  3.9047 -1.2142
   37DOPE  C217 4720   5.762   3.217  13.831  0.4761 -0.2093 -0.4886
   37DOPE  H17R 4721   5.770   3.148  13.744  1.6440 -0.9000  0.1410
   37DOPE  H17S 4722   5.667   3.273  13.842  0.9535  0.1752  2.5324
   37DOPE  C218 4723   5.773   3.130  13.948  0.1115 -0.0503 -0.0557
   37DOPE  H18R 4724   5.688   3.059  13.959  0.5683 -0.3873  1.7136
   37DOPE  H18S 4725   5.772   3.190  14.041  0.8089 -0.0671 -0.0363
   37DOPE  H18T 4726   5.861   3.063  13.940  0.7725  0.4949  2.0646
   37DOPE   C33 4727   5.688   2.904  13.073 -0.0429 -0.4196 -0.4056
   37DOPE   H3X 4728   5.674   2.809  13.018 -0.3085 -0.9273  0.5067
   37DOPE   H3Y 4729   5.585   2.946  13.080 -0.1107 -0.6376 -0.0612
   37DOPE   C34 4730   5.746   2.892  13.216  0.2621 -0.5599  0.5406
   37DOPE   H4X 4731   5.759   2.990  13.266  1.5182  1.2293 -2.9060
   37DOPE   H4Y 4732   5.684   2.832  13.286  0.4597  0.9122  2.0300
   37DOPE   C35 4733   5.882   2.822  13.217 -0.5526  1.0398  0.2097
   37DOPE   H5X 4734   5.955   2.879  13.155  0.5750 -0.4856  0.0873
   37DOPE   H5Y 4735   5.884   2.717  13.181 -0.4360  1.2554 -0.4161
   37DOPE   C36 4736   5.950   2.824  13.355  0.5685 -0.4422  0.4834
   37DOPE   H6X 4737   5.956   2.932  13.381 -1.0391 -0.2728  0.2326
   37DOPE   H6Y 4738   6.057   2.795  13.344  0.6471  0.1308 -0.3678
   37DOPE   C37 4739   5.885   2.736  13.463  0.0635 -0.0919  0.7408
   37DOPE   H7X 4740   5.786   2.781  13.482  0.7704  1.1881  1.4732
   37DOPE   H7Y 4741   5.873   2.635  13.417  2.0234  1.0593 -2.7496
   37DOPE   C38 4742   5.970   2.733  13.590  0.0796  0.0745 -0.5866
   37DOPE   H8X 4743   6.072   2.702  13.559 -0.4837 -1.3023 -1.1469
   37DOPE   H8Y 4744   5.930   2.653  13.656 -0.8252  1.0573  0.0817
   37DOPE   C39 4745   5.960   2.860  13.669 -0.4365 -0.8851  0.5269
   37DOPE   H9X 4746   5.889   2.939  13.639 -1.3803 -1.8747  0.0911
   37DOPE  C310 4747   6.061   2.900  13.748 -0.3584 -0.2813 -0.0555
   37DOPE  H10X 4748   6.065   3.004  13.783  2.8164 -0.0873 -0.6479
   37DOPE  C311 4749   6.178   2.815  13.787  0.3950  0.1221  0.3944
   37DOPE  H11X 4750   6.146   2.710  13.775 -1.6028  0.6374  0.8620
   37DOPE  H11Y 4751   6.274   2.835  13.734 -0.4991  0.9148 -0.9834
   37DOPE  C312 4752   6.195   2.848  13.942  0.4276  0.6897 -0.2689
   37DOPE  H12X 4753   6.267   2.784  13.998 -0.6611  1.2777  1.8897
   37DOPE  H12Y 4754   6.095   2.818  13.980  0.8309  0.2845  0.5017
   37DOPE  C313 4755   6.226   2.993  13.983  1.1832 -0.1532  0.6046
   37DOPE  H13X 4756   6.304   3.027  13.912  1.5059  0.2802  1.1601
   37DOPE  H13Y 4757   6.134   3.051  13.959  2.9305  1.6342 -2.4063
   37DOPE  C314 4758   6.257   3.012  14.129  0.1630  0.5786 -0.1169
   37DOPE  H14X 4759   6.291   3.117  14.135  0.2028  0.6026 -0.6663
   37DOPE  H14Y 4760   6.332   2.932  14.145 -1.9700 -1.4998  0.0434
   37DOPE  C315 4761   6.139   2.990  14.225 -0.5043  0.0676 -0.2429
   37DOPE  H15X 4762   6.103   2.886  14.215  0.6884 -0.4923  1.0289
   37DOPE  H15Y 4763   6.064   3.067  14.194  1.2178  1.7055 -0.5551
   37DOPE  C316 4764   6.186   3.005  14.378  0.1317  0.0031 -0.3752
   37DOPE  H16X 4765   6.100   3.036  14.442 -0.0157 -0.2254 -0.4605
   37DOPE  H16Y 4766   6.262   3.086  14.378  1.5577 -1.2979 -0.4045
   37DOPE  C317 4767   6.231   2.877  14.434 -0.2327 -0.1917 -0.3500
   37DOPE  H17X 4768   6.140   2.817  14.457 -0.0227 -0.5660 -0.4720
   37DOPE  H17Y 4769   6.301   2.830  14.361 -0.6675 -0.2607 -0.7262
   37DOPE  C318 4770   6.312   2.903  14.562  0.1212 -0.2257 -0.0038
   37DOPE  H18X 4771   6.244   2.950  14.636 -2.4239 -2.4912 -0.7448
   37DOPE  H18Y 4772   6.350   2.810  14.611 -1.2937 -0.0053  1.5872
   37DOPE  H18Z 4773   6.392   2.977  14.541  0.0584 -0.1932 -0.1212
   38DOPE     N 4774   7.141   7.051  12.258  0.1146 -0.4434 -0.5361
   38DOPE   HN1 4775   7.143   6.951  12.231 -0.8369 -0.8994  0.9763
   38DOPE   HN2 4776   7.043   7.080  12.278  0.5957  1.0039 -0.1068
   38DOPE   HN3 4777   7.200   7.102  12.189  1.1118  1.4636  1.5775
   38DOPE   C12 4778   7.222   7.062  12.387  0.4273 -0.1295  0.2294
   38DOPE  H12A 4779   7.182   6.993  12.464  2.7629 -0.5878  1.1272
   38DOPE  H12B 4780   7.205   7.163  12.430 -0.1320 -0.2021  0.1856
   38DOPE   C11 4781   7.371   7.023  12.356 -0.2219 -0.5728  0.8618
   38DOPE  H11A 4782   7.441   7.028  12.442  1.8172  2.7888 -0.7603
   38DOPE  H11B 4783   7.411   7.109  12.298  0.3392 -0.1032  1.9236
   38DOPE     P 4784   7.467   6.773  12.327  0.2496 -0.2479 -0.3489
   38DOPE   O13 4785   7.614   6.794  12.325 -0.7780  0.0433  0.7073
   38DOPE   O14 4786   7.415   6.659  12.249 -0.0471  0.7867  0.0830
   38DOPE   O11 4787   7.424   6.758  12.471  0.2128  0.0167  0.0150
   38DOPE   O12 4788   7.386   6.902  12.279  0.1456 -0.3983  0.1531
   38DOPE    C1 4789   7.288   6.748  12.516 -0.0309 -0.1564 -0.3215
   38DOPE    HA 4790   7.222   6.720  12.431 -1.2310 -0.8891  0.8210
   38DOPE    HB 4791   7.249   6.844  12.555 -2.5641 -1.1641 -0.2365
   38DOPE    C2 4792   7.286   6.635  12.617 -0.1317  0.4479 -0.0855
   38DOPE    HS 4793   7.182   6.596  12.623 -0.7821  2.1826  0.5477
   38DOPE   O21 4794   7.343   6.668  12.743 -0.5819  0.3939 -0.0707
   38DOPE   C21 4795   7.270   6.745  12.811 -0.8290 -0.4718  0.4491
   38DOPE   O22 4796   7.165   6.794  12.775  0.4063  0.0737  0.0701
   38DOPE   C22 4797   7.326   6.751  12.947 -0.4971  0.2828  0.4726
   38DOPE   H2R 4798   7.435   6.770  12.937 -0.5629  0.1839 -0.5308
   38DOPE   H2S 4799   7.304   6.654  12.998 -2.6631  0.1229 -0.6420
   38DOPE    C3 4800   7.356   6.511  12.566 -0.0058  1.0495 -0.0861
   38DOPE    HX 4801   7.464   6.531  12.577  0.9237 -2.6294 -0.9373
   38DOPE    HY 4802   7.344   6.481  12.459 -0.0589 -1.5029  0.5593
   38DOPE   O31 4803   7.318   6.388  12.638 -0.0180 -0.5477  0.0496
   38DOPE   C31 4804   7.398   6.354  12.740 -0.0580  0.0390 -0.1514
   38DOPE   O32 4805   7.497   6.417  12.767 -0.0483  0.2203  0.2897
   38DOPE   C32 4806   7.346   6.229  12.808  0.7040  0.1333  0.1019
   38DOPE   H2X 4807   7.235   6.238  12.811  0.7526  0.8215 -0.0436
   38DOPE   H2Y 4808   7.379   6.145  12.743  0.8700  0.5683 -0.3806
   38DOPE   C23 4809   7.274   6.867  13.033 -0.2490 -0.0881 -0.3643
   38DOPE   H3R 4810   7.282   6.964  12.980 -3.0102  0.0979 -0.5626
   38DOPE   H3S 4811   7.339   6.874  13.123 -0.0680 -0.7284 -0.4432
   38DOPE   C24 4812   7.130   6.859  13.082  0.5556  0.1407 -0.2065
   38DOPE   H4R 4813   7.128   6.793  13.171  0.9750 -1.0730 -1.0680
   38DOPE   H4S 4814   7.065   6.814  13.004 -1.2167  1.8961  0.1766
   38DOPE   C25 4815   7.063   6.995  13.118  0.7663 -0.2082 -0.1092
   38DOPE   H5R 4816   7.032   7.036  13.019 -1.6264 -1.9185 -0.1534
   38DOPE   H5S 4817   7.140   7.064  13.160  1.1108 -0.0807 -0.9172
   38DOPE   C26 4818   6.927   6.978  13.195 -0.4886 -0.3078  0.2163
   38DOPE   H6R 4819   6.851   6.914  13.145 -1.0807  1.5403 -1.4054
   38DOPE   H6S 4820   6.880   7.079  13.190  0.8600  0.4336  1.6967
   38DOPE   C27 4821   6.944   6.937  13.343 -0.2035 -0.1810 -0.5484
   38DOPE   H7R 4822   7.000   7.014  13.400  0.4835  0.1320 -1.6192
   38DOPE   H7S 4823   7.014   6.851  13.340 -0.3456 -0.2864 -0.8220
   38DOPE   C28 4824   6.807   6.907  13.411 -0.6925 -0.0233  0.7876
   38DOPE   H8R 4825   6.814   6.882  13.519 -0.3738  0.9863  1.0158
   38DOPE   H8S 4826   6.776   6.814  13.359  2.6609  1.1147 -3.8430
   38DOPE   C29 4827   6.717   7.025  13.397 -0.3167  0.2897  0.7638
   38DOPE   H9R 4828   6.667   7.035  13.299 -0.7667 -1.3997  0.7928
   38DOPE  C210 4829   6.693   7.128  13.483  0.2030  0.2164  0.7304
   38DOPE  H10R 4830   6.631   7.212  13.451 -0.4823 -0.6957 -0.4269
   38DOPE  C211 4831   6.765   7.132  13.613 -0.6057  0.2223 -0.0734
   38DOPE  H11R 4832   6.863   7.181  13.596 -0.2226 -1.0155 -1.6337
   38DOPE  H11S 4833   6.795   7.035  13.658 -0.7154  0.2490  0.0586
   38DOPE  C212 4834   6.673   7.202  13.713  0.4781  0.0592  0.0754
   38DOPE  H12R 4835   6.576   7.150  13.701  0.3725  0.4565 -0.9317
   38DOPE  H12S 4836   6.658   7.305  13.675 -1.5253 -0.2254  0.0025
   38DOPE  C213 4837   6.741   7.223  13.847  0.2579 -0.2319 -0.2380
   38DOPE  H13R 4838   6.704   7.316  13.896 -4.2538 -1.6472 -0.5323
   38DOPE  H13S 4839   6.851   7.228  13.837  0.2536  0.2672 -0.0553
   38DOPE  C214 4840   6.720   7.094  13.935  0.0165 -0.4872  0.2033
   38DOPE  H14R 4841   6.783   7.012  13.893  1.5883  1.0758 -0.6107
   38DOPE  H14S 4842   6.612   7.069  13.935  0.2720 -1.7243 -0.7079
   38DOPE  C215 4843   6.769   7.104  14.081  0.2389  0.6276 -0.0865
   38DOPE  H15R 4844   6.717   7.187  14.134 -1.4709  0.5425 -1.5416
   38DOPE  H15S 4845   6.875   7.136  14.089 -0.2979  2.1140  2.2789
   38DOPE  C216 4846   6.750   6.983  14.180 -0.2373  0.2009  0.4769
   38DOPE  H16R 4847   6.800   6.895  14.134 -0.1893  1.5035 -2.1680
   38DOPE  H16S 4848   6.641   6.967  14.192 -0.5081  2.0634  0.9007
   38DOPE  C217 4849   6.813   7.009  14.321 -0.1363 -0.0199 -0.9616
   38DOPE  H17R 4850   6.923   7.023  14.308  0.1957 -1.1497  0.4153
   38DOPE  H17S 4851   6.808   6.917  14.383 -1.0991  0.9902  0.5521
   38DOPE  C218 4852   6.757   7.121  14.401  0.8071  0.0456 -0.0697
   38DOPE  H18R 4853   6.663   7.086  14.450  0.8920 -0.6645 -0.3910
   38DOPE  H18S 4854   6.736   7.208  14.336 -0.8943 -0.0047  0.3791
   38DOPE  H18T 4855   6.814   7.154  14.490 -0.0893 -1.8182  1.2746
   38DOPE   C33 4856   7.411   6.200  12.952  0.4454  0.1199  0.0297
   38DOPE   H3X 4857   7.522   6.197  12.946  0.5242  1.9764 -0.0050
   38DOPE   H3Y 4858   7.378   6.100  12.988  1.8905 -0.4052 -0.0788
   38DOPE   C34 4859   7.368   6.286  13.075  0.3667  0.5311 -0.3184
   38DOPE   H4X 4860   7.376   6.395  13.053 -1.2441  0.6857 -0.2556
   38DOPE   H4Y 4861   7.260   6.275  13.096  0.6461  1.5357  1.9842
   38DOPE   C35 4862   7.438   6.247  13.204  0.6615  0.5702  0.2016
   38DOPE   H5X 4863   7.544   6.278  13.192  1.2173  0.1554  3.2141
   38DOPE   H5Y 4864   7.434   6.136  13.207 -1.1430  0.6067  0.2695
   38DOPE   C36 4865   7.398   6.313  13.337  0.2118  0.2446  0.4836
   38DOPE   H6X 4866   7.483   6.294  13.405 -1.4661  1.7288  3.1561
   38DOPE   H6Y 4867   7.307   6.259  13.372  1.8817 -1.9705  1.7432
   38DOPE   C37 4868   7.366   6.458  13.314 -0.0578  0.4044 -0.1645
   38DOPE   H7X 4869   7.446   6.506  13.254 -1.6113  0.6677 -2.1009
   38DOPE   H7Y 4870   7.273   6.470  13.254  0.0778  0.8188 -0.2957
   38DOPE   C38 4871   7.355   6.532  13.452 -0.1515 -0.5036  0.0034
   38DOPE   H8X 4872   7.458   6.516  13.490  1.0283 -0.4568 -2.8795
   38DOPE   H8Y 4873   7.284   6.491  13.527  0.2876  1.5711  1.6504
   38DOPE   C39 4874   7.326   6.682  13.427 -0.3137  0.6748 -0.3897
   38DOPE   H9X 4875   7.319   6.712  13.322 -0.7384 -2.1009 -1.2238
   38DOPE  C310 4876   7.286   6.771  13.520  0.5603  0.0752  0.5027
   38DOPE  H10X 4877   7.266   6.874  13.487 -1.9534 -0.4915  0.0765
   38DOPE  C311 4878   7.268   6.745  13.660 -0.5634  0.0930  0.0798
   38DOPE  H11X 4879   7.160   6.748  13.685 -0.1006  1.1653  2.1079
   38DOPE  H11Y 4880   7.305   6.647  13.698  0.8022  1.0341  1.2519
   38DOPE  C312 4881   7.330   6.861  13.740 -0.6854  0.1357  1.1312
   38DOPE  H12X 4882   7.313   6.852  13.850  2.9707 -1.1802  1.7242
   38DOPE  H12Y 4883   7.284   6.957  13.709 -2.4442 -0.7196  0.9591
   38DOPE  C313 4884   7.483   6.856  13.739  0.8458  0.5487  0.2312
   38DOPE  H13X 4885   7.516   6.754  13.767  2.1497  1.0360  0.5355
   38DOPE  H13Y 4886   7.516   6.883  13.636 -1.4054  2.5997 -0.0336
   38DOPE  C314 4887   7.560   6.960  13.826  0.2272  0.1231 -0.2025
   38DOPE  H14X 4888   7.662   6.919  13.848 -0.1352 -1.0506 -0.6257
   38DOPE  H14Y 4889   7.496   6.964  13.917  0.7304  0.1043  0.1561
   38DOPE  C315 4890   7.557   7.096  13.770  0.7499 -0.2422 -0.2621
   38DOPE  H15X 4891   7.452   7.130  13.751  1.1493  1.1462 -0.0836
   38DOPE  H15Y 4892   7.603   7.114  13.670 -0.1554  3.1359 -0.1959
   38DOPE  C316 4893   7.615   7.209  13.859 -0.3031  0.1835 -0.5921
   38DOPE  H16X 4894   7.556   7.229  13.951 -0.1301  1.7380 -0.8023
   38DOPE  H16Y 4895   7.609   7.303  13.800  0.0218  0.3442 -0.3683
   38DOPE  C317 4896   7.762   7.181  13.895 -0.5145 -0.0223  0.0678
   38DOPE  H17X 4897   7.766   7.077  13.935  0.4360 -0.6666 -1.5886
   38DOPE  H17Y 4898   7.823   7.175  13.803  1.4955 -1.0680  1.3766
   38DOPE  C318 4899   7.827   7.274  13.991 -0.9354  0.3947  0.4028
   38DOPE  H18X 4900   7.936   7.250  13.990 -0.7630  1.0392  1.6307
   38DOPE  H18Y 4901   7.820   7.376  13.949 -1.9478 -0.7818 -2.4859
   38DOPE  H18Z 4902   7.798   7.262  14.098  1.7522  0.0319  1.1878
   39DOPE     N 4903   4.173   3.725  12.442 -0.3884  0.1521 -0.0890
   39DOPE   HN1 4904   4.126   3.816  12.420 -2.5247 -0.5545  1.3015
   39DOPE   HN2 4905   4.274   3.731  12.418 -0.4082 -0.1483 -0.2456
   39DOPE   HN3 4906   4.128   3.644  12.395 -1.9135  1.6396 -1.3472
   39DOPE   C12 4907   4.172   3.703  12.588  0.0416  0.5602  0.0619
   39DOPE  H12A 4908   4.206   3.601  12.616  1.3176  0.0650 -2.9096
   39DOPE  H12B 4909   4.067   3.717  12.620 -0.1139  0.7220 -0.4968
   39DOPE   C11 4910   4.272   3.804  12.645  0.1360 -0.3634  0.7416
   39DOPE  H11A 4911   4.252   3.809  12.755 -2.8590  1.1031  0.2278
   39DOPE  H11B 4912   4.236   3.901  12.605 -0.0225 -1.0956 -0.9462
   39DOPE     P 4913   4.526   3.872  12.638  0.1932 -0.3073  0.0007
   39DOPE   O13 4914   4.533   3.956  12.517  0.2231  0.3177  0.0189
   39DOPE   O14 4915   4.638   3.786  12.685 -1.2072 -0.4313  0.4971
   39DOPE   O11 4916   4.481   3.961  12.761 -0.4662 -0.2546 -0.0714
   39DOPE   O12 4917   4.407   3.767  12.612  0.4306  0.2120 -0.0331
   39DOPE    C1 4918   4.568   4.004  12.867  0.9753 -0.0699 -0.1515
   39DOPE    HA 4919   4.591   4.113  12.864  1.6990 -0.2404 -1.4620
   39DOPE    HB 4920   4.671   3.963  12.870  0.7945 -0.5809 -0.6601
   39DOPE    C2 4921   4.497   3.967  13.002 -1.1144  0.8391 -0.4825
   39DOPE    HS 4922   4.473   3.859  12.989  0.5020  0.5146 -1.0271
   39DOPE   O21 4923   4.387   4.055  13.020 -0.4948 -0.5591 -0.2958
   39DOPE   C21 4924   4.281   3.986  13.065 -0.0633 -0.3901 -0.6504
   39DOPE   O22 4925   4.276   3.865  13.088 -0.4950  0.4514 -0.2441
   39DOPE   C22 4926   4.162   4.079  13.088 -0.7422 -0.0610  0.4503
   39DOPE   H2R 4927   4.088   4.031  13.020 -1.2636 -1.1170  1.7299
   39DOPE   H2S 4928   4.197   4.180  13.059  0.0734 -0.8273 -1.3957
   39DOPE    C3 4929   4.593   3.975  13.123 -0.1172  0.8574  0.4128
   39DOPE    HX 4930   4.622   4.082  13.134  2.0859  0.1335  2.3894
   39DOPE    HY 4931   4.684   3.915  13.106  0.5239  1.4095  1.7160
   39DOPE   O31 4932   4.530   3.921  13.242  0.0112 -0.0888  0.8414
   39DOPE   C31 4933   4.530   3.786  13.245 -0.5713 -0.1718  0.3067
   39DOPE   O32 4934   4.581   3.712  13.161 -0.1454  0.1440  0.1404
   39DOPE   C32 4935   4.456   3.745  13.367  0.5895 -0.0324 -0.4897
   39DOPE   H2X 4936   4.485   3.806  13.455 -2.0189 -1.8500  1.8334
   39DOPE   H2Y 4937   4.346   3.757  13.351  0.3298 -0.0595  1.0644
   39DOPE   C23 4938   4.112   4.079  13.232 -0.3747  0.2707  0.1294
   39DOPE   H3R 4939   4.086   3.979  13.272 -1.8884  0.4911 -0.2425
   39DOPE   H3S 4940   4.030   4.154  13.241  1.3067  2.3103 -0.6507
   39DOPE   C24 4941   4.218   4.144  13.326 -0.4671  0.7940  0.3852
   39DOPE   H4R 4942   4.253   4.243  13.289  0.2512  0.9096  1.3219
   39DOPE   H4S 4943   4.300   4.070  13.326 -0.0381  1.2580 -0.5806
   39DOPE   C25 4944   4.165   4.172  13.463 -0.3570 -0.2159 -0.2465
   39DOPE   H5R 4945   4.092   4.255  13.462 -1.8696 -1.3623  2.8219
   39DOPE   H5S 4946   4.259   4.210  13.509 -0.2702 -0.1108 -0.5070
   39DOPE   C26 4947   4.102   4.050  13.541  0.5280  0.0836  0.1919
   39DOPE   H6R 4948   4.172   3.964  13.532 -1.3289 -1.4401 -0.4505
   39DOPE   H6S 4949   4.007   4.021  13.489 -1.2621  1.4543  2.5061
   39DOPE   C27 4950   4.060   4.067  13.685 -0.0943 -0.0619 -0.5315
   39DOPE   H7R 4951   4.007   4.165  13.683 -2.6655 -1.3699 -1.9255
   39DOPE   H7S 4952   4.147   4.079  13.753 -1.7834  1.0294  1.5523
   39DOPE   C28 4953   3.965   3.951  13.738 -0.3413 -0.1997  0.5436
   39DOPE   H8R 4954   3.876   3.936  13.674  1.0870  3.2807 -2.6004
   39DOPE   H8S 4955   3.937   3.982  13.841  0.7760 -1.2055  1.1728
   39DOPE   C29 4956   4.052   3.828  13.740 -0.0473  0.3574 -0.0028
   39DOPE   H9R 4957   4.158   3.840  13.770 -0.8640  2.7990  2.3366
   39DOPE  C210 4958   4.014   3.707  13.706 -0.0234 -0.1435 -0.3620
   39DOPE  H10R 4959   4.080   3.619  13.712  1.8594  1.2046 -0.4474
   39DOPE  C211 4960   3.876   3.666  13.665  0.9424 -0.4465  0.1262
   39DOPE  H11R 4961   3.802   3.746  13.643  0.0290 -0.9085  1.3951
   39DOPE  H11S 4962   3.828   3.594  13.733 -0.0057  0.1661  0.1264
   39DOPE  C212 4963   3.891   3.589  13.531  0.0111 -0.6914  0.4917
   39DOPE  H12R 4964   3.791   3.559  13.493  0.1614 -3.2559  1.9355
   39DOPE  H12S 4965   3.952   3.497  13.545  2.1171  0.5090 -0.2045
   39DOPE  C213 4966   3.954   3.674  13.424  0.2363  0.2605  0.2286
   39DOPE  H13R 4967   4.057   3.698  13.458  0.4476  1.8365 -1.3931
   39DOPE  H13S 4968   3.902   3.770  13.410 -3.8850 -1.7405  0.3685
   39DOPE  C214 4969   3.960   3.601  13.289 -0.4418  0.3428  0.5672
   39DOPE  H14R 4970   4.014   3.505  13.303  0.6917  1.1268  1.8571
   39DOPE  H14S 4971   4.020   3.661  13.218 -1.2621  1.1195  0.5121
   39DOPE  C215 4972   3.827   3.570  13.210  0.1277  0.5088  0.2630
   39DOPE  H15R 4973   3.767   3.504  13.275  0.2413  0.5260  0.3867
   39DOPE  H15S 4974   3.857   3.510  13.122  0.7007 -0.4659  1.0887
   39DOPE  C216 4975   3.746   3.691  13.178 -0.0992 -0.1228  0.8274
   39DOPE  H16R 4976   3.791   3.754  13.098 -1.7191  0.7216  0.5423
   39DOPE  H16S 4977   3.736   3.755  13.268  0.3368  0.1406  0.6921
   39DOPE  C217 4978   3.609   3.653  13.119  0.9248  0.0013  0.2005
   39DOPE  H17R 4979   3.559   3.745  13.081  0.8854 -0.6312 -1.3150
   39DOPE  H17S 4980   3.547   3.628  13.208  0.9046  1.9093  0.7723
   39DOPE  C218 4981   3.585   3.528  13.018 -0.1549 -0.2912  0.7792
   39DOPE  H18R 4982   3.477   3.512  12.997  0.3330 -2.7147 -0.2814
   39DOPE  H18S 4983   3.624   3.434  13.062 -2.9160 -1.8829  0.0819
   39DOPE  H18T 4984   3.631   3.546  12.918 -1.4215  1.0532  0.3978
   39DOPE   C33 4985   4.468   3.590  13.388  0.4758 -0.7186 -0.4136
   39DOPE   H3X 4986   4.573   3.566  13.415 -0.2409 -3.9276 -0.0048
   39DOPE   H3Y 4987   4.437   3.531  13.299 -1.4151 -1.4199  0.6373
   39DOPE   C34 4988   4.382   3.548  13.515 -0.2983 -0.3410  0.6973
   39DOPE   H4X 4989   4.430   3.589  13.606  2.6080  0.2738 -1.0001
   39DOPE   H4Y 4990   4.280   3.593  13.512  0.1233  0.5892 -1.4094
   39DOPE   C35 4991   4.384   3.397  13.523  0.5219 -0.2429  0.2762
   39DOPE   H5X 4992   4.369   3.367  13.417  0.5697  1.0977 -0.1164
   39DOPE   H5Y 4993   4.304   3.356  13.588 -2.0252  2.8679 -0.6735
   39DOPE   C36 4994   4.518   3.344  13.567  0.1489 -0.3255 -0.7423
   39DOPE   H6X 4995   4.559   3.398  13.655 -0.7558  1.3029 -1.2691
   39DOPE   H6Y 4996   4.597   3.366  13.492  0.5329  2.3223  0.3087
   39DOPE   C37 4997   4.516   3.189  13.601  0.3406  0.3365  0.2051
   39DOPE   H7X 4998   4.466   3.180  13.700 -1.1146 -1.8087 -0.6713
   39DOPE   H7Y 4999   4.452   3.141  13.524 -0.4598 -2.2617  2.3460
   39DOPE   C38 5000   4.654   3.118  13.611 -0.4328  0.3609 -0.4471
   39DOPE   H8X 5001   4.709   3.175  13.690  0.1570 -0.4491 -0.2642
   39DOPE   H8Y 5002   4.714   3.139  13.521 -0.6472  1.0927 -0.4265
   39DOPE   C39 5003   4.650   2.970  13.649 -0.4675  0.6765  0.0825
   39DOPE   H9X 5004   4.555   2.916  13.635  0.1423 -0.8779  1.5882
   39DOPE  C310 5005   4.750   2.907  13.701 -0.1538 -0.1061  0.0009
   39DOPE  H10X 5006   4.732   2.799  13.711 -1.1189  0.0375 -0.1231
   39DOPE  C311 5007   4.881   2.957  13.740 -0.2143  0.7529  0.3444
   39DOPE  H11X 5008   4.905   3.050  13.683  0.5454 -1.1192 -2.6275
   39DOPE  H11Y 5009   4.894   2.986  13.846  0.6628  5.0646 -0.7284
   39DOPE  C312 5010   4.994   2.857  13.693  0.6836 -1.0057 -0.7324
   39DOPE  H12X 5011   4.970   2.759  13.739 -1.0321 -0.4360 -0.3623
   39DOPE  H12Y 5012   5.087   2.902  13.735  0.1605  1.0623 -1.6795
   39DOPE  C313 5013   4.995   2.836  13.544  0.3553 -0.3533 -0.5542
   39DOPE  H13X 5014   4.893   2.806  13.514  0.3635 -0.5455 -0.3952
   39DOPE  H13Y 5015   5.030   2.923  13.485  1.5853 -1.4717 -1.5165
   39DOPE  C314 5016   5.094   2.728  13.505  0.4296  0.9033 -0.7167
   39DOPE  H14X 5017   5.078   2.650  13.583 -0.6330  1.3380 -0.4799
   39DOPE  H14Y 5018   5.197   2.769  13.516  1.3789 -1.1188 -1.7288
   39DOPE  C315 5019   5.081   2.675  13.363 -0.6337  0.0072  0.2868
   39DOPE  H15X 5020   4.978   2.697  13.329 -0.5494 -0.0703 -0.0214
   39DOPE  H15Y 5021   5.107   2.567  13.369  0.7474  0.3814  2.9015
   39DOPE  C316 5022   5.183   2.737  13.266 -0.3873  0.4530  0.9447
   39DOPE  H16X 5023   5.286   2.717  13.302  0.2538 -2.6361 -2.0150
   39DOPE  H16Y 5024   5.172   2.845  13.240 -1.9165  0.3135  0.9199
   39DOPE  C317 5025   5.190   2.663  13.125 -0.1258 -0.1407  1.2331
   39DOPE  H17X 5026   5.208   2.554  13.141 -2.9847 -0.8143  0.3214
   39DOPE  H17Y 5027   5.090   2.660  13.078 -1.0715 -0.5102  3.1732
   39DOPE  C318 5028   5.289   2.723  13.027 -0.1483 -0.6963 -0.0702
   39DOPE  H18X 5029   5.391   2.687  13.049  0.0507 -1.4717 -2.0569
   39DOPE  H18Y 5030   5.285   2.675  12.927 -1.0620 -0.2300 -0.2715
   39DOPE  H18Z 5031   5.295   2.833  13.012 -2.2682 -0.5996 -0.5266
   40DOPE     N 5032   4.762   6.450  12.025 -0.4731  0.3372 -0.8624
   40DOPE   HN1 5033   4.670   6.470  12.068 -0.3935 -1.2881  0.1636
   40DOPE   HN2 5034   4.817   6.531  12.059 -0.4301 -0.0023 -0.1066
   40DOPE   HN3 5035   4.761   6.448  11.921  0.8865  0.9928 -0.9108
   40DOPE   C12 5036   4.823   6.324  12.089  0.7011 -0.1334  0.4078
   40DOPE  H12A 5037   4.930   6.313  12.058  0.3870 -1.3493 -0.3224
   40DOPE  H12B 5038   4.763   6.239  12.050  1.1293 -0.4165  0.3522
   40DOPE   C11 5039   4.810   6.333  12.240  0.2615 -0.8152 -0.4841
   40DOPE  H11A 5040   4.815   6.232  12.285 -1.9564 -0.3630  0.9165
   40DOPE  H11B 5041   4.705   6.351  12.270  1.2436 -0.1565  3.0449
   40DOPE     P 5042   5.031   6.397  12.380 -0.2844  0.2596  0.3315
   40DOPE   O13 5043   5.100   6.523  12.405  0.3523 -0.1904  0.2879
   40DOPE   O14 5044   5.111   6.290  12.313 -0.0547 -0.0529 -0.3357
   40DOPE   O11 5045   4.962   6.332  12.513  0.0990  0.1747 -0.0929
   40DOPE   O12 5046   4.903   6.422  12.295 -0.0586  0.0083 -0.1330
   40DOPE    C1 5047   4.864   6.400  12.590 -0.0156  0.4170  0.1068
   40DOPE    HA 5048   4.787   6.324  12.614  2.2630 -1.3188  2.5051
   40DOPE    HB 5049   4.819   6.483  12.532 -1.5796 -0.6435 -0.2626
   40DOPE    C2 5050   4.927   6.452  12.723 -0.5191  0.0493  0.5328
   40DOPE    HS 5051   5.009   6.516  12.683 -1.4633  1.9372  1.4937
   40DOPE   O21 5052   4.988   6.343  12.791  0.4217  0.3946 -0.2285
   40DOPE   C21 5053   5.048   6.377  12.909 -0.6239 -0.3046 -0.0301
   40DOPE   O22 5054   5.078   6.487  12.951  0.1770 -0.0007  0.0113
   40DOPE   C22 5055   5.049   6.254  12.991  0.0199 -0.2083  0.5922
   40DOPE   H2R 5056   5.120   6.263  13.076  2.3226 -1.8603 -1.0313
   40DOPE   H2S 5057   5.071   6.169  12.923 -0.7769  0.3473 -0.3717
   40DOPE    C3 5058   4.843   6.547  12.809  0.6589  0.5677 -0.0873
   40DOPE    HX 5059   4.797   6.619  12.738 -2.0854 -1.0279 -0.0682
   40DOPE    HY 5060   4.900   6.603  12.886  0.7752 -2.6282  2.3473
   40DOPE   O31 5061   4.731   6.467  12.862 -0.5816 -0.0895 -0.3090
   40DOPE   C31 5062   4.640   6.532  12.946 -0.0922 -0.1544  0.6192
   40DOPE   O32 5063   4.650   6.650  12.979  0.0453  0.1053 -0.0076
   40DOPE   C32 5064   4.535   6.435  12.991 -0.4558  0.6002 -0.6621
   40DOPE   H2X 5065   4.442   6.496  12.990  0.6613  2.3983 -0.3505
   40DOPE   H2Y 5066   4.513   6.360  12.913  0.4238  0.4874 -0.8062
   40DOPE   C23 5067   4.909   6.230  13.059  0.4371 -1.2067  0.3356
   40DOPE   H3R 5068   4.888   6.121  13.054  1.7138 -1.4180 -1.0717
   40DOPE   H3S 5069   4.831   6.288  13.003 -1.5404 -0.7817  3.3123
   40DOPE   C24 5070   4.897   6.262  13.210  0.2204  0.0860  0.5525
   40DOPE   H4R 5071   4.966   6.202  13.272  0.1487 -0.9007 -0.2963
   40DOPE   H4S 5072   4.794   6.241  13.245  0.8937 -0.8580  2.0178
   40DOPE   C25 5073   4.921   6.414  13.228  0.3718  0.0792 -0.7338
   40DOPE   H5R 5074   4.861   6.470  13.153 -2.4833 -1.8239 -0.0656
   40DOPE   H5S 5075   5.029   6.430  13.211  0.7442 -2.6181 -1.4463
   40DOPE   C26 5076   4.864   6.463  13.363 -0.5011 -0.3710 -0.9801
   40DOPE   H6R 5077   4.911   6.406  13.446 -1.4568 -0.3625 -0.4225
   40DOPE   H6S 5078   4.758   6.435  13.378 -0.3287 -0.1474  0.9309
   40DOPE   C27 5079   4.870   6.611  13.395 -0.1007 -0.4331 -0.0532
   40DOPE   H7R 5080   4.813   6.669  13.318 -0.2195  0.0776  0.4141
   40DOPE   H7S 5081   4.973   6.652  13.391  0.3108 -1.4491  0.0795
   40DOPE   C28 5082   4.795   6.651  13.523 -0.4501  0.4275 -0.3611
   40DOPE   H8R 5083   4.689   6.639  13.492 -1.0369  1.1977  1.2352
   40DOPE   H8S 5084   4.812   6.757  13.551 -0.0776  0.3484 -0.2960
   40DOPE   C29 5085   4.837   6.560  13.636 -0.5286  0.2729  0.6421
   40DOPE   H9R 5086   4.938   6.517  13.624 -0.3520  0.2169  2.0766
   40DOPE  C210 5087   4.751   6.491  13.720 -0.8690  0.0319  0.7045
   40DOPE  H10R 5088   4.784   6.394  13.761 -1.4909 -0.3338  0.3574
   40DOPE  C211 5089   4.602   6.513  13.739  0.4133  0.0283 -0.3654
   40DOPE  H11R 5090   4.546   6.417  13.737  1.4445 -0.8024  3.3762
   40DOPE  H11S 5091   4.562   6.577  13.657 -2.4240  0.8512  1.5132
   40DOPE  C212 5092   4.572   6.585  13.873  0.6123 -0.0603  0.0131
   40DOPE  H12R 5093   4.614   6.687  13.874  2.0156 -0.6120  0.0968
   40DOPE  H12S 5094   4.623   6.517  13.945  3.2915  0.2156 -1.4694
   40DOPE  C213 5095   4.417   6.593  13.894 -0.1480  0.5867 -0.5889
   40DOPE  H13R 5096   4.363   6.497  13.882 -1.7710  1.2155  1.1899
   40DOPE  H13S 5097   4.374   6.666  13.824  3.7121  1.6783 -2.1005
   40DOPE  C214 5098   4.372   6.641  14.036 -0.7472  0.4537  0.1093
   40DOPE  H14R 5099   4.418   6.742  14.040  0.7661 -0.2330  1.2548
   40DOPE  H14S 5100   4.420   6.583  14.118 -0.9764  1.7274  1.1724
   40DOPE  C215 5101   4.224   6.635  14.074 -0.5592 -0.6202 -0.5689
   40DOPE  H15R 5102   4.179   6.533  14.071  2.3178 -2.0359  0.4625
   40DOPE  H15S 5103   4.171   6.705  14.006 -2.0772  0.1929  1.3437
   40DOPE  C216 5104   4.200   6.681  14.217  0.2142 -0.2564 -0.5470
   40DOPE  H16R 5105   4.259   6.612  14.280 -1.3449 -1.7850 -0.7046
   40DOPE  H16S 5106   4.094   6.663  14.243  0.9189 -3.1415  0.7618
   40DOPE  C217 5107   4.239   6.827  14.236 -0.0974  0.5575 -0.2273
   40DOPE  H17R 5108   4.175   6.880  14.163 -0.7936 -1.0050 -0.8010
   40DOPE  H17S 5109   4.349   6.830  14.217 -0.0489  0.7419  0.0748
   40DOPE  C218 5110   4.203   6.879  14.374  0.4897  0.6882  0.2721
   40DOPE  H18R 5111   4.248   6.980  14.386  1.3244  0.2475  0.9461
   40DOPE  H18S 5112   4.247   6.809  14.448  3.1222  1.2514 -0.6229
   40DOPE  H18T 5113   4.094   6.886  14.392  0.4321  1.5700 -0.3611
   40DOPE   C33 5114   4.559   6.354  13.122  0.3827 -0.1106 -0.4159
   40DOPE   H3X 5115   4.601   6.432  13.189 -1.2595  0.3014  0.1651
   40DOPE   H3Y 5116   4.627   6.268  13.104 -2.5063 -2.1251 -2.4965
   40DOPE   C34 5117   4.434   6.304  13.191 -0.0366  0.8448  1.3007
   40DOPE   H4X 5118   4.391   6.230  13.121  2.3618 -1.4671  2.0973
   40DOPE   H4Y 5119   4.455   6.246  13.284 -1.6666  1.0302  1.8176
   40DOPE   C35 5120   4.320   6.399  13.216  0.0726  0.1996 -0.4489
   40DOPE   H5X 5121   4.233   6.333  13.239  1.6962 -1.6230  0.7571
   40DOPE   H5Y 5122   4.285   6.458  13.128 -0.9098 -0.4947 -0.5466
   40DOPE   C36 5123   4.334   6.481  13.346 -0.5468  0.7296 -0.2663
   40DOPE   H6X 5124   4.422   6.540  13.312 -0.8073 -0.0105 -2.4073
   40DOPE   H6Y 5125   4.367   6.428  13.438 -2.0163 -0.2696 -0.2873
   40DOPE   C37 5126   4.212   6.557  13.400 -0.1619  0.0684 -0.0396
   40DOPE   H7X 5127   4.236   6.645  13.464 -0.6725  0.6498 -0.6322
   40DOPE   H7Y 5128   4.162   6.601  13.311  1.0343 -0.0897 -0.8149
   40DOPE   C38 5129   4.117   6.469  13.483  0.5892 -0.4721  0.5931
   40DOPE   H8X 5130   4.118   6.368  13.437  2.9853 -0.1329 -0.2751
   40DOPE   H8Y 5131   4.014   6.511  13.480  0.1079 -1.5388  1.6687
   40DOPE   C39 5132   4.153   6.445  13.628 -0.0146 -0.1403  0.4077
   40DOPE   H9X 5133   4.259   6.415  13.637  0.1814  0.1040 -0.9216
   40DOPE  C310 5134   4.074   6.451  13.733 -0.1908 -0.6073 -0.0894
   40DOPE  H10X 5135   4.119   6.460  13.833  2.8514  2.8206 -1.5394
   40DOPE  C311 5136   3.928   6.491  13.741  0.2590 -0.5867  0.8276
   40DOPE  H11X 5137   3.880   6.502  13.642  1.9879 -0.5260 -0.0402
   40DOPE  H11Y 5138   3.873   6.424  13.810 -0.3731  0.9586  1.9066
   40DOPE  C312 5139   3.898   6.631  13.806  0.0490  0.6105  0.7576
   40DOPE  H12X 5140   3.918   6.612  13.913  0.4273 -1.2121  0.4127
   40DOPE  H12Y 5141   3.788   6.649  13.808  0.3452  2.5850  0.9522
   40DOPE  C313 5142   3.972   6.748  13.747  0.2037  0.4576 -0.5553
   40DOPE  H13X 5143   4.079   6.726  13.731  0.2938  1.0653 -0.8209
   40DOPE  H13Y 5144   3.914   6.763  13.653  0.0148  0.8781 -0.3765
   40DOPE  C314 5145   3.957   6.873  13.835  0.9483 -0.2036  0.8768
   40DOPE  H14X 5146   4.037   6.947  13.812 -0.4375  1.2508  0.5339
   40DOPE  H14Y 5147   3.976   6.838  13.939 -0.9173 -0.0836  1.2907
   40DOPE  C315 5148   3.812   6.930  13.838  0.2272  0.0731  0.3814
   40DOPE  H15X 5149   3.743   6.861  13.891 -1.1945  0.4909 -0.8451
   40DOPE  H15Y 5150   3.776   6.923  13.733 -1.2031 -1.5405  0.9335
   40DOPE  C316 5151   3.810   7.077  13.900  0.2044 -0.7474 -0.2444
   40DOPE  H16X 5152   3.873   7.138  13.833 -0.4674  0.5227  0.2456
   40DOPE  H16Y 5153   3.865   7.075  13.997  3.6782 -0.0291 -2.0476
   40DOPE  C317 5154   3.664   7.127  13.925 -0.9001  0.0220  0.1875
   40DOPE  H17X 5155   3.600   7.114  13.835 -1.6195 -3.1268  1.0409
   40DOPE  H17Y 5156   3.612   7.060  13.998  1.9205 -1.5551  0.8918
   40DOPE  C318 5157   3.653   7.273  13.963  0.0215 -0.6367  0.1590
   40DOPE  H18X 5158   3.547   7.296  13.988  0.3320  3.5316 -1.5792
   40DOPE  H18Y 5159   3.709   7.301  14.055 -1.0683  2.9123 -0.1186
   40DOPE  H18Z 5160   3.683   7.338  13.879 -0.9815 -0.6978 -0.2608
   41DOPE     N 5161   2.940   6.062  12.172 -0.4122  0.4587 -0.2157
   41DOPE   HN1 5162   3.021   6.123  12.197 -0.5787  1.1534 -1.3224
   41DOPE   HN2 5163   2.942   6.032  12.073 -1.1544  0.1676 -0.1503
   41DOPE   HN3 5164   2.856   6.123  12.173 -0.6460  0.1668  1.6287
   41DOPE   C12 5165   2.939   5.944  12.249 -0.0542  0.1762 -1.2485
   41DOPE  H12A 5166   3.005   5.868  12.203 -0.5092 -0.6838 -0.5105
   41DOPE  H12B 5167   2.835   5.905  12.252 -0.1083  0.3247 -1.1461
   41DOPE   C11 5168   2.980   5.982  12.393 -0.0305  0.6714  0.0564
   41DOPE  H11A 5169   3.084   6.021  12.385  0.7470 -1.5203 -1.6795
   41DOPE  H11B 5170   3.007   5.901  12.465  0.0611 -0.2269 -0.9585
   41DOPE     P 5171   2.765   6.013  12.524  0.0819 -0.6847  0.0884
   41DOPE   O13 5172   2.652   6.026  12.427 -1.0280  0.4249 -0.2776
   41DOPE   O14 5173   2.748   6.078  12.659 -0.2557 -0.1906 -0.2783
   41DOPE   O11 5174   2.790   5.858  12.537  0.6937  0.6516  0.0551
   41DOPE   O12 5175   2.889   6.079  12.451  0.0482  0.2558 -0.0616
   41DOPE    C1 5176   2.827   5.791  12.655 -0.0432  0.8455  0.5227
   41DOPE    HA 5177   2.850   5.855  12.743 -0.0004 -1.6318  2.4378
   41DOPE    HB 5178   2.914   5.722  12.645  0.0944  0.9189  1.1616
   41DOPE    C2 5179   2.707   5.698  12.703  0.6446 -0.2437 -0.4069
   41DOPE    HS 5180   2.683   5.640  12.611  0.6021 -0.7484 -0.0859
   41DOPE   O21 5181   2.592   5.786  12.739  0.0563 -0.3760  0.3118
   41DOPE   C21 5182   2.481   5.721  12.746 -0.0876  0.5773 -0.3892
   41DOPE   O22 5183   2.468   5.603  12.728  0.6314 -0.2527  0.4896
   41DOPE   C22 5184   2.364   5.813  12.773 -0.2123 -0.5827  0.1487
   41DOPE   H2R 5185   2.390   5.902  12.711  2.7856 -2.0143 -0.8024
   41DOPE   H2S 5186   2.372   5.841  12.880 -4.6227  1.1228  0.2195
   41DOPE    C3 5187   2.737   5.607  12.824  0.3731 -0.0816  0.2268
   41DOPE    HX 5188   2.646   5.553  12.857 -0.9062  1.6297 -0.3779
   41DOPE    HY 5189   2.760   5.688  12.897  0.7125 -0.7274  0.8532
   41DOPE   O31 5190   2.850   5.522  12.807 -0.2324 -0.1722 -0.8143
   41DOPE   C31 5191   2.922   5.478  12.907  0.7088 -0.1657 -0.2499
   41DOPE   O32 5192   2.916   5.521  13.022  0.3063  0.5504  0.0729
   41DOPE   C32 5193   3.010   5.371  12.849  0.1923  0.2661 -0.0957
   41DOPE   H2X 5194   2.946   5.293  12.803 -0.6874  0.7178  0.3466
   41DOPE   H2Y 5195   3.072   5.415  12.768  0.7324 -1.0828 -0.4420
   41DOPE   C23 5196   2.228   5.752  12.759 -0.1488  0.4384  0.5543
   41DOPE   H3R 5197   2.218   5.684  12.672 -1.4090  1.4136 -0.0982
   41DOPE   H3S 5198   2.162   5.839  12.739 -0.4248  0.3266  0.9495
   41DOPE   C24 5199   2.157   5.670  12.879  0.3339  1.0051  0.6036
   41DOPE   H4R 5200   2.222   5.677  12.969 -0.2143 -0.9058  1.1853
   41DOPE   H4S 5201   2.151   5.562  12.853  1.0228  1.2544 -0.7265
   41DOPE   C25 5202   2.009   5.714  12.901  0.6098 -0.1664  0.6080
   41DOPE   H5R 5203   1.942   5.644  12.846  1.0477  0.6143 -0.9867
   41DOPE   H5S 5204   1.991   5.813  12.853  1.1405 -0.0110  0.7270
   41DOPE   C26 5205   1.974   5.722  13.042  0.0096  0.0576 -0.3470
   41DOPE   H6R 5206   1.868   5.755  13.042 -0.3627 -0.9785  1.5917
   41DOPE   H6S 5207   2.039   5.796  13.093  0.6239 -1.6407  1.4527
   41DOPE   C27 5208   1.970   5.582  13.112  0.3371 -0.1427 -0.0352
   41DOPE   H7R 5209   2.071   5.547  13.081  0.6815  1.8000 -1.2885
   41DOPE   H7S 5210   1.889   5.525  13.061 -1.2003 -0.0102  2.1097
   41DOPE   C28 5211   1.941   5.584  13.259  0.0789  0.3621 -0.1738
   41DOPE   H8R 5212   1.940   5.482  13.303  0.5507  1.5272  2.7804
   41DOPE   H8S 5213   1.833   5.606  13.277  0.1898 -1.3449  3.4225
   41DOPE   C29 5214   2.035   5.672  13.337 -0.6329  0.2287 -0.9765
   41DOPE   H9R 5215   2.004   5.778  13.335 -1.9730 -0.0583  1.6188
   41DOPE  C210 5216   2.136   5.623  13.419  0.2718  0.4402  0.4698
   41DOPE  H10R 5217   2.197   5.691  13.480 -1.7448  2.6363  0.1819
   41DOPE  C211 5218   2.169   5.480  13.433  0.3301  0.1070  0.4113
   41DOPE  H11R 5219   2.279   5.463  13.439  0.1695 -1.5264 -0.6338
   41DOPE  H11S 5220   2.129   5.413  13.354 -1.8277  1.0343  0.6305
   41DOPE  C212 5221   2.122   5.428  13.575 -0.2842  0.4975 -0.5166
   41DOPE  H12R 5222   2.148   5.320  13.579 -1.1666  0.2922 -0.0268
   41DOPE  H12S 5223   2.012   5.443  13.582 -0.6165 -1.8158 -0.0820
   41DOPE  C213 5224   2.194   5.496  13.696  0.3938  0.0939  0.3575
   41DOPE  H13R 5225   2.142   5.470  13.790 -1.2686  0.5941 -0.3737
   41DOPE  H13S 5226   2.178   5.606  13.691  2.0744  0.3998  0.8634
   41DOPE  C214 5227   2.338   5.446  13.711  0.5028 -0.3500  0.2185
   41DOPE  H14R 5228   2.402   5.493  13.633  0.0886  0.3573  0.2944
   41DOPE  H14S 5229   2.333   5.335  13.704 -0.2711 -0.6806  3.8748
   41DOPE  C215 5230   2.393   5.481  13.854  0.6638  0.0352 -0.3835
   41DOPE  H15R 5231   2.325   5.453  13.938  0.3668  0.6020 -0.4281
   41DOPE  H15S 5232   2.393   5.592  13.850  0.9712  0.0654  0.2563
   41DOPE  C216 5233   2.539   5.441  13.896 -0.5249 -0.2445  0.1949
   41DOPE  H16R 5234   2.545   5.473  14.002 -0.9748 -0.0464  0.1649
   41DOPE  H16S 5235   2.614   5.504  13.843  2.1010 -1.8667  1.7950
   41DOPE  C217 5236   2.584   5.296  13.880 -0.2978  0.5161 -0.8942
   41DOPE  H17R 5237   2.575   5.279  13.771 -1.4605  0.9002 -0.8733
   41DOPE  H17S 5238   2.515   5.219  13.922  1.7699 -0.2673  1.3158
   41DOPE  C218 5239   2.728   5.264  13.932 -0.0100  0.1059  0.0703
   41DOPE  H18R 5240   2.769   5.162  13.915 -0.4552 -0.2225  0.8833
   41DOPE  H18S 5241   2.730   5.289  14.040  0.4581 -1.2428  0.3923
   41DOPE  H18T 5242   2.792   5.334  13.875  1.1096 -0.4590  0.6011
   41DOPE   C33 5243   3.108   5.317  12.956  0.3823  0.0588 -0.3169
   41DOPE   H3X 5244   3.153   5.222  12.918  2.8009  0.7900  0.5601
   41DOPE   H3Y 5245   3.068   5.277  13.051  1.0027  0.3796  0.0879
   41DOPE   C34 5246   3.226   5.419  12.981  0.1578  0.0918  0.1968
   41DOPE   H4X 5247   3.275   5.451  12.887 -1.2504  0.8721 -0.3073
   41DOPE   H4Y 5248   3.180   5.508  13.029  0.6278 -1.1175  3.1070
   41DOPE   C35 5249   3.336   5.371  13.077 -0.4753  0.5379 -0.1323
   41DOPE   H5X 5250   3.390   5.284  13.033  1.4403  1.7222 -0.2466
   41DOPE   H5Y 5251   3.296   5.347  13.178 -2.9484 -1.6592 -1.5058
   41DOPE   C36 5252   3.449   5.469  13.116 -0.0855 -0.7227 -0.3074
   41DOPE   H6X 5253   3.402   5.568  13.133  1.9390 -0.0829  2.3421
   41DOPE   H6Y 5254   3.513   5.484  13.027 -1.4364  1.4708 -1.0054
   41DOPE   C37 5255   3.540   5.427  13.234 -0.2473  0.4175  0.1234
   41DOPE   H7X 5256   3.470   5.384  13.309 -1.6699  0.0749 -1.3375
   41DOPE   H7Y 5257   3.597   5.337  13.201 -1.2188 -0.7716  1.5405
   41DOPE   C38 5258   3.626   5.541  13.312  0.3306  0.1434 -0.2363
   41DOPE   H8X 5259   3.675   5.482  13.393 -2.5547 -0.9601  0.8307
   41DOPE   H8Y 5260   3.550   5.605  13.361 -1.6186 -1.9928 -0.2942
   41DOPE   C39 5261   3.718   5.627  13.221  0.2769  0.2297 -0.0277
   41DOPE   H9X 5262   3.682   5.663  13.123  0.8744 -1.6678 -0.9867
   41DOPE  C310 5263   3.839   5.671  13.252 -0.1979  0.4670 -0.4763
   41DOPE  H10X 5264   3.896   5.720  13.172 -0.2418  0.3146 -0.6031
   41DOPE  C311 5265   3.923   5.638  13.377 -0.2456 -0.0876 -0.6605
   41DOPE  H11X 5266   3.876   5.552  13.428  0.2027 -0.4488 -0.8501
   41DOPE  H11Y 5267   4.028   5.607  13.355 -0.5233 -2.3628  0.8617
   41DOPE  C312 5268   3.926   5.761  13.471  0.1236  0.3801  0.6537
   41DOPE  H12X 5269   3.824   5.803  13.463 -0.4542 -0.9674  0.7945
   41DOPE  H12Y 5270   3.986   5.844  13.427 -0.7837  0.9641  0.4956
   41DOPE  C313 5271   3.967   5.724  13.608 -0.1371 -0.2856 -0.0576
   41DOPE  H13X 5272   3.900   5.642  13.642 -0.3352  1.0105  3.0628
   41DOPE  H13Y 5273   4.069   5.679  13.611  0.0519  0.0122 -1.4307
   41DOPE  C314 5274   3.951   5.840  13.709 -0.3346  0.0315 -1.3814
   41DOPE  H14X 5275   3.846   5.865  13.734 -0.9969 -0.2071 -3.6688
   41DOPE  H14Y 5276   3.995   5.932  13.664 -0.3870 -0.3339 -2.2137
   41DOPE  C315 5277   4.031   5.802  13.839 -0.1415  0.4203 -0.3398
   41DOPE  H15X 5278   4.136   5.768  13.831 -0.2797 -0.3383  0.8458
   41DOPE  H15Y 5279   3.974   5.718  13.883 -2.1390  1.8772  0.0154
   41DOPE  C316 5280   4.034   5.923  13.926 -0.2651  0.2521  0.4963
   41DOPE  H16X 5281   3.926   5.947  13.935 -0.2846  0.5760 -0.4432
   41DOPE  H16Y 5282   4.088   6.005  13.874  0.5465 -1.2492 -1.1538
   41DOPE  C317 5283   4.085   5.910  14.071  0.4690 -0.2001  0.1523
   41DOPE  H17X 5284   4.038   5.832  14.135 -2.6803  0.0329 -1.6588
   41DOPE  H17Y 5285   4.196   5.900  14.074  0.5874  0.8871  0.1228
   41DOPE  C318 5286   4.065   6.047  14.137  0.3848  0.1316 -0.4485
   41DOPE  H18X 5287   3.958   6.078  14.144 -0.0741 -1.4606 -0.1498
   41DOPE  H18Y 5288   4.104   6.024  14.239  0.7271 -1.9409 -1.0032
   41DOPE  H18Z 5289   4.119   6.132  14.091 -1.2629  0.5241 -1.7738
   42DOPE     N 5290   1.586   4.597  12.039 -0.3313  0.4325 -0.7786
   42DOPE   HN1 5291   1.662   4.543  11.992 -0.5347 -0.9128  0.3925
   42DOPE   HN2 5292   1.519   4.647  11.977 -0.9536 -2.1305 -2.3438
   42DOPE   HN3 5293   1.632   4.665  12.102  1.0594 -0.9925 -0.1936
   42DOPE   C12 5294   1.503   4.512  12.136 -0.2989 -0.2136  1.0482
   42DOPE  H12A 5295   1.567   4.433  12.180  0.8106  0.3054  0.4303
   42DOPE  H12B 5296   1.420   4.469  12.077  0.0025 -2.2489  2.0297
   42DOPE   C11 5297   1.447   4.598  12.245 -0.2411 -0.3484 -0.1490
   42DOPE  H11A 5298   1.380   4.537  12.308  2.2315 -0.4912  2.5710
   42DOPE  H11B 5299   1.374   4.662  12.191 -2.0590 -0.8052  1.6490
   42DOPE     P 5300   1.590   4.804  12.325 -0.0163 -0.1273 -0.3159
   42DOPE   O13 5301   1.478   4.885  12.386  0.0589 -0.1429 -0.1203
   42DOPE   O14 5302   1.635   4.834  12.189  0.3565 -0.7456  0.1853
   42DOPE   O11 5303   1.712   4.808  12.425  0.5152 -0.5168 -0.1785
   42DOPE   O12 5304   1.551   4.657  12.329  0.1191  0.3688 -0.1746
   42DOPE    C1 5305   1.833   4.723  12.413 -0.6001  0.1551 -0.6274
   42DOPE    HA 5306   1.889   4.740  12.319  0.5154 -0.0649 -0.0252
   42DOPE    HB 5307   1.814   4.614  12.404 -1.4997  0.2847 -0.3824
   42DOPE    C2 5308   1.937   4.766  12.523  0.0294 -0.9973 -0.7447
   42DOPE    HS 5309   2.039   4.750  12.482  0.3683 -0.2880 -0.2150
   42DOPE   O21 5310   1.909   4.693  12.642  0.3975 -0.3347  0.0941
   42DOPE   C21 5311   1.941   4.558  12.650  0.2237 -0.5122  1.0272
   42DOPE   O22 5312   2.002   4.495  12.563  0.7988 -0.1574  0.2232
   42DOPE   C22 5313   1.900   4.507  12.787  0.8036 -0.6893  0.6975
   42DOPE   H2R 5314   1.791   4.523  12.797  0.7544 -1.2456  1.0826
   42DOPE   H2S 5315   1.955   4.570  12.860  0.5954  0.8276 -0.3816
   42DOPE    C3 5316   1.931   4.917  12.560  0.5109  0.4875  0.1879
   42DOPE    HX 5317   1.829   4.942  12.596 -0.2606  0.3694 -1.7411
   42DOPE    HY 5318   1.946   4.990  12.476  1.6020  0.3467  0.2406
   42DOPE   O31 5319   2.038   4.950  12.651  0.1910  0.1249 -0.2195
   42DOPE   C31 5320   2.019   5.072  12.708  0.0481  0.2599  0.5225
   42DOPE   O32 5321   1.929   5.149  12.673  0.5626  0.3512  0.2126
   42DOPE   C32 5322   2.137   5.091  12.798 -0.1150 -0.0302  0.0464
   42DOPE   H2X 5323   2.119   5.024  12.884  0.8145  0.0285  0.2982
   42DOPE   H2Y 5324   2.226   5.045  12.751  0.4871 -2.3133  3.1343
   42DOPE   C23 5325   1.932   4.358  12.817 -0.3330  0.4896 -0.3200
   42DOPE   H3R 5326   1.886   4.297  12.736 -1.4602 -1.7358  1.8770
   42DOPE   H3S 5327   1.887   4.326  12.914 -2.0493  2.9009 -0.2083
   42DOPE   C24 5328   2.093   4.336  12.817  0.2970  0.7341  0.5787
   42DOPE   H4R 5329   2.131   4.404  12.896 -0.1827  0.6957  0.8477
   42DOPE   H4S 5330   2.133   4.375  12.720 -0.0730  0.2797  0.2377
   42DOPE   C25 5331   2.147   4.195  12.850 -1.0250  0.1051  0.2216
   42DOPE   H5R 5332   2.160   4.143  12.753  0.2005  1.0444 -0.1518
   42DOPE   H5S 5333   2.087   4.131  12.918  0.6555 -1.5013  0.2749
   42DOPE   C26 5334   2.285   4.194  12.913  0.0541  0.6972  0.1257
   42DOPE   H6R 5335   2.290   4.251  13.008  0.8725  0.8897 -0.0185
   42DOPE   H6S 5336   2.353   4.249  12.844 -0.4814 -0.1156 -1.0736
   42DOPE   C27 5337   2.327   4.049  12.934  0.3135  0.1258  0.6744
   42DOPE   H7R 5338   2.315   4.003  12.834 -1.4480  4.4678 -1.3755
   42DOPE   H7S 5339   2.259   3.991  13.000  1.4082 -0.9627  0.8780
   42DOPE   C28 5340   2.477   4.054  12.980  0.4668  0.1107 -0.5775
   42DOPE   H8R 5341   2.478   4.118  13.071 -1.2138  0.8053 -1.0040
   42DOPE   H8S 5342   2.539   4.092  12.896  0.3853 -2.2488 -1.7921
   42DOPE   C29 5343   2.521   3.912  13.007  0.1019  0.8497  0.1490
   42DOPE   H9R 5344   2.442   3.837  13.023  0.3899  0.5021 -0.0201
   42DOPE  C210 5345   2.649   3.862  13.012 -0.0397  0.4809 -0.4110
   42DOPE  H10R 5346   2.665   3.755  13.033  1.2129  0.5039 -1.1800
   42DOPE  C211 5347   2.780   3.940  13.016 -0.3231 -0.2163 -0.3877
   42DOPE  H11R 5348   2.768   4.049  12.996  4.4670  0.8884  1.2304
   42DOPE  H11S 5349   2.845   3.897  12.937  1.2939 -0.2074  0.8875
   42DOPE  C212 5350   2.834   3.942  13.163 -0.5880  0.2657  0.3344
   42DOPE  H12R 5351   2.936   3.987  13.162 -1.0820  1.4183  0.6889
   42DOPE  H12S 5352   2.844   3.837  13.197 -0.6702  0.6398  1.5636
   42DOPE  C213 5353   2.746   4.008  13.270  0.6131 -0.0705  0.5028
   42DOPE  H13R 5354   2.650   3.952  13.278  0.0253  0.1194 -3.2621
   42DOPE  H13S 5355   2.722   4.109  13.232  0.0493  0.5377  2.3748
   42DOPE  C214 5356   2.803   4.010  13.412 -0.3555  0.0200 -0.1389
   42DOPE  H14R 5357   2.739   4.071  13.479  0.2061  0.1618  0.2787
   42DOPE  H14S 5358   2.904   4.055  13.403  0.0330 -0.7526  0.2482
   42DOPE  C215 5359   2.823   3.869  13.464  0.2609 -0.3890 -0.6424
   42DOPE  H15R 5360   2.908   3.825  13.409 -1.8172  0.0238 -4.5210
   42DOPE  H15S 5361   2.731   3.814  13.436 -0.9288  1.3250 -0.3379
   42DOPE  C216 5362   2.837   3.865  13.621 -0.6020 -0.4040 -0.0183
   42DOPE  H16R 5363   2.831   3.761  13.658  0.6130  0.6511  3.5748
   42DOPE  H16S 5364   2.751   3.917  13.669 -0.7076  0.3603 -1.0000
   42DOPE  C217 5365   2.976   3.909  13.669 -0.4329  0.1959 -0.3584
   42DOPE  H17R 5366   3.011   3.994  13.607 -1.2050  1.2732  0.6379
   42DOPE  H17S 5367   3.046   3.825  13.648 -1.3745 -0.3359 -1.5042
   42DOPE  C218 5368   2.967   3.923  13.819 -0.0126  0.0756  0.2494
   42DOPE  H18R 5369   2.917   3.834  13.864  0.3453 -0.2180  0.0797
   42DOPE  H18S 5370   2.922   4.019  13.849 -0.1989 -0.2473  1.0224
   42DOPE  H18T 5371   3.069   3.920  13.863 -0.1908 -0.1786  0.6432
   42DOPE   C33 5372   2.162   5.238  12.840  0.2810 -0.8005  0.2236
   42DOPE   H3X 5373   2.075   5.272  12.899  2.3102  3.9649  0.9635
   42DOPE   H3Y 5374   2.168   5.309  12.755 -0.4109 -2.9236 -1.6754
   42DOPE   C34 5375   2.301   5.252  12.911  0.1730  0.0161  0.2862
   42DOPE   H4X 5376   2.298   5.173  12.989 -0.7295 -0.0809  0.1558
   42DOPE   H4Y 5377   2.382   5.234  12.838  0.3580  0.0057  0.4923
   42DOPE   C35 5378   2.317   5.391  12.974  0.1205 -0.1973  0.5908
   42DOPE   H5X 5379   2.238   5.413  13.049  2.0544  0.2281  2.6179
   42DOPE   H5Y 5380   2.320   5.472  12.899 -1.3353 -0.5585  0.1091
   42DOPE   C36 5381   2.462   5.396  13.043  0.2890  0.8983  0.3495
   42DOPE   H6X 5382   2.484   5.501  13.074  0.6859  0.9696 -0.1508
   42DOPE   H6Y 5383   2.519   5.368  12.952 -0.7001 -0.8362  0.2182
   42DOPE   C37 5384   2.480   5.306  13.171  0.0827 -0.1032 -0.0944
   42DOPE   H7X 5385   2.406   5.328  13.251 -0.1739  1.3424 -0.7022
   42DOPE   H7Y 5386   2.458   5.198  13.161 -0.5160  0.0668 -0.7111
   42DOPE   C38 5387   2.624   5.326  13.220 -0.5233 -0.1786 -0.6727
   42DOPE   H8X 5388   2.630   5.285  13.323  0.2063  3.2690  0.7875
   42DOPE   H8Y 5389   2.640   5.432  13.249 -3.5599 -0.0667  0.9831
   42DOPE   C39 5390   2.735   5.278  13.135 -0.7394  0.1078 -0.4123
   42DOPE   H9X 5391   2.734   5.318  13.032  2.2950 -0.8464 -0.9269
   42DOPE  C310 5392   2.834   5.192  13.162 -0.1507 -0.2489  0.2530
   42DOPE  H10X 5393   2.896   5.164  13.075 -1.9108  0.3961 -1.2830
   42DOPE  C311 5394   2.865   5.118  13.289  0.0215  0.3756  0.2993
   42DOPE  H11X 5395   2.976   5.115  13.292  0.0454 -1.1042 -0.9118
   42DOPE  H11Y 5396   2.833   5.179  13.376 -1.7987 -0.0764 -0.0021
   42DOPE  C312 5397   2.822   4.969  13.307 -0.7097 -0.4470  0.3007
   42DOPE  H12X 5398   2.881   4.931  13.393 -1.4336 -0.8741  0.6118
   42DOPE  H12Y 5399   2.843   4.915  13.212  1.1236  0.3818  0.1925
   42DOPE  C313 5400   2.671   4.950  13.340 -0.2724  0.3665 -0.3518
   42DOPE  H13X 5401   2.618   5.007  13.260 -0.2028 -0.4878 -1.0214
   42DOPE  H13Y 5402   2.643   4.844  13.322 -0.1321  0.0476  1.2071
   42DOPE  C314 5403   2.633   4.998  13.486  0.0465  0.6640 -0.4602
   42DOPE  H14X 5404   2.668   5.104  13.482 -0.5220  0.8194 -1.8483
   42DOPE  H14Y 5405   2.703   4.954  13.560  0.5355 -0.5722 -1.6253
   42DOPE  C315 5406   2.485   4.990  13.515  0.6724  0.3337  1.1907
   42DOPE  H15X 5407   2.455   5.030  13.614 -2.9289  1.0484 -0.0426
   42DOPE  H15Y 5408   2.451   4.884  13.508 -1.3274  0.8526  2.4272
   42DOPE  C316 5409   2.390   5.065  13.414 -0.1306  0.3656  0.3514
   42DOPE  H16X 5410   2.405   5.031  13.309 -2.0274  2.1652 -0.5670
   42DOPE  H16Y 5411   2.403   5.173  13.433  0.4777  0.3592  0.0041
   42DOPE  C317 5412   2.240   5.041  13.453 -0.3549 -0.1773  0.0419
   42DOPE  H17X 5413   2.231   4.932  13.473 -2.3850 -0.1514 -0.5316
   42DOPE  H17Y 5414   2.216   5.097  13.546  0.8466  0.0001  0.2588
   42DOPE  C318 5415   2.140   5.083  13.340 -0.0233  0.1525 -0.4973
   42DOPE  H18X 5416   2.045   5.120  13.383 -0.3747 -1.7939  0.5230
   42DOPE  H18Y 5417   2.170   5.174  13.283 -2.0037  1.7574  0.9276
   42DOPE  H18Z 5418   2.096   4.997  13.285 -0.6810 -0.8101  1.4622
   43DOPE     N 5419   3.300   3.657  12.464  0.1678 -0.3118  0.7037
   43DOPE   HN1 5420   3.304   3.659  12.568  1.5497 -1.0740  0.6933
   43DOPE   HN2 5421   3.203   3.664  12.428 -0.0912 -0.2919  1.3895
   43DOPE   HN3 5422   3.336   3.564  12.432 -0.1137 -0.2657  0.2496
   43DOPE   C12 5423   3.366   3.770  12.389  0.3977  0.6208 -0.3983
   43DOPE  H12A 5424   3.368   3.747  12.280  1.6075  0.0028 -0.2680
   43DOPE  H12B 5425   3.471   3.783  12.424  1.4477 -2.1988 -2.2087
   43DOPE   C11 5426   3.290   3.901  12.417  0.0095  0.2060 -0.6685
   43DOPE  H11A 5427   3.353   3.992  12.417  0.6926 -0.2548 -0.2933
   43DOPE  H11B 5428   3.249   3.896  12.521  1.3223  0.7947 -0.1000
   43DOPE     P 5429   3.195   4.006  12.196  0.2426  0.1207 -0.1562
   43DOPE   O13 5430   3.062   3.998  12.122  0.2183  0.2330 -0.4437
   43DOPE   O14 5431   3.316   3.972  12.121  0.2466  0.8099 -0.0881
   43DOPE   O11 5432   3.208   4.146  12.265  0.8337 -0.1784  0.7622
   43DOPE   O12 5433   3.182   3.916  12.321 -0.6428 -0.2378 -0.2860
   43DOPE    C1 5434   3.102   4.235  12.299 -0.0047  0.0942  0.1674
   43DOPE    HA 5435   3.017   4.216  12.230  1.6944  0.8452 -2.2322
   43DOPE    HB 5436   3.128   4.343  12.292  0.5795 -0.0420  0.1828
   43DOPE    C2 5437   3.060   4.224  12.455 -0.9512  0.4394  0.5395
   43DOPE    HS 5438   3.151   4.203  12.515  0.3308  0.1346 -1.4391
   43DOPE   O21 5439   2.965   4.117  12.464 -0.3029  0.7231  0.2294
   43DOPE   C21 5440   2.959   4.052  12.578 -0.7292  0.7280 -0.0003
   43DOPE   O22 5441   3.033   4.069  12.672 -0.8316 -0.0583 -0.0533
   43DOPE   C22 5442   2.847   3.955  12.560  0.0694  0.1906 -0.0398
   43DOPE   H2R 5443   2.822   3.933  12.454  0.2687  0.1432 -0.0782
   43DOPE   H2S 5444   2.757   4.009  12.596 -0.4622 -1.2799  0.9488
   43DOPE    C3 5445   3.005   4.356  12.502  0.2071  0.0490 -0.0074
   43DOPE    HX 5446   2.911   4.383  12.449 -0.9635 -1.4795  1.2002
   43DOPE    HY 5447   3.071   4.438  12.466 -0.3643  1.3331  1.7252
   43DOPE   O31 5448   2.993   4.360  12.649 -0.9751  0.3043 -0.5859
   43DOPE   C31 5449   2.875   4.358  12.696 -0.4813  0.4403  0.0078
   43DOPE   O32 5450   2.775   4.362  12.630 -0.0274  0.2584 -0.3044
   43DOPE   C32 5451   2.889   4.347  12.855  0.0458  0.2186  0.5420
   43DOPE   H2X 5452   2.935   4.249  12.881  1.6537  0.6504 -0.5031
   43DOPE   H2Y 5453   2.961   4.425  12.885  1.1515 -1.0047  1.1404
   43DOPE   C23 5454   2.865   3.822  12.636  0.4583  0.7366  0.0007
   43DOPE   H3R 5455   2.861   3.826  12.747  0.3028 -0.2685  0.0473
   43DOPE   H3S 5456   2.964   3.778  12.611  0.2173  1.0080 -1.5595
   43DOPE   C24 5457   2.758   3.719  12.606 -0.2116 -0.0254  0.0695
   43DOPE   H4R 5458   2.767   3.690  12.499 -1.2663  1.0482 -0.3392
   43DOPE   H4S 5459   2.658   3.757  12.638  0.4997  1.4458  0.5914
   43DOPE   C25 5460   2.791   3.593  12.693  0.1098 -0.4852 -0.1363
   43DOPE   H5R 5461   2.771   3.627  12.796 -1.9650  1.9168 -1.2284
   43DOPE   H5S 5462   2.894   3.558  12.673  0.6650  0.7694  0.4009
   43DOPE   C26 5463   2.685   3.480  12.681  0.9082 -1.2121  0.0102
   43DOPE   H6R 5464   2.701   3.416  12.591 -0.0214 -1.0166 -0.3025
   43DOPE   H6S 5465   2.589   3.535  12.681 -0.1503 -2.9770  0.4679
   43DOPE   C27 5466   2.689   3.377  12.791 -0.4952  0.6540 -0.0819
   43DOPE   H7R 5467   2.612   3.298  12.774 -0.5049  0.4238  0.9264
   43DOPE   H7S 5468   2.652   3.421  12.886  0.9851  2.4944 -0.3095
   43DOPE   C28 5469   2.829   3.315  12.804  0.0182  0.8690  0.5287
   43DOPE   H8R 5470   2.902   3.383  12.853  0.1648 -0.6766  2.6019
   43DOPE   H8S 5471   2.856   3.304  12.697 -3.5221 -1.8248 -0.3082
   43DOPE   C29 5472   2.813   3.187  12.885 -0.3765  0.6101  1.0044
   43DOPE   H9R 5473   2.765   3.105  12.829 -0.0745  0.5778  0.7938
   43DOPE  C210 5474   2.838   3.166  13.013 -0.1371 -0.2229  0.3168
   43DOPE  H10R 5475   2.837   3.067  13.061 -0.7372  0.3768  1.6057
   43DOPE  C211 5476   2.889   3.271  13.108 -0.9855 -0.1766  0.1790
   43DOPE  H11R 5477   2.827   3.252  13.199 -2.5421 -0.2797 -0.8626
   43DOPE  H11S 5478   2.860   3.369  13.065 -2.3886 -1.6532 -2.5065
   43DOPE  C212 5479   3.041   3.272  13.136 -0.0951 -0.2959  0.2351
   43DOPE  H12R 5480   3.077   3.350  13.206 -1.9411  0.3348  0.5354
   43DOPE  H12S 5481   3.097   3.284  13.041  2.3905 -0.6453  1.5642
   43DOPE  C213 5482   3.099   3.138  13.177 -0.5642  0.2625 -0.2862
   43DOPE  H13R 5483   3.209   3.148  13.177 -0.2661 -2.0162 -2.9720
   43DOPE  H13S 5484   3.078   3.071  13.091  0.8907  0.8950 -1.1725
   43DOPE  C214 5485   3.047   3.098  13.312 -0.1655 -0.3936  0.4969
   43DOPE  H14R 5486   2.936   3.090  13.308 -0.1629 -0.1212 -0.1823
   43DOPE  H14S 5487   3.074   3.177  13.385 -1.0680 -0.8147  1.3123
   43DOPE  C215 5488   3.115   2.962  13.357 -0.2270  0.5103  1.1831
   43DOPE  H15R 5489   3.223   2.972  13.330 -0.4064 -0.7781 -0.1361
   43DOPE  H15S 5490   3.071   2.884  13.291 -2.8565  0.9919  2.2464
   43DOPE  C216 5491   3.105   2.933  13.506 -0.1969 -1.0933 -0.0469
   43DOPE  H16R 5492   2.996   2.942  13.527 -0.2317 -1.4834 -0.0524
   43DOPE  H16S 5493   3.160   3.020  13.548  0.8679 -0.7922 -1.9588
   43DOPE  C217 5494   3.137   2.795  13.555 -0.1569 -0.6071  0.0356
   43DOPE  H17R 5495   3.248   2.795  13.548 -0.2014  1.4427 -4.4420
   43DOPE  H17S 5496   3.102   2.721  13.480  1.2446 -3.1311  1.7327
   43DOPE  C218 5497   3.082   2.757  13.692  0.3080 -0.1393  0.2784
   43DOPE  H18R 5498   2.974   2.779  13.706  0.0124  0.7059 -2.6233
   43DOPE  H18S 5499   3.126   2.814  13.777 -0.9099  0.8976  0.2363
   43DOPE  H18T 5500   3.080   2.647  13.710 -1.2762  0.0723  1.6302
   43DOPE   C33 5501   2.747   4.361  12.911 -0.0816 -0.1117 -0.1867
   43DOPE   H3X 5502   2.670   4.286  12.884  0.0756 -1.7418  3.3627
   43DOPE   H3Y 5503   2.702   4.454  12.871 -0.7799 -1.4662 -2.7992
   43DOPE   C34 5504   2.733   4.353  13.067  0.3379  0.0031  0.4752
   43DOPE   H4X 5505   2.624   4.352  13.088 -0.0387  0.4293 -1.3221
   43DOPE   H4Y 5506   2.772   4.253  13.095 -1.9009 -1.9789 -2.7655
   43DOPE   C35 5507   2.791   4.462  13.149  0.3762  0.0540  0.5276
   43DOPE   H5X 5508   2.766   4.563  13.110 -0.7930 -0.7596 -0.9620
   43DOPE   H5Y 5509   2.900   4.446  13.160  0.2198  0.0068  2.4636
   43DOPE   C36 5510   2.742   4.451  13.285  0.6783  0.1974  0.0119
   43DOPE   H6X 5511   2.765   4.350  13.325  2.2387  1.1925  1.7694
   43DOPE   H6Y 5512   2.632   4.463  13.294  0.9044  2.0519  0.7074
   43DOPE   C37 5513   2.801   4.551  13.390 -0.4218 -0.3878  0.5227
   43DOPE   H7X 5514   2.912   4.543  13.385 -0.5412 -2.0547 -0.4670
   43DOPE   H7Y 5515   2.767   4.650  13.351 -1.8376 -2.5205 -4.5033
   43DOPE   C38 5516   2.756   4.545  13.534 -0.2188  0.0479  0.4118
   43DOPE   H8X 5517   2.645   4.539  13.534 -0.1587 -3.5391 -1.4839
   43DOPE   H8Y 5518   2.790   4.644  13.572 -1.7824  0.6171  0.3802
   43DOPE   C39 5519   2.818   4.432  13.611 -0.1212  0.0428  0.3132
   43DOPE   H9X 5520   2.928   4.435  13.614 -0.1084 -0.1964  0.0688
   43DOPE  C310 5521   2.754   4.315  13.646 -0.6336 -0.4969  0.0582
   43DOPE  H10X 5522   2.810   4.229  13.686  0.8110 -0.6288 -2.0848
   43DOPE  C311 5523   2.610   4.277  13.650 -0.1892  0.5060  0.3956
   43DOPE  H11X 5524   2.549   4.356  13.700  1.0440  1.0357  1.1232
   43DOPE  H11Y 5525   2.570   4.249  13.551  1.1262 -2.0053  0.4939
   43DOPE  C312 5526   2.578   4.166  13.746  0.2397  1.2733  0.0756
   43DOPE  H12X 5527   2.616   4.183  13.850  0.9424 -2.7720  0.6455
   43DOPE  H12Y 5528   2.637   4.081  13.705 -0.5912  0.1660  1.0737
   43DOPE  C313 5529   2.429   4.118  13.753  0.6029  0.3763  0.1963
   43DOPE  H13X 5530   2.359   4.201  13.779  0.6906  0.3998  0.3566
   43DOPE  H13Y 5531   2.391   4.081  13.655 -0.4278 -1.8286  1.3739
   43DOPE  C314 5532   2.381   4.012  13.850  0.1760  0.3928 -0.2837
   43DOPE  H14X 5533   2.417   4.041  13.951 -0.9403  0.3187  0.1502
   43DOPE  H14Y 5534   2.413   3.907  13.833 -1.7991 -0.3478  0.3848
   43DOPE  C315 5535   2.229   4.003  13.867  0.4583  0.2236  0.4069
   43DOPE  H15X 5536   2.197   3.949  13.775  2.5562  0.2327 -0.3978
   43DOPE  H15Y 5537   2.190   4.107  13.863  0.6057  0.2588 -0.2506
   43DOPE  C316 5538   2.185   3.918  13.990 -0.5085  0.3045 -0.4980
   43DOPE  H16X 5539   2.075   3.911  13.995 -0.5154  0.8914  0.6815
   43DOPE  H16Y 5540   2.222   3.965  14.085 -2.6394 -0.1462  0.6060
   43DOPE  C317 5541   2.233   3.771  13.981  0.2341  0.1104 -0.8331
   43DOPE  H17X 5542   2.344   3.766  13.977  0.3732 -0.1070  1.7985
   43DOPE  H17Y 5543   2.200   3.704  14.063  0.7596 -0.6761 -1.2487
   43DOPE  C318 5544   2.192   3.708  13.852  0.5323 -0.4132  0.2558
   43DOPE  H18X 5545   2.260   3.750  13.775  1.1019 -0.7960  0.5447
   43DOPE  H18Y 5546   2.207   3.598  13.853 -0.9974 -0.6786  2.5186
   43DOPE  H18Z 5547   2.084   3.728  13.833  0.1023 -2.4589  0.2826
   44DOPE     N 5548   3.393   1.375  12.666  0.9845  0.4439 -0.8702
   44DOPE   HN1 5549   3.366   1.362  12.567 -1.3273  0.9979 -0.3863
   44DOPE   HN2 5550   3.340   1.449  12.717 -0.9834 -0.8012 -0.9955
   44DOPE   HN3 5551   3.493   1.401  12.668  0.4710  2.5904 -1.1202
   44DOPE   C12 5552   3.367   1.244  12.744 -0.1672  0.5822  0.7400
   44DOPE  H12A 5553   3.256   1.236  12.740 -0.1397  0.6574 -0.6109
   44DOPE  H12B 5554   3.399   1.256  12.849  1.9371  0.0827  0.1878
   44DOPE   C11 5555   3.444   1.133  12.673  0.6415  0.1726  0.1307
   44DOPE  H11A 5556   3.407   1.131  12.569  1.2248 -1.5133 -0.0708
   44DOPE  H11B 5557   3.422   1.039  12.727 -0.7379  0.3802 -0.0357
   44DOPE     P 5558   3.675   1.058  12.570 -0.4570 -0.3112 -0.4337
   44DOPE   O13 5559   3.723   1.146  12.462 -0.1748  0.0433  0.3672
   44DOPE   O14 5560   3.591   0.942  12.530 -0.2366  0.2323 -0.2326
   44DOPE   O11 5561   3.801   1.007  12.647  0.5723 -0.2914  0.2334
   44DOPE   O12 5562   3.589   1.140  12.679 -0.2209 -0.3509  0.3715
   44DOPE    C1 5563   3.796   0.999  12.790  0.1397  0.0043 -0.0078
   44DOPE    HA 5564   3.696   0.977  12.833 -0.0186  2.6220  1.1581
   44DOPE    HB 5565   3.834   1.093  12.836  0.3638 -0.4006  0.6449
   44DOPE    C2 5566   3.892   0.887  12.851  0.0322 -0.0022  0.4282
   44DOPE    HS 5567   3.993   0.889  12.805  0.4759  2.0037  1.3831
   44DOPE   O21 5568   3.823   0.765  12.823 -0.4862  0.8009  0.3412
   44DOPE   C21 5569   3.895   0.661  12.851 -0.6210 -0.3668  0.1176
   44DOPE   O22 5570   4.018   0.656  12.852 -0.3206 -0.0677  0.1021
   44DOPE   C22 5571   3.792   0.540  12.866 -0.3137  0.0839  0.3425
   44DOPE   H2R 5572   3.860   0.455  12.892 -0.8696 -0.2715  0.6658
   44DOPE   H2S 5573   3.756   0.523  12.763 -1.4697  0.4169  0.6739
   44DOPE    C3 5574   3.921   0.905  13.001  0.8757  0.0395  0.5225
   44DOPE    HX 5575   3.984   0.822  13.040 -0.8067 -0.3838  2.5034
   44DOPE    HY 5576   3.824   0.893  13.053  0.5315 -2.3692 -0.5183
   44DOPE   O31 5577   3.970   1.033  13.035 -0.3955  0.3967 -0.2189
   44DOPE   C31 5578   4.101   1.050  13.006  0.8309 -0.1278 -0.7664
   44DOPE   O32 5579   4.167   0.971  12.948  0.9428  0.6307 -0.1515
   44DOPE   C32 5580   4.139   1.194  13.040  0.0284 -0.4105  0.0870
   44DOPE   H2X 5581   4.249   1.187  13.051  0.4313  0.3237 -2.6103
   44DOPE   H2Y 5582   4.142   1.262  12.952  1.4426 -2.3751 -1.4979
   44DOPE   C23 5583   3.691   0.571  12.973  0.3713  0.2905  0.6830
   44DOPE   H3R 5584   3.611   0.495  12.962 -0.7468  1.4753  0.3980
   44DOPE   H3S 5585   3.644   0.667  12.943  0.4040  0.2423  0.4774
   44DOPE   C24 5586   3.730   0.555  13.120 -0.0110  0.6330  0.4982
   44DOPE   H4R 5587   3.821   0.616  13.141 -0.0013  0.6295  0.4659
   44DOPE   H4S 5588   3.753   0.451  13.151  0.6442  0.5402 -0.2548
   44DOPE   C25 5589   3.618   0.625  13.204  0.2757  0.3491  0.2222
   44DOPE   H5R 5590   3.610   0.732  13.174  3.9676  0.8977  0.6960
   44DOPE   H5S 5591   3.653   0.618  13.309  0.8657 -0.8206 -0.0345
   44DOPE   C26 5592   3.476   0.561  13.187  0.5589 -0.6850 -0.6171
   44DOPE   H6R 5593   3.438   0.559  13.082 -0.1936  1.2937 -0.4364
   44DOPE   H6S 5594   3.408   0.622  13.250  1.7194 -1.3418  1.3352
   44DOPE   C27 5595   3.467   0.419  13.245  0.0343 -0.0985 -0.8266
   44DOPE   H7R 5596   3.528   0.350  13.183  1.6711  0.7309 -0.1925
   44DOPE   H7S 5597   3.360   0.390  13.237 -0.5827  1.7057  0.3201
   44DOPE   C28 5598   3.513   0.398  13.396 -0.5971  0.1447  0.6739
   44DOPE   H8R 5599   3.620   0.429  13.391 -0.2505 -1.1475 -0.4454
   44DOPE   H8S 5600   3.508   0.290  13.422  1.0474 -0.2417 -0.4569
   44DOPE   C29 5601   3.436   0.487  13.496 -0.1554 -0.1972 -0.0855
   44DOPE   H9R 5602   3.328   0.466  13.503 -0.6087  2.1234  0.7058
   44DOPE  C210 5603   3.482   0.587  13.562 -0.0619 -0.6630 -0.4988
   44DOPE  H10R 5604   3.415   0.644  13.628  1.0667  0.0382  0.0970
   44DOPE  C211 5605   3.621   0.650  13.566  0.0127 -0.0255 -0.6774
   44DOPE  H11R 5606   3.696   0.585  13.517 -0.2179  0.4271 -1.6608
   44DOPE  H11S 5607   3.652   0.642  13.673 -2.6700 -0.7351  0.1284
   44DOPE  C212 5608   3.617   0.796  13.523  0.0540 -0.2282 -0.4093
   44DOPE  H12R 5609   3.523   0.845  13.556  0.2226  1.4604 -2.2677
   44DOPE  H12S 5610   3.627   0.795  13.412  2.8853 -0.6638 -0.2308
   44DOPE  C213 5611   3.735   0.885  13.575 -0.4899 -0.3070  0.5390
   44DOPE  H13R 5612   3.711   0.916  13.679 -0.6271 -1.6929  0.9347
   44DOPE  H13S 5613   3.747   0.983  13.523 -4.3335 -0.2195 -0.4895
   44DOPE  C214 5614   3.871   0.823  13.591 -0.4780  0.2257 -0.3255
   44DOPE  H14R 5615   3.853   0.717  13.622  1.3707 -0.2500 -0.7445
   44DOPE  H14S 5616   3.935   0.866  13.671 -0.1373  0.7921 -0.8927
   44DOPE  C215 5617   3.947   0.829  13.454  0.1340  0.3437 -0.2798
   44DOPE  H15R 5618   3.959   0.931  13.412  0.9543  0.8599  1.1043
   44DOPE  H15S 5619   3.901   0.764  13.377  0.8669 -0.0606 -0.3783
   44DOPE  C216 5620   4.091   0.782  13.455 -0.2122  0.3828 -0.2993
   44DOPE  H16R 5621   4.097   0.686  13.511  0.0252 -0.1617 -1.2306
   44DOPE  H16S 5622   4.150   0.852  13.518 -1.3621  2.0194 -0.9677
   44DOPE  C217 5623   4.153   0.770  13.319  0.3074 -0.3779 -0.2602
   44DOPE  H17R 5624   4.149   0.866  13.264 -0.7326 -0.4402 -0.3147
   44DOPE  H17S 5625   4.078   0.714  13.260  0.3236 -0.1824 -0.4674
   44DOPE  C218 5626   4.295   0.714  13.325  0.7298  0.4092 -0.0614
   44DOPE  H18R 5627   4.282   0.619  13.381 -2.9353  0.9206  0.2067
   44DOPE  H18S 5628   4.345   0.782  13.397 -0.4899  2.9820 -1.4870
   44DOPE  H18T 5629   4.341   0.708  13.224  0.2195 -1.8220 -0.2121
   44DOPE   C33 5630   4.060   1.268  13.158 -0.5092  0.5187 -0.1177
   44DOPE   H3X 5631   3.955   1.269  13.120 -0.7880 -1.9786  0.4429
   44DOPE   H3Y 5632   4.095   1.373  13.167  1.3453 -0.0917  0.1444
   44DOPE   C34 5633   4.079   1.200  13.294 -0.3817  0.3750 -0.3999
   44DOPE   H4X 5634   4.049   1.093  13.299  1.6994 -0.3034 -1.2172
   44DOPE   H4Y 5635   4.189   1.203  13.308 -0.5072  1.9578  0.4355
   44DOPE   C35 5636   4.004   1.260  13.413  0.1522 -0.4306  0.0343
   44DOPE   H5X 5637   3.902   1.223  13.389  1.1052 -3.4138  0.2276
   44DOPE   H5Y 5638   4.007   1.371  13.415 -1.0704 -0.3904  0.8941
   44DOPE   C36 5639   4.062   1.213  13.541 -0.1911 -0.3399  0.8220
   44DOPE   H6X 5640   4.172   1.217  13.523  0.1926  1.0075  3.0750
   44DOPE   H6Y 5641   4.038   1.106  13.561 -1.8846  0.1562  1.5984
   44DOPE   C37 5642   4.023   1.290  13.672 -0.5346  0.2799  0.0833
   44DOPE   H7X 5643   4.051   1.237  13.765 -1.5878 -2.2576 -0.9547
   44DOPE   H7Y 5644   4.069   1.391  13.679  0.9044 -0.4264  1.4652
   44DOPE   C38 5645   3.873   1.324  13.677  0.1940  0.8199  0.2309
   44DOPE   H8X 5646   3.823   1.228  13.702  0.6809  0.5242  0.0947
   44DOPE   H8Y 5647   3.846   1.328  13.569  2.5583 -0.0068 -0.4698
   44DOPE   C39 5648   3.829   1.440  13.759  0.4799  0.0350  0.7898
   44DOPE   H9X 5649   3.886   1.459  13.851 -0.8478  0.0979  1.6201
   44DOPE  C310 5650   3.725   1.518  13.721  0.9231 -0.4980  0.0506
   44DOPE  H10X 5651   3.700   1.596  13.794 -2.1639 -3.5551  2.6076
   44DOPE  C311 5652   3.642   1.521  13.595 -0.0184  0.8115  0.6586
   44DOPE  H11X 5653   3.657   1.432  13.531  0.1629  0.4867  1.1531
   44DOPE  H11Y 5654   3.537   1.505  13.627  0.5318 -2.0579  1.2728
   44DOPE  C312 5655   3.650   1.658  13.522 -1.0725  1.0617  0.2129
   44DOPE  H12X 5656   3.629   1.650  13.413  1.8440 -1.8113 -0.3173
   44DOPE  H12Y 5657   3.754   1.697  13.533 -1.6141  2.8136 -0.5174
   44DOPE  C313 5658   3.565   1.756  13.596 -0.5673  0.8937  0.1345
   44DOPE  H13X 5659   3.543   1.735  13.703 -1.3735 -1.5538 -0.4562
   44DOPE  H13Y 5660   3.621   1.853  13.598  0.1382  0.4962 -0.1370
   44DOPE  C314 5661   3.429   1.781  13.527 -0.4956 -0.7950 -0.1265
   44DOPE  H14X 5662   3.351   1.808  13.602  0.4384 -0.0087  0.5852
   44DOPE  H14Y 5663   3.411   1.677  13.493 -1.0394 -0.5411 -0.6148
   44DOPE  C315 5664   3.427   1.884  13.413  0.0171  0.1445 -0.0555
   44DOPE  H15X 5665   3.508   1.856  13.342  0.5910 -2.0030  1.3656
   44DOPE  H15Y 5666   3.448   1.981  13.463 -2.0158 -0.3646  1.9068
   44DOPE  C316 5667   3.295   1.889  13.349  1.0832  0.1007  0.7407
   44DOPE  H16X 5668   3.279   1.959  13.265 -0.5361 -1.7093 -0.5598
   44DOPE  H16Y 5669   3.215   1.909  13.423 -0.0699 -1.2385 -0.0995
   44DOPE  C317 5670   3.241   1.750  13.290 -0.2393 -0.9391  0.1704
   44DOPE  H17X 5671   3.232   1.680  13.376 -2.2940 -0.9799 -0.0283
   44DOPE  H17Y 5672   3.140   1.771  13.248 -0.1361  0.4518  0.5654
   44DOPE  C318 5673   3.326   1.664  13.194  0.6138 -0.1319  0.3350
   44DOPE  H18X 5674   3.414   1.623  13.249  2.2284  0.9579 -1.2896
   44DOPE  H18Y 5675   3.261   1.582  13.155 -0.2489  1.1412 -0.9959
   44DOPE  H18Z 5676   3.373   1.732  13.120  0.5137 -0.2500  0.1629
   45DOPE     N 5677   5.618   8.319  12.549 -0.5023 -0.6585  0.1683
   45DOPE   HN1 5678   5.558   8.237  12.525 -2.5664  0.7732  0.1797
   45DOPE   HN2 5679   5.708   8.269  12.565  0.3563 -1.0322 -4.4880
   45DOPE   HN3 5680   5.568   8.369  12.626 -0.1727  0.9209 -0.6082
   45DOPE   C12 5681   5.623   8.402  12.424  0.3157  0.0064  0.0496
   45DOPE  H12A 5682   5.661   8.346  12.336  2.2195  2.6434 -0.9289
   45DOPE  H12B 5683   5.695   8.484  12.444  0.2791 -0.1096  0.6962
   45DOPE   C11 5684   5.482   8.452  12.396  0.1959  0.3854 -0.3185
   45DOPE  H11A 5685   5.472   8.527  12.315  0.2366  0.1736 -0.5178
   45DOPE  H11B 5686   5.459   8.507  12.491  3.9124  1.7843 -0.0415
   45DOPE     P 5687   5.233   8.362  12.368  0.0103 -0.3404 -0.3030
   45DOPE   O13 5688   5.167   8.280  12.468  0.6585 -0.0035  0.4249
   45DOPE   O14 5689   5.180   8.356  12.228  0.2834  0.0731 -0.8548
   45DOPE   O11 5690   5.210   8.508  12.424 -0.4618 -0.6464  0.1554
   45DOPE   O12 5691   5.394   8.341  12.363  0.2092  0.2862  0.1187
   45DOPE    C1 5692   5.081   8.561  12.465  0.0968  0.2956  0.1057
   45DOPE    HA 5693   5.001   8.487  12.448  1.2394 -1.1340  0.6459
   45DOPE    HB 5694   5.054   8.653  12.408 -0.7402  0.0784  0.1549
   45DOPE    C2 5695   5.083   8.598  12.617 -0.7720  0.2063  0.2811
   45DOPE    HS 5696   4.976   8.619  12.638 -0.3031  1.7754  1.2955
   45DOPE   O21 5697   5.152   8.719  12.627  0.2417  0.5132 -0.4306
   45DOPE   C21 5698   5.112   8.815  12.705 -0.7658 -0.3578  0.6697
   45DOPE   O22 5699   5.001   8.828  12.751 -0.0998 -0.3322 -0.1774
   45DOPE   C22 5700   5.222   8.924  12.701  0.3704 -0.4894  0.4588
   45DOPE   H2R 5701   5.180   9.006  12.639 -0.2512 -0.0643  1.4216
   45DOPE   H2S 5702   5.306   8.886  12.639  0.0932  1.5748 -1.3318
   45DOPE    C3 5703   5.138   8.483  12.713  1.1729 -0.2954  0.3144
   45DOPE    HX 5704   5.241   8.469  12.676  0.8319 -0.0950 -0.7391
   45DOPE    HY 5705   5.081   8.389  12.701  3.7871 -1.9269 -0.0094
   45DOPE   O31 5706   5.140   8.509  12.853  0.1033 -0.0461 -0.3306
   45DOPE   C31 5707   5.026   8.525  12.925 -0.4101 -0.3926 -0.4829
   45DOPE   O32 5708   4.918   8.517  12.870 -0.5712 -1.0992  0.0113
   45DOPE   C32 5709   5.046   8.538  13.078 -0.7916  0.6224  0.7218
   45DOPE   H2X 5710   5.155   8.529  13.096 -0.4346 -0.0271 -1.5223
   45DOPE   H2Y 5711   5.009   8.637  13.112  1.2678  1.8237 -0.3546
   45DOPE   C23 5712   5.233   8.975  12.846  0.1854  0.0956  0.4431
   45DOPE   H3R 5713   5.144   9.030  12.884  0.0879  0.2701 -0.0284
   45DOPE   H3S 5714   5.321   9.043  12.842 -0.8241  1.4685  0.5812
   45DOPE   C24 5715   5.272   8.867  12.949  1.5119  0.1382  0.2676
   45DOPE   H4R 5716   5.361   8.808  12.917 -0.2415 -4.7001  3.1840
   45DOPE   H4S 5717   5.186   8.797  12.959  0.9020  0.9291  0.6728
   45DOPE   C25 5718   5.300   8.938  13.080  0.3345 -0.1990 -0.2223
   45DOPE   H5R 5719   5.215   9.000  13.114  0.5718  0.2877 -0.5008
   45DOPE   H5S 5720   5.381   9.010  13.054  1.4775 -1.7455 -1.1027
   45DOPE   C26 5721   5.352   8.854  13.201 -0.3322  0.2688  0.9779
   45DOPE   H6R 5722   5.461   8.837  13.187 -0.6314 -0.0808 -1.2417
   45DOPE   H6S 5723   5.302   8.755  13.208  0.0554 -0.3247 -2.8396
   45DOPE   C27 5724   5.321   8.928  13.331  0.6992 -0.0939 -0.5408
   45DOPE   H7R 5725   5.210   8.939  13.335  0.6700  0.3375 -2.0586
   45DOPE   H7S 5726   5.373   9.026  13.327  0.9792 -0.1515  0.9495
   45DOPE   C28 5727   5.375   8.839  13.443  0.1674  0.3067 -0.0008
   45DOPE   H8R 5728   5.483   8.817  13.426  0.0802  1.3766 -2.4215
   45DOPE   H8S 5729   5.318   8.744  13.444 -0.2192  0.5105  2.5986
   45DOPE   C29 5730   5.342   8.891  13.585 -0.2312  0.8193 -0.6459
   45DOPE   H9R 5731   5.237   8.922  13.595  0.3459  2.5743  0.3908
   45DOPE  C210 5732   5.424   8.901  13.694 -0.2159  1.2003  0.6559
   45DOPE  H10R 5733   5.375   8.944  13.783 -1.3153  0.4392  0.4454
   45DOPE  C211 5734   5.576   8.879  13.692 -0.3846  0.1925 -0.2189
   45DOPE  H11R 5735   5.620   8.973  13.655 -1.7941  0.6214 -0.8560
   45DOPE  H11S 5736   5.605   8.787  13.636 -1.1325 -0.6743  0.7548
   45DOPE  C212 5737   5.632   8.867  13.835  0.0094  0.1708  0.3397
   45DOPE  H12R 5738   5.593   8.946  13.903 -2.2715  0.3750 -1.0845
   45DOPE  H12S 5739   5.741   8.887  13.827  0.3901 -1.3145  1.3361
   45DOPE  C213 5740   5.629   8.724  13.905  0.6105 -0.4085  0.4121
   45DOPE  H13R 5741   5.682   8.656  13.835 -1.4474 -1.1679 -0.4926
   45DOPE  H13S 5742   5.523   8.691  13.907  0.6867 -0.6219  1.0114
   45DOPE  C214 5743   5.683   8.713  14.057  0.0069  0.3866  0.6096
   45DOPE  H14R 5744   5.793   8.724  14.057  0.0573 -0.0707  0.6177
   45DOPE  H14S 5745   5.659   8.611  14.095  0.1905  0.0800 -0.0838
   45DOPE  C215 5746   5.602   8.802  14.156 -0.3208  0.1077  0.1569
   45DOPE  H15R 5747   5.493   8.781  14.148 -0.5955  1.5467 -0.1306
   45DOPE  H15S 5748   5.619   8.910  14.135 -0.8924  0.0604 -0.5994
   45DOPE  C216 5749   5.637   8.770  14.301  0.4409  0.9574 -0.3268
   45DOPE  H16R 5750   5.599   8.667  14.322 -0.2242  1.4979  1.2135
   45DOPE  H16S 5751   5.572   8.837  14.360  0.7534  0.4682  0.5981
   45DOPE  C217 5752   5.783   8.779  14.352 -0.4806 -0.6710  0.9805
   45DOPE  H17R 5753   5.839   8.687  14.325 -1.6821 -1.5128  1.2684
   45DOPE  H17S 5754   5.780   8.789  14.463 -0.0863  0.7051  0.8753
   45DOPE  C218 5755   5.857   8.904  14.316 -0.0134 -0.3179  0.1203
   45DOPE  H18R 5756   5.877   8.906  14.207 -0.7546 -0.5205 -0.0271
   45DOPE  H18S 5757   5.948   8.917  14.377  0.0184  1.0304 -0.1889
   45DOPE  H18T 5758   5.790   8.989  14.339 -0.8140  0.2590 -3.6237
   45DOPE   C33 5759   4.983   8.420  13.159  0.5281 -1.0072 -0.2181
   45DOPE   H3X 5760   4.878   8.404  13.126 -0.3168  2.1489  0.5570
   45DOPE   H3Y 5761   4.976   8.448  13.267 -1.1340  0.9892 -0.7577
   45DOPE   C34 5762   5.046   8.280  13.136  0.5723 -0.1458  0.6291
   45DOPE   H4X 5763   5.078   8.267  13.031 -0.7786 -0.2066  0.2078
   45DOPE   H4Y 5764   5.148   8.284  13.181  0.7048  0.3684  0.2928
   45DOPE   C35 5765   4.971   8.158  13.185  0.2562 -0.2209 -0.4562
   45DOPE   H5X 5766   5.048   8.078  13.194 -0.4018 -0.6293  4.0409
   45DOPE   H5Y 5767   4.890   8.140  13.111  2.4066  1.9315 -3.5956
   45DOPE   C36 5768   4.907   8.172  13.322 -0.3355 -0.8845 -0.5156
   45DOPE   H6X 5769   4.851   8.077  13.334  0.2763 -0.9527  2.6648
   45DOPE   H6Y 5770   4.835   8.256  13.329  2.4289  1.5264  1.3168
   45DOPE   C37 5771   5.011   8.170  13.432  0.1807 -0.0178 -0.5130
   45DOPE   H7X 5772   5.079   8.084  13.413 -2.1985 -1.5354 -2.9060
   45DOPE   H7Y 5773   5.073   8.262  13.426  0.3273 -0.1072 -0.3833
   45DOPE   C38 5774   4.950   8.174  13.571  0.1040 -0.4725 -0.8147
   45DOPE   H8X 5775   4.866   8.101  13.579  0.9832 -1.3225  1.2622
   45DOPE   H8Y 5776   4.908   8.276  13.585 -1.2633 -0.8987 -1.5601
   45DOPE   C39 5777   5.045   8.137  13.683  0.6388 -0.3251  0.2726
   45DOPE   H9X 5778   5.089   8.219  13.741 -0.7423  1.9781 -1.7288
   45DOPE  C310 5779   5.073   8.012  13.722 -0.4351  0.2772 -0.2044
   45DOPE  H10X 5780   5.137   8.002  13.811 -2.4283  0.2604  1.3188
   45DOPE  C311 5781   5.014   7.887  13.668  0.5347  0.1157  0.2213
   45DOPE  H11X 5782   4.938   7.902  13.588  1.0789  1.5620 -0.0394
   45DOPE  H11Y 5783   5.085   7.822  13.614  0.2296 -1.0289  1.1471
   45DOPE  C312 5784   4.939   7.798  13.769  0.2898 -0.6821 -0.2581
   45DOPE  H12X 5785   4.897   7.711  13.713  0.6770 -0.7692 -0.4151
   45DOPE  H12Y 5786   4.846   7.841  13.812 -0.1712 -1.0306 -0.8756
   45DOPE  C313 5787   5.031   7.747  13.876 -0.4854  0.1921 -0.1157
   45DOPE  H13X 5788   5.109   7.690  13.821 -0.7696  0.0870 -0.4165
   45DOPE  H13Y 5789   5.081   7.832  13.927 -0.5054 -1.4448  2.8631
   45DOPE  C314 5790   4.980   7.647  13.982  1.1661  1.2268 -0.4145
   45DOPE  H14X 5791   5.066   7.617  14.047 -1.0627 -3.0225  0.9522
   45DOPE  H14Y 5792   4.947   7.548  13.945  1.9249  0.2901  1.3120
   45DOPE  C315 5793   4.865   7.705  14.067 -0.4033  0.3747  0.0877
   45DOPE  H15X 5794   4.763   7.681  14.032  0.1683 -1.1997 -0.5863
   45DOPE  H15Y 5795   4.882   7.814  14.079 -0.2401  0.2262  1.3617
   45DOPE  C316 5796   4.852   7.648  14.208 -0.4736  0.1668  0.2025
   45DOPE  H16X 5797   4.768   7.700  14.258 -0.1480  2.2808 -1.3513
   45DOPE  H16Y 5798   4.942   7.679  14.265 -0.8525  0.2338  0.7721
   45DOPE  C317 5799   4.833   7.492  14.201 -0.1367  0.8368 -0.4452
   45DOPE  H17X 5800   4.754   7.445  14.139 -0.6101  0.1041  0.6926
   45DOPE  H17Y 5801   4.920   7.443  14.152 -1.1980 -2.3912  0.6634
   45DOPE  C318 5802   4.816   7.444  14.346  0.3139  0.3951 -0.1389
   45DOPE  H18X 5803   4.825   7.333  14.346  1.1578  0.4338 -1.3273
   45DOPE  H18Y 5804   4.900   7.482  14.408 -0.0533 -1.1297  1.3708
   45DOPE  H18Z 5805   4.727   7.465  14.408  0.5043  0.5443  0.0876
   46DOPE     N 5806   5.289   7.022  12.419 -0.2150 -0.0229 -0.3905
   46DOPE   HN1 5807   5.221   6.951  12.387 -0.7956 -0.6522  2.0231
   46DOPE   HN2 5808   5.311   7.097  12.350 -1.7750 -1.2852 -2.3271
   46DOPE   HN3 5809   5.376   6.967  12.437  0.1921  1.3441  2.5541
   46DOPE   C12 5810   5.249   7.095  12.548 -0.1499  0.8483  0.3000
   46DOPE  H12A 5811   5.219   7.016  12.619  2.1071  0.3174  0.7486
   46DOPE  H12B 5812   5.163   7.157  12.513  0.7797  0.4086 -3.1378
   46DOPE   C11 5813   5.361   7.166  12.620  0.2064  0.1913  0.3088
   46DOPE  H11A 5814   5.429   7.096  12.672 -0.2937  0.0078  0.7313
   46DOPE  H11B 5815   5.313   7.223  12.703 -0.6141 -1.5765  1.1134
   46DOPE     P 5816   5.406   7.402  12.521 -0.2728  0.2217 -0.5759
   46DOPE   O13 5817   5.264   7.424  12.507 -0.2156  0.2485 -0.2401
   46DOPE   O14 5818   5.488   7.456  12.410  0.0135  0.1711 -0.4963
   46DOPE   O11 5819   5.459   7.466  12.649 -0.4855 -0.1033 -0.5654
   46DOPE   O12 5820   5.438   7.251  12.535 -0.0696 -0.0477  0.0581
   46DOPE    C1 5821   5.475   7.611  12.668  0.0723 -0.5563  0.2409
   46DOPE    HA 5822   5.424   7.668  12.588 -0.9643 -0.1401  1.1715
   46DOPE    HB 5823   5.586   7.624  12.672  0.2094 -1.3773 -0.7197
   46DOPE    C2 5824   5.405   7.661  12.798  0.1701 -0.1056  0.2910
   46DOPE    HS 5825   5.421   7.770  12.816  1.1002 -0.4084  1.4957
   46DOPE   O21 5826   5.451   7.583  12.909  0.4452 -0.1684 -0.1105
   46DOPE   C21 5827   5.582   7.619  12.951 -0.6006 -0.2247  0.2735
   46DOPE   O22 5828   5.652   7.711  12.904 -0.1460 -0.6446 -1.1281
   46DOPE   C22 5829   5.626   7.521  13.059 -0.6992 -0.9492  0.2182
   46DOPE   H2R 5830   5.631   7.417  13.019 -0.9832 -1.4301  1.4057
   46DOPE   H2S 5831   5.553   7.539  13.141 -0.7682  2.6308 -0.4811
   46DOPE    C3 5832   5.249   7.646  12.782 -0.6543  0.1800 -0.0742
   46DOPE    HX 5833   5.223   7.538  12.792 -0.5279  0.1777  0.2468
   46DOPE    HY 5834   5.209   7.689  12.688 -1.6785  0.9807  0.7092
   46DOPE   O31 5835   5.177   7.714  12.892  0.1683 -0.1189  0.0912
   46DOPE   C31 5836   5.052   7.720  12.867  0.6611 -0.6648 -0.4370
   46DOPE   O32 5837   5.001   7.677  12.764  0.3176 -0.2130 -0.4556
   46DOPE   C32 5838   4.980   7.819  12.961  0.0143  0.3114 -0.7499
   46DOPE   H2X 5839   4.985   7.771  13.061 -0.7040  0.1497 -0.7896
   46DOPE   H2Y 5840   5.043   7.910  12.969 -0.4670  0.6517 -0.7833
   46DOPE   C23 5841   5.767   7.549  13.113  0.3366  0.3253  0.2288
   46DOPE   H3R 5842   5.790   7.657  13.123  0.5653  0.4077 -1.1097
   46DOPE   H3S 5843   5.845   7.513  13.043 -0.8242 -1.4909 -0.2156
   46DOPE   C24 5844   5.792   7.485  13.249  0.6880 -0.0099 -0.6536
   46DOPE   H4R 5845   5.703   7.506  13.312  0.2686  1.6474 -1.7348
   46DOPE   H4S 5846   5.880   7.535  13.295  0.1105  1.0301 -0.6528
   46DOPE   C25 5847   5.820   7.334  13.244 -0.0294 -0.0094 -0.0220
   46DOPE   H5R 5848   5.919   7.323  13.196  0.3002 -0.5487  0.7654
   46DOPE   H5S 5849   5.749   7.287  13.172 -0.0963 -0.0975  0.1001
   46DOPE   C26 5850   5.840   7.275  13.392  0.0205 -0.4071  0.5452
   46DOPE   H6R 5851   5.926   7.327  13.440 -0.6693 -0.0552  1.4174
   46DOPE   H6S 5852   5.865   7.167  13.378  0.6850 -0.1081 -0.8172
   46DOPE   C27 5853   5.729   7.296  13.496  0.3272 -0.3228  0.2035
   46DOPE   H7R 5854   5.627   7.280  13.454 -0.5022  0.9135  1.6404
   46DOPE   H7S 5855   5.731   7.407  13.504 -1.4486 -0.2395  0.0166
   46DOPE   C28 5856   5.743   7.221  13.629  0.5469  0.1127 -0.1025
   46DOPE   H8R 5857   5.845   7.247  13.663  0.2764  2.5840 -1.0221
   46DOPE   H8S 5858   5.741   7.112  13.608  2.4511  0.3931 -2.0422
   46DOPE   C29 5859   5.634   7.249  13.735 -0.3825  0.3972 -0.0999
   46DOPE   H9R 5860   5.530   7.237  13.699 -0.3927 -0.4120  0.1819
   46DOPE  C210 5861   5.655   7.277  13.867  0.3612 -0.5458 -0.1067
   46DOPE  H10R 5862   5.566   7.278  13.931  0.4483  0.8052  0.0028
   46DOPE  C211 5863   5.788   7.296  13.936 -0.6820  0.6124 -0.1820
   46DOPE  H11R 5864   5.829   7.400  13.938  0.6522  0.0951  0.8275
   46DOPE  H11S 5865   5.862   7.232  13.885  0.1682  2.3531 -1.2470
   46DOPE  C212 5866   5.786   7.242  14.087  0.1453  0.1401 -0.2942
   46DOPE  H12R 5867   5.761   7.134  14.078 -0.6416  0.2463  0.4938
   46DOPE  H12S 5868   5.696   7.292  14.131 -0.0973  0.9439 -1.6375
   46DOPE  C213 5869   5.912   7.261  14.175  0.9738  0.0477  1.0773
   46DOPE  H13R 5870   5.986   7.195  14.125  0.0371  1.0043 -1.7368
   46DOPE  H13S 5871   5.894   7.211  14.273 -0.1600 -2.3309 -0.2451
   46DOPE  C214 5872   5.957   7.407  14.201 -0.1512 -0.4683 -0.1743
   46DOPE  H14R 5873   5.898   7.440  14.289  1.3316 -2.0356  1.4897
   46DOPE  H14S 5874   5.930   7.468  14.112  1.3433 -1.0501 -1.0558
   46DOPE  C215 5875   6.106   7.426  14.220 -0.3959  0.5351  0.2057
   46DOPE  H15R 5876   6.129   7.356  14.304  1.8843 -0.2975 -1.0217
   46DOPE  H15S 5877   6.133   7.529  14.250  0.4438  0.1792  0.7356
   46DOPE  C216 5878   6.201   7.387  14.099 -0.3624  0.3915 -0.0162
   46DOPE  H16R 5879   6.176   7.459  14.018  0.2017 -0.8362 -1.3247
   46DOPE  H16S 5880   6.162   7.288  14.068 -0.2049  0.2662  0.1877
   46DOPE  C217 5881   6.345   7.384  14.133 -0.2339 -0.5096 -0.2206
   46DOPE  H17R 5882   6.369   7.320  14.221 -2.4377 -0.0687  0.7651
   46DOPE  H17S 5883   6.368   7.488  14.166  1.5426 -1.0667  0.4416
   46DOPE  C218 5884   6.432   7.351  14.019 -0.2080  0.8888 -0.0985
   46DOPE  H18R 5885   6.406   7.251  13.977 -1.0631  1.5508 -1.1949
   46DOPE  H18S 5886   6.540   7.346  14.042 -0.6808 -1.5579  2.1418
   46DOPE  H18T 5887   6.423   7.427  13.938 -0.4414  2.5325  1.4166
   46DOPE   C33 5888   4.828   7.844  12.928 -0.4719  0.1274  0.1726
   46DOPE   H3X 5889   4.801   7.736  12.924  0.0202  0.0385 -0.9184
   46DOPE   H3Y 5890   4.822   7.884  12.825 -3.6881 -0.1504  0.1686
   46DOPE   C34 5891   4.739   7.925  13.026  0.9785 -0.5287 -0.5051
   46DOPE   H4X 5892   4.756   8.035  13.020  2.9429 -0.6048  2.0951
   46DOPE   H4Y 5893   4.633   7.905  13.000  0.2941  1.8639  0.1344
   46DOPE   C35 5894   4.756   7.869  13.169 -0.0537  0.8964  0.4678
   46DOPE   H5X 5895   4.859   7.889  13.203  0.2895  0.1676 -0.1160
   46DOPE   H5Y 5896   4.739   7.760  13.151 -1.9000  1.3385 -0.8571
   46DOPE   C36 5897   4.649   7.920  13.267  0.0565 -0.0508  0.8677
   46DOPE   H6X 5898   4.545   7.909  13.229  0.0271 -1.4326  1.2869
   46DOPE   H6Y 5899   4.661   8.029  13.283 -2.4343  0.2584  0.9280
   46DOPE   C37 5900   4.669   7.855  13.405 -1.1431  0.4000 -0.6294
   46DOPE   H7X 5901   4.627   7.753  13.420  0.0934  0.2501  2.6635
   46DOPE   H7Y 5902   4.779   7.848  13.416 -1.3821  0.1544  2.1455
   46DOPE   C38 5903   4.611   7.944  13.525 -0.6353  0.3375  0.0986
   46DOPE   H8X 5904   4.621   8.053  13.509 -1.3648  0.1599 -1.9217
   46DOPE   H8Y 5905   4.675   7.921  13.613  1.9481  0.1596 -1.7037
   46DOPE   C39 5906   4.461   7.909  13.546  0.7734  0.1547  0.2026
   46DOPE   H9X 5907   4.401   7.906  13.454 -2.0448 -1.6093  1.9560
   46DOPE  C310 5908   4.392   7.872  13.655  0.2527  0.2583  0.4945
   46DOPE  H10X 5909   4.283   7.855  13.657  0.6389 -2.5740  0.6998
   46DOPE  C311 5910   4.445   7.861  13.792  0.3403 -0.1930 -0.8537
   46DOPE  H11X 5911   4.471   7.964  13.824 -0.2209  0.7168 -3.1218
   46DOPE  H11Y 5912   4.357   7.846  13.858 -0.3967  1.4443 -1.4233
   46DOPE  C312 5913   4.551   7.754  13.834 -0.4315 -0.2587 -0.4768
   46DOPE  H12X 5914   4.554   7.756  13.945  1.5445  1.6738 -0.4828
   46DOPE  H12Y 5915   4.652   7.790  13.802 -0.9738  1.2535 -0.5665
   46DOPE  C313 5916   4.536   7.614  13.773 -0.1709 -0.2223  0.7768
   46DOPE  H13X 5917   4.440   7.572  13.810 -0.5144  0.3675  0.5614
   46DOPE  H13Y 5918   4.522   7.617  13.663  0.9806  3.8753  0.5744
   46DOPE  C314 5919   4.656   7.517  13.803 -0.1158 -0.9609 -0.2848
   46DOPE  H14X 5920   4.662   7.494  13.911  0.6342 -0.0067 -0.1067
   46DOPE  H14Y 5921   4.746   7.566  13.758  0.1339 -1.5293 -0.4075
   46DOPE  C315 5922   4.646   7.385  13.747 -0.1341  0.2872 -0.9805
   46DOPE  H15X 5923   4.558   7.338  13.796 -3.3411  3.8757 -2.8331
   46DOPE  H15Y 5924   4.737   7.332  13.784 -0.1359 -0.7175 -2.3385
   46DOPE  C316 5925   4.632   7.371  13.596 -0.2165 -0.6156 -0.0289
   46DOPE  H16X 5926   4.532   7.403  13.559  0.4332  0.8379 -0.5794
   46DOPE  H16Y 5927   4.623   7.263  13.571  0.3033 -0.1938 -2.2491
   46DOPE  C317 5928   4.739   7.457  13.517  0.1094  0.6406 -0.5328
   46DOPE  H17X 5929   4.736   7.567  13.532  1.7575  0.4656  1.4773
   46DOPE  H17Y 5930   4.841   7.420  13.540  0.1229  0.5892 -0.6739
   46DOPE  C318 5931   4.723   7.440  13.367 -0.3017  0.1648 -0.7668
   46DOPE  H18X 5932   4.632   7.498  13.343 -0.5875  0.3574  0.7014
   46DOPE  H18Y 5933   4.800   7.494  13.307 -1.6941  1.6266 -1.2927
   46DOPE  H18Z 5934   4.710   7.336  13.331  1.3160  0.1906 -1.5231
   47DOPE     N 5935   2.161   7.758  12.514 -0.4661  0.3348  0.2119
   47DOPE   HN1 5936   2.190   7.686  12.584 -2.5756  0.4211  1.2623
   47DOPE   HN2 5937   2.171   7.848  12.565  0.1214  0.4908 -0.1810
   47DOPE   HN3 5938   2.059   7.744  12.499 -0.3252 -2.2275  1.1135
   47DOPE   C12 5939   2.238   7.760  12.386 -0.3307  0.3808  0.6672
   47DOPE  H12A 5940   2.346   7.771  12.411 -0.0587  0.5299 -0.4927
   47DOPE  H12B 5941   2.209   7.843  12.318  1.5237  0.4051 -0.1700
   47DOPE   C11 5942   2.211   7.627  12.313  0.4714 -0.5382 -0.2178
   47DOPE  H11A 5943   2.242   7.638  12.207 -1.9943  2.1201 -0.7953
   47DOPE  H11B 5944   2.103   7.604  12.306  0.0778  0.6546  1.3285
   47DOPE     P 5945   2.423   7.483  12.375 -0.1429  0.0218  0.1473
   47DOPE   O13 5946   2.495   7.560  12.277  0.0045 -0.5986 -0.0523
   47DOPE   O14 5947   2.441   7.336  12.367  0.0820  0.0403  0.3509
   47DOPE   O11 5948   2.465   7.531  12.519  0.5980 -1.3432 -0.1836
   47DOPE   O12 5949   2.267   7.513  12.376 -0.5584 -0.0590  0.0990
   47DOPE    C1 5950   2.566   7.458  12.585 -0.4378  0.6489 -0.4560
   47DOPE    HA 5951   2.644   7.526  12.625  0.6373 -2.2587  3.0234
   47DOPE    HB 5952   2.625   7.391  12.518  0.4730  0.3041  0.6447
   47DOPE    C2 5953   2.518   7.365  12.707 -0.4587 -0.1624  0.2691
   47DOPE    HS 5954   2.422   7.323  12.669 -0.2926 -1.2759  1.0491
   47DOPE   O21 5955   2.499   7.448  12.819 -0.1387  0.0659  0.1622
   47DOPE   C21 5956   2.387   7.440  12.889  0.0982  0.1742  0.2981
   47DOPE   O22 5957   2.288   7.370  12.870  0.1016  0.2214  0.2348
   47DOPE   C22 5958   2.393   7.528  13.007 -0.0500 -0.3612  0.0048
   47DOPE   H2R 5959   2.292   7.568  13.032  0.1627  0.2683 -0.1325
   47DOPE   H2S 5960   2.472   7.605  12.992  0.2866 -0.8971 -1.0363
   47DOPE    C3 5961   2.611   7.252  12.736 -0.0598 -1.2457 -0.5518
   47DOPE    HX 5962   2.709   7.304  12.743 -0.6717 -0.2860  2.0034
   47DOPE    HY 5963   2.621   7.174  12.658 -0.4797 -2.5826  0.6991
   47DOPE   O31 5964   2.581   7.193  12.859  0.4647 -0.1532 -0.6230
   47DOPE   C31 5965   2.474   7.114  12.846 -0.7519 -0.1061  0.2459
   47DOPE   O32 5966   2.420   7.095  12.736  0.2069 -0.1572 -0.3316
   47DOPE   C32 5967   2.423   7.075  12.988  0.7563 -0.2304 -0.1324
   47DOPE   H2X 5968   2.514   7.054  13.049  1.5952 -1.0641 -1.5952
   47DOPE   H2Y 5969   2.380   7.168  13.031  1.0139 -0.6550  1.0832
   47DOPE   C23 5970   2.439   7.457  13.137  0.1115 -0.2376 -0.7250
   47DOPE   H3R 5971   2.469   7.538  13.207 -2.8922 -0.9637  1.6339
   47DOPE   H3S 5972   2.525   7.390  13.119 -1.2403 -2.3148  0.1546
   47DOPE   C24 5973   2.331   7.373  13.203 -0.2137 -0.4438 -0.2586
   47DOPE   H4R 5974   2.268   7.313  13.135 -0.9450 -1.3798  1.1912
   47DOPE   H4S 5975   2.263   7.448  13.249  1.0422  0.0630  0.8487
   47DOPE   C25 5976   2.384   7.278  13.302 -0.2395 -0.0697 -0.1923
   47DOPE   H5R 5977   2.475   7.232  13.259  0.6985  2.2244 -0.7946
   47DOPE   H5S 5978   2.317   7.189  13.310  0.7578 -0.8481 -0.3485
   47DOPE   C26 5979   2.404   7.333  13.445  0.0077  0.3720  0.5591
   47DOPE   H6R 5980   2.312   7.388  13.471 -0.8281 -0.0381 -1.3528
   47DOPE   H6S 5981   2.493   7.400  13.442 -0.3019  0.7672  0.1016
   47DOPE   C27 5982   2.435   7.219  13.545  0.7534 -0.4860  0.1498
   47DOPE   H7R 5983   2.517   7.154  13.508 -0.8121 -1.2715 -2.1913
   47DOPE   H7S 5984   2.355   7.146  13.569 -0.1798  0.9657  1.7540
   47DOPE   C28 5985   2.476   7.277  13.689  0.4572 -0.1569  0.5910
   47DOPE   H8R 5986   2.387   7.332  13.727 -1.2741 -3.1806  1.2560
   47DOPE   H8S 5987   2.568   7.336  13.671  1.1060 -1.4928 -0.6871
   47DOPE   C29 5988   2.521   7.172  13.786  0.4311  0.2702  0.5006
   47DOPE   H9R 5989   2.629   7.155  13.783  0.2888 -0.9528  1.4212
   47DOPE  C210 5990   2.445   7.111  13.877  0.0151  0.6881 -0.5859
   47DOPE  H10R 5991   2.492   7.042  13.950  0.0733 -0.2464 -1.4843
   47DOPE  C211 5992   2.298   7.121  13.885  0.3057  0.3619  0.7534
   47DOPE  H11R 5993   2.261   7.017  13.875  0.7016  0.3168 -0.3473
   47DOPE  H11S 5994   2.259   7.167  13.792 -0.5743 -1.2496  0.2741
   47DOPE  C212 5995   2.247   7.179  14.016 -0.0292  0.2370 -0.5653
   47DOPE  H12R 5996   2.136   7.186  14.023  0.0941  1.5025  0.4638
   47DOPE  H12S 5997   2.299   7.276  14.025  1.4815 -0.4667 -1.3841
   47DOPE  C213 5998   2.279   7.097  14.139 -0.5598 -0.1468 -0.8692
   47DOPE  H13R 5999   2.387   7.079  14.162 -0.1126  0.2054 -2.5721
   47DOPE  H13S 6000   2.233   6.997  14.123 -0.2408 -0.1806 -1.5945
   47DOPE  C214 6001   2.210   7.152  14.260 -0.3082  0.5618  0.0690
   47DOPE  H14R 6002   2.106   7.180  14.238 -0.1475  1.1779  0.0846
   47DOPE  H14S 6003   2.251   7.248  14.299 -1.3230  0.3351  1.7784
   47DOPE  C215 6004   2.224   7.060  14.380 -0.9732 -0.0004  0.4566
   47DOPE  H15R 6005   2.332   7.057  14.405 -0.7534 -1.7224 -0.5738
   47DOPE  H15S 6006   2.205   6.957  14.344 -2.5428  0.0904  0.9551
   47DOPE  C216 6007   2.135   7.105  14.502 -0.0936 -0.3502  0.3390
   47DOPE  H16R 6008   2.182   7.197  14.544  2.5882 -0.9902 -1.0120
   47DOPE  H16S 6009   2.136   7.034  14.587 -2.5432  0.4743  1.1367
   47DOPE  C217 6010   1.987   7.123  14.474  0.8197  0.0221 -0.0557
   47DOPE  H17R 6011   1.947   7.023  14.445 -0.7243  0.3784  0.7346
   47DOPE  H17S 6012   1.982   7.189  14.385 -1.1597 -0.3572 -0.2715
   47DOPE  C218 6013   1.912   7.205  14.581  0.3276  0.0447 -0.8172
   47DOPE  H18R 6014   1.941   7.312  14.584 -2.3378  0.8259  0.3003
   47DOPE  H18S 6015   1.922   7.158  14.682  0.2988 -1.2924 -1.4143
   47DOPE  H18T 6016   1.802   7.195  14.567 -0.0085  0.1052  1.3557
   47DOPE   C33 6017   2.336   6.955  13.004  0.1218  0.0251  0.1453
   47DOPE   H3X 6018   2.286   6.948  12.906  0.7740  2.2243 -0.4244
   47DOPE   H3Y 6019   2.257   6.979  13.079  0.9776  2.6549  0.3120
   47DOPE   C34 6020   2.403   6.829  13.055 -0.3594  0.4050 -0.9280
   47DOPE   H4X 6021   2.334   6.743  13.042  1.0183 -0.5575 -2.2461
   47DOPE   H4Y 6022   2.494   6.814  12.994 -0.4704 -2.3418 -0.5499
   47DOPE   C35 6023   2.432   6.835  13.208  0.1900 -0.3021  0.1613
   47DOPE   H5X 6024   2.336   6.833  13.263 -1.0829 -0.4567 -1.9270
   47DOPE   H5Y 6025   2.475   6.936  13.226  0.1184 -0.1098 -0.6826
   47DOPE   C36 6026   2.541   6.724  13.252  0.4936  0.6543 -0.4792
   47DOPE   H6X 6027   2.644   6.765  13.260  0.5233  1.1096 -2.6521
   47DOPE   H6Y 6028   2.552   6.660  13.162  0.6476 -0.9358  0.6230
   47DOPE   C37 6029   2.496   6.639  13.370  0.8891 -0.1520 -0.0777
   47DOPE   H7X 6030   2.517   6.696  13.463 -0.2893 -1.1819  0.8650
   47DOPE   H7Y 6031   2.385   6.631  13.370  0.6881  2.0412  0.5529
   47DOPE   C38 6032   2.551   6.495  13.366 -0.0864 -0.8037  0.0212
   47DOPE   H8X 6033   2.657   6.500  13.399 -0.2269 -0.3407  0.4116
   47DOPE   H8Y 6034   2.538   6.472  13.258 -4.8353 -1.2297  0.5076
   47DOPE   C39 6035   2.479   6.398  13.454  0.3402  0.4924  0.3779
   47DOPE   H9X 6036   2.380   6.368  13.416  1.0108 -3.0357  1.0558
   47DOPE  C310 6037   2.509   6.359  13.578 -1.0746 -0.3194  0.5483
   47DOPE  H10X 6038   2.463   6.275  13.633  1.1896 -0.5891  2.1947
   47DOPE  C311 6039   2.630   6.402  13.652 -0.0598 -0.2844 -0.3408
   47DOPE  H11X 6040   2.716   6.392  13.583  0.1260 -1.1846  0.0102
   47DOPE  H11Y 6041   2.614   6.510  13.668  0.5631 -0.4589  1.7073
   47DOPE  C312 6042   2.648   6.337  13.790 -0.0164  0.3211  0.6109
   47DOPE  H12X 6043   2.744   6.364  13.838  0.9425 -1.7986 -0.0016
   47DOPE  H12Y 6044   2.649   6.230  13.760  1.4604  0.4623  0.0802
   47DOPE  C313 6045   2.532   6.361  13.890 -0.1056  0.4943  0.0954
   47DOPE  H13X 6046   2.436   6.316  13.858  1.3504 -3.3015  0.5419
   47DOPE  H13Y 6047   2.567   6.304  13.979  2.4593  2.0089  0.1775
   47DOPE  C314 6048   2.519   6.502  13.938 -0.0154  0.2717  0.0756
   47DOPE  H14X 6049   2.505   6.569  13.851 -1.9785  0.8487  0.7974
   47DOPE  H14Y 6050   2.616   6.523  13.988 -0.6863  0.9142  1.1457
   47DOPE  C315 6051   2.414   6.529  14.049  0.2472  0.0839 -0.0554
   47DOPE  H15X 6052   2.437   6.459  14.131  4.6552  0.1318 -0.9977
   47DOPE  H15Y 6053   2.317   6.519  13.996  0.8195  0.0857 -1.1404
   47DOPE  C316 6054   2.426   6.670  14.117  0.5621  0.3087 -0.8571
   47DOPE  H16X 6055   2.401   6.753  14.047  0.6671 -0.6933 -2.1189
   47DOPE  H16Y 6056   2.530   6.684  14.153 -0.2700 -0.3594  2.1001
   47DOPE  C317 6057   2.342   6.685  14.255 -0.2525  0.2538 -0.5641
   47DOPE  H17X 6058   2.389   6.633  14.341 -0.4418  1.4001  0.2519
   47DOPE  H17Y 6059   2.343   6.793  14.282  2.4533  1.2334 -3.9086
   47DOPE  C318 6060   2.192   6.644  14.239 -1.1202 -0.0524  0.7303
   47DOPE  H18X 6061   2.146   6.701  14.155 -0.6093 -0.9221 -0.1595
   47DOPE  H18Y 6062   2.197   6.534  14.224  2.7994  0.0114  0.5002
   47DOPE  H18Z 6063   2.137   6.681  14.328 -2.9341 -3.0569  1.0172
   48DOPE     N 6064   0.152   3.278  12.490  0.6415  0.3513  0.1061
   48DOPE   HN1 6065   0.054   3.314  12.490 -0.8681 -3.2902  0.6548
   48DOPE   HN2 6066   0.192   3.302  12.583  1.1125  1.2932 -0.3239
   48DOPE   HN3 6067   0.208   3.314  12.411  1.6473  0.3281  0.7912
   48DOPE   C12 6068   0.144   3.129  12.468 -0.4469  0.1529 -0.4720
   48DOPE  H12A 6069   0.082   3.076  12.544 -0.2987  0.4952 -0.1133
   48DOPE  H12B 6070   0.245   3.086  12.481 -1.6206 -2.5120  0.5580
   48DOPE   C11 6071   0.093   3.096  12.328 -0.3163  0.4433  0.2247
   48DOPE  H11A 6072   0.087   2.986  12.339  2.1259  0.2556  0.3178
   48DOPE  H11B 6073   0.170   3.120  12.252  0.4956  2.3554  1.5567
   48DOPE     P 6074  -0.155   3.088  12.247  0.2657  0.0390 -0.3688
   48DOPE   O13 6075  -0.113   2.961  12.188 -0.5100  0.3932 -0.0096
   48DOPE   O14 6076  -0.241   3.165  12.154 -0.4365 -0.1315 -0.6155
   48DOPE   O11 6077  -0.230   3.050  12.386  0.5174  0.3655 -0.4649
   48DOPE   O12 6078  -0.030   3.163  12.292  0.4059 -0.2171  0.3531
   48DOPE    C1 6079  -0.372   3.057  12.397  0.3496  0.1347  0.0519
   48DOPE    HA 6080  -0.400   2.998  12.487  1.4038  0.1655  0.4106
   48DOPE    HB 6081  -0.414   3.009  12.306 -1.1043 -1.0396  1.2820
   48DOPE    C2 6082  -0.430   3.194  12.414 -0.0155  0.0269 -0.3168
   48DOPE    HS 6083  -0.381   3.263  12.341  0.6906  0.6337  0.7071
   48DOPE   O21 6084  -0.398   3.243  12.549 -0.1042  0.3617  0.4509
   48DOPE   C21 6085  -0.427   3.369  12.588  0.4238 -0.0715  0.3773
   48DOPE   O22 6086  -0.473   3.460  12.517  0.8890 -0.2426 -0.5726
   48DOPE   C22 6087  -0.394   3.385  12.735  0.3691  0.3907  0.4865
   48DOPE   H2R 6088  -0.298   3.441  12.737  1.0342 -0.3871 -2.9220
   48DOPE   H2S 6089  -0.356   3.290  12.778  3.0961  1.7416  1.2990
   48DOPE    C3 6090  -0.585   3.197  12.385 -0.1166  0.6453 -0.4075
   48DOPE    HX 6091  -0.584   3.155  12.282  0.9379 -6.3111  1.9357
   48DOPE    HY 6092  -0.619   3.303  12.384  0.5020  0.8807  1.0546
   48DOPE   O31 6093  -0.656   3.097  12.469 -0.1999  0.1336 -0.1865
   48DOPE   C31 6094  -0.726   3.157  12.569  0.0653  0.0512 -0.3671
   48DOPE   O32 6095  -0.739   3.277  12.582 -0.2190 -0.3302  0.3739
   48DOPE   C32 6096  -0.791   3.051  12.659  0.0687 -0.1418  0.3696
   48DOPE   H2X 6097  -0.855   2.981  12.601 -0.8419  1.4227 -0.5633
   48DOPE   H2Y 6098  -0.706   3.004  12.713  0.6523  1.2934  0.7430
   48DOPE   C23 6099  -0.500   3.463  12.816  0.3240 -0.8372 -0.0483
   48DOPE   H3R 6100  -0.595   3.407  12.805  0.6824 -1.2102 -1.4547
   48DOPE   H3S 6101  -0.526   3.564  12.779 -0.2213 -0.4603  1.3269
   48DOPE   C24 6102  -0.460   3.474  12.963  0.3663 -0.9067  0.0882
   48DOPE   H4R 6103  -0.366   3.532  12.972  0.1672 -0.3354 -1.2953
   48DOPE   H4S 6104  -0.434   3.379  13.014  1.8262  0.6632  2.5038
   48DOPE   C25 6105  -0.571   3.546  13.042  0.4140  0.3450 -0.5972
   48DOPE   H5R 6106  -0.661   3.480  13.037  1.3940 -1.0314 -0.7896
   48DOPE   H5S 6107  -0.595   3.647  13.004 -0.6567  0.1162 -0.5701
   48DOPE   C26 6108  -0.548   3.550  13.196 -0.7666 -0.6938 -0.5406
   48DOPE   H6R 6109  -0.451   3.597  13.221 -1.5288  0.3419  0.6049
   48DOPE   H6S 6110  -0.552   3.444  13.231 -2.2488 -0.6113 -0.3746
   48DOPE   C27 6111  -0.642   3.639  13.277 -0.5224  0.0978  0.0308
   48DOPE   H7R 6112  -0.745   3.624  13.238 -0.7602  2.8821 -0.5971
   48DOPE   H7S 6113  -0.618   3.744  13.250 -1.4523  0.1365 -0.6849
   48DOPE   C28 6114  -0.640   3.626  13.434  0.0617  0.4889 -0.7893
   48DOPE   H8R 6115  -0.552   3.685  13.465  0.1970  0.6051 -1.3765
   48DOPE   H8S 6116  -0.622   3.517  13.451 -2.7875 -0.0323 -0.5134
   48DOPE   C29 6117  -0.773   3.666  13.503  0.5423 -0.2899  0.5120
   48DOPE   H9R 6118  -0.849   3.685  13.426  0.6579 -1.2255  0.1459
   48DOPE  C210 6119  -0.787   3.670  13.638 -0.0747  0.2794 -0.1956
   48DOPE  H10R 6120  -0.885   3.696  13.680  0.4380 -0.6969  1.6745
   48DOPE  C211 6121  -0.679   3.635  13.739  0.7595 -0.2393 -0.6348
   48DOPE  H11R 6122  -0.634   3.725  13.787 -1.4608  0.6050  0.0150
   48DOPE  H11S 6123  -0.598   3.572  13.697 -1.1322 -3.0381 -0.3621
   48DOPE  C212 6124  -0.748   3.548  13.848  0.2873 -1.2214 -0.4083
   48DOPE  H12R 6125  -0.804   3.462  13.805 -1.1385 -0.0370 -0.9701
   48DOPE  H12S 6126  -0.831   3.601  13.899  1.7898  0.0089  0.8545
   48DOPE  C213 6127  -0.655   3.500  13.959 -0.1292 -0.0527 -0.4180
   48DOPE  H13R 6128  -0.600   3.416  13.911 -0.2987 -0.4731  0.1065
   48DOPE  H13S 6129  -0.712   3.443  14.036 -1.5579  1.2837 -0.4382
   48DOPE  C214 6130  -0.562   3.606  14.022  1.0250  0.5248 -0.4197
   48DOPE  H14R 6131  -0.606   3.683  14.089 -3.8351 -2.0754 -0.2180
   48DOPE  H14S 6132  -0.499   3.649  13.941  1.1728 -1.7077 -1.5858
   48DOPE  C215 6133  -0.451   3.540  14.108 -0.1591  0.0712  0.6097
   48DOPE  H15R 6134  -0.377   3.620  14.130  1.8454 -1.6430  0.3930
   48DOPE  H15S 6135  -0.396   3.452  14.067  0.6306  0.9026 -0.1449
   48DOPE  C216 6136  -0.491   3.500  14.243  0.1960 -0.4734 -0.3139
   48DOPE  H16R 6137  -0.573   3.431  14.216 -1.0112  0.9478 -0.4238
   48DOPE  H16S 6138  -0.547   3.586  14.284 -1.0752 -2.0409  1.3897
   48DOPE  C217 6139  -0.383   3.442  14.336 -0.3083  0.0656 -0.0053
   48DOPE  H17R 6140  -0.327   3.364  14.280 -0.5306 -0.2312  0.1827
   48DOPE  H17S 6141  -0.439   3.394  14.420  0.2115  2.5479  1.8546
   48DOPE  C218 6142  -0.300   3.552  14.397 -0.8723  0.0419 -0.3996
   48DOPE  H18R 6143  -0.231   3.513  14.475 -1.3038  0.4602  0.2041
   48DOPE  H18S 6144  -0.369   3.630  14.437  0.9397  0.2142  2.7233
   48DOPE  H18T 6145  -0.240   3.600  14.317  0.6648  1.0697  1.3013
   48DOPE   C33 6146  -0.902   3.120  12.755 -1.5519  0.5768  0.2793
   48DOPE   H3X 6147  -0.991   3.151  12.698  0.4413  2.5789 -1.9270
   48DOPE   H3Y 6148  -0.857   3.205  12.811 -1.0303  1.2817 -1.1630
   48DOPE   C34 6149  -0.937   3.009  12.862  0.2300  0.3405  0.1505
   48DOPE   H4X 6150  -1.022   2.955  12.815 -0.1688  0.6646  0.4904
   48DOPE   H4Y 6151  -0.848   2.944  12.879 -1.4131 -2.2737 -0.6187
   48DOPE   C35 6152  -0.977   3.072  12.994 -0.0908  0.1350 -0.5948
   48DOPE   H5X 6153  -1.063   3.141  12.979  1.4761  2.3647  0.1371
   48DOPE   H5Y 6154  -0.877   3.109  13.028  1.5650 -0.6221 -4.2102
   48DOPE   C36 6155  -1.026   2.969  13.093 -0.5136  0.1845 -0.4879
   48DOPE   H6X 6156  -0.960   2.882  13.111 -1.0787 -0.1955 -0.2326
   48DOPE   H6Y 6157  -1.119   2.917  13.063 -0.8757 -0.5624  1.7242
   48DOPE   C37 6158  -1.064   3.041  13.224  0.3270  0.0155 -0.0602
   48DOPE   H7X 6159  -0.976   3.085  13.275  0.9250 -1.8926  0.6596
   48DOPE   H7Y 6160  -1.122   3.125  13.180  0.9058  0.2450 -0.3868
   48DOPE   C38 6161  -1.144   2.956  13.320 -0.4902  0.5202 -0.3219
   48DOPE   H8X 6162  -1.221   2.910  13.255  2.3824 -1.2892 -2.7035
   48DOPE   H8Y 6163  -1.190   3.020  13.399 -0.7594  0.7641 -0.6718
   48DOPE   C39 6164  -1.069   2.848  13.387 -0.4832 -0.0236 -0.9892
   48DOPE   H9X 6165  -1.010   2.882  13.473 -0.3756 -0.0569 -1.0498
   48DOPE  C310 6166  -1.072   2.716  13.359  0.3506  0.5665 -0.6341
   48DOPE  H10X 6167  -0.999   2.650  13.407  0.3902  1.8746  1.1795
   48DOPE  C311 6168  -1.156   2.649  13.250  0.0885 -0.7190 -0.4088
   48DOPE  H11X 6169  -1.196   2.727  13.183  1.1700  0.5589  0.3916
   48DOPE  H11Y 6170  -1.097   2.573  13.194  0.9484  0.5379 -1.2595
   48DOPE  C312 6171  -1.281   2.585  13.293  0.1608  0.3453  0.4312
   48DOPE  H12X 6172  -1.334   2.550  13.202  2.0633  1.4745 -1.2164
   48DOPE  H12Y 6173  -1.343   2.664  13.341  0.1128 -1.1745  3.0212
   48DOPE  C313 6174  -1.259   2.478  13.402  0.0903 -0.3953 -0.1430
   48DOPE  H13X 6175  -1.191   2.398  13.365  0.7978  0.2867 -0.3388
   48DOPE  H13Y 6176  -1.214   2.539  13.483  0.1450  1.0042 -1.1974
   48DOPE  C314 6177  -1.387   2.411  13.458  0.1137  0.1392  0.2035
   48DOPE  H14X 6178  -1.441   2.482  13.524  1.4724  0.0141  1.5163
   48DOPE  H14Y 6179  -1.359   2.332  13.531 -0.1795 -0.8723 -0.7405
   48DOPE  C315 6180  -1.464   2.336  13.355  1.1425 -0.0012 -0.2622
   48DOPE  H15X 6181  -1.408   2.250  13.313  0.0913 -1.1091  0.5509
   48DOPE  H15Y 6182  -1.502   2.393  13.267 -2.6769 -1.5386  0.1949
   48DOPE  C316 6183  -1.593   2.263  13.413 -0.1976 -0.5165 -0.5025
   48DOPE  H16X 6184  -1.561   2.198  13.497  1.8548  0.2587 -0.6258
   48DOPE  H16Y 6185  -1.636   2.219  13.320 -1.9471  0.8089 -0.3721
   48DOPE  C317 6186  -1.702   2.364  13.452  0.3016  0.2653  0.4068
   48DOPE  H17X 6187  -1.681   2.409  13.551 -2.0985  2.8012 -0.1219
   48DOPE  H17Y 6188  -1.700   2.451  13.383  2.2896 -0.4636 -0.5182
   48DOPE  C318 6189  -1.842   2.308  13.468 -0.2671 -0.4424 -0.0621
   48DOPE  H18X 6190  -1.853   2.209  13.519 -1.2419  0.1153  0.8485
   48DOPE  H18Y 6191  -1.899   2.382  13.526  1.9122  0.7684  0.6579
   48DOPE  H18Z 6192  -1.880   2.304  13.364  2.7434  0.4634 -1.3144
   49DOPE     N 6193   2.483   6.256  12.418  0.2675  0.7677 -0.0458
   49DOPE   HN1 6194   2.429   6.273  12.330  1.6629 -3.1954 -1.8957
   49DOPE   HN2 6195   2.547   6.335  12.438 -2.0524  3.2691 -1.6616
   49DOPE   HN3 6196   2.551   6.179  12.402 -2.3432 -1.6597 -0.3396
   49DOPE   C12 6197   2.389   6.245  12.530 -0.3831 -0.1748  0.2005
   49DOPE  H12A 6198   2.332   6.340  12.529  1.4825  0.9882 -0.5125
   49DOPE  H12B 6199   2.454   6.234  12.620 -3.6345  0.0045  2.7880
   49DOPE   C11 6200   2.310   6.111  12.518 -0.4073  0.0429  0.2384
   49DOPE  H11A 6201   2.261   6.096  12.617 -2.0590  0.3957 -0.4778
   49DOPE  H11B 6202   2.389   6.034  12.506 -0.0651  0.1899  1.4344
   49DOPE     P 6203   2.075   6.154  12.416 -0.1549 -0.3761  0.3187
   49DOPE   O13 6204   1.995   6.036  12.447  0.0348  0.1516 -0.2894
   49DOPE   O14 6205   2.039   6.228  12.295  0.2996 -0.1737  0.3020
   49DOPE   O11 6206   2.066   6.246  12.543 -0.2812  0.6301 -0.0783
   49DOPE   O12 6207   2.224   6.104  12.405  0.1392 -0.2066  0.3069
   49DOPE    C1 6208   1.973   6.354  12.567  0.2117  0.0149  0.6481
   49DOPE    HA 6209   1.870   6.331  12.532  1.5856 -0.9728 -3.3816
   49DOPE    HB 6210   2.011   6.439  12.507  0.7848  0.1268  1.1565
   49DOPE    C2 6211   1.969   6.414  12.711  0.6484  0.0493  0.5572
   49DOPE    HS 6212   2.070   6.437  12.751  0.5741  0.7725  0.3343
   49DOPE   O21 6213   1.906   6.320  12.800 -0.0629 -0.1161  0.2297
   49DOPE   C21 6214   1.987   6.228  12.845  0.6840  0.0036  0.6841
   49DOPE   O22 6215   2.107   6.226  12.847  0.2064  0.1470 -0.2246
   49DOPE   C22 6216   1.896   6.117  12.903  0.0898 -0.2290 -0.0635
   49DOPE   H2R 6217   1.964   6.030  12.909 -0.7254 -0.9151 -0.6406
   49DOPE   H2S 6218   1.811   6.099  12.834 -1.5130 -0.3889  1.8658
   49DOPE    C3 6219   1.889   6.545  12.714  0.5455 -0.4182  0.3910
   49DOPE    HX 6220   1.786   6.512  12.687  0.0170  0.1846  1.5998
   49DOPE    HY 6221   1.922   6.615  12.635 -0.0832 -0.5284  0.0195
   49DOPE   O31 6222   1.884   6.607  12.849  0.5898 -0.1694  0.4611
   49DOPE   C31 6223   1.986   6.687  12.873  0.7035 -0.3731  0.3140
   49DOPE   O32 6224   2.088   6.692  12.802  0.4698 -0.2981 -0.6729
   49DOPE   C32 6225   1.953   6.778  12.995 -0.1370  0.0993 -0.3223
   49DOPE   H2X 6226   2.040   6.844  13.014 -0.3960  0.3457  0.0275
   49DOPE   H2Y 6227   1.864   6.839  12.966 -1.8231 -1.4975  1.1889
   49DOPE   C23 6228   1.834   6.154  13.036 -1.2763  0.4744 -0.0370
   49DOPE   H3R 6229   1.751   6.082  13.049 -1.0249 -0.2663 -2.0792
   49DOPE   H3S 6230   1.795   6.258  13.041  1.0351  1.4143 -0.1952
   49DOPE   C24 6231   1.928   6.126  13.154 -0.5651 -0.1176 -0.2286
   49DOPE   H4R 6232   2.016   6.193  13.163 -0.0690 -0.9633  1.8668
   49DOPE   H4S 6233   1.967   6.022  13.152  1.2157  0.5096 -0.0294
   49DOPE   C25 6234   1.845   6.150  13.280  0.0243  0.0529  0.1240
   49DOPE   H5R 6235   1.754   6.086  13.277  0.4865 -0.6088  0.0507
   49DOPE   H5S 6236   1.817   6.257  13.277  2.2199  0.6536 -2.2934
   49DOPE   C26 6237   1.929   6.128  13.406 -0.2458 -0.1071  0.0227
   49DOPE   H6R 6238   2.015   6.197  13.398 -1.4590  1.2988 -2.4598
   49DOPE   H6S 6239   1.961   6.022  13.398  1.4096  0.4168 -0.6688
   49DOPE   C27 6240   1.859   6.160  13.535  0.1013  0.2236  0.3058
   49DOPE   H7R 6241   1.768   6.098  13.544 -0.2534  0.9394  2.1036
   49DOPE   H7S 6242   1.811   6.260  13.530  0.4508  0.3512 -1.0901
   49DOPE   C28 6243   1.950   6.143  13.659 -0.6919 -0.2775 -0.1265
   49DOPE   H8R 6244   1.983   6.037  13.664 -1.1118 -0.4191 -0.3356
   49DOPE   H8S 6245   1.894   6.166  13.752 -0.0416  2.1788 -0.2589
   49DOPE   C29 6246   2.071   6.238  13.648  0.4344  0.0115 -0.7582
   49DOPE   H9R 6247   2.048   6.328  13.588  0.8815  0.5695 -0.1184
   49DOPE  C210 6248   2.177   6.238  13.735  0.0420 -0.0350 -0.1695
   49DOPE  H10R 6249   2.256   6.314  13.727 -1.3166  1.6486  1.4730
   49DOPE  C211 6250   2.199   6.141  13.848  0.4017 -0.6855 -0.8281
   49DOPE  H11R 6251   2.308   6.122  13.852  0.9137  1.8633 -0.6426
   49DOPE  H11S 6252   2.153   6.041  13.838 -1.1641 -0.0646 -0.1404
   49DOPE  C212 6253   2.157   6.205  13.976 -0.2396 -0.1211 -0.4345
   49DOPE  H12R 6254   2.050   6.233  13.979 -0.3248 -0.4738  0.0391
   49DOPE  H12S 6255   2.213   6.300  13.984  0.1715 -0.2781 -1.3510
   49DOPE  C213 6256   2.179   6.114  14.099 -0.1091 -0.7038 -0.0687
   49DOPE  H13R 6257   2.286   6.083  14.103  0.5347  1.2285 -0.8099
   49DOPE  H13S 6258   2.121   6.020  14.092 -1.6455  0.0282  1.8072
   49DOPE  C214 6259   2.133   6.187  14.223  0.4267  0.2641  0.6504
   49DOPE  H14R 6260   2.178   6.288  14.217  0.2814  0.2655 -0.4866
   49DOPE  H14S 6261   2.181   6.135  14.309  0.1172 -0.8170  0.1892
   49DOPE  C215 6262   1.979   6.184  14.244 -0.5902 -0.0806 -0.1057
   49DOPE  H15R 6263   1.947   6.078  14.240 -1.3695  0.1036  0.8763
   49DOPE  H15S 6264   1.929   6.223  14.153 -0.3177 -2.2249 -1.2389
   49DOPE  C216 6265   1.941   6.252  14.377 -0.1971 -0.0530 -0.1061
   49DOPE  H16R 6266   1.967   6.360  14.375 -3.6989  1.0028  2.2655
   49DOPE  H16S 6267   1.998   6.210  14.463  0.6779  0.3293 -0.4816
   49DOPE  C217 6268   1.787   6.237  14.409 -0.2100  0.4373 -0.5759
   49DOPE  H17R 6269   1.749   6.133  14.414  2.6368 -0.8031 -2.5729
   49DOPE  H17S 6270   1.741   6.293  14.325  0.2542  2.3322  0.3771
   49DOPE  C218 6271   1.756   6.314  14.536  0.2929  0.3354  0.6730
   49DOPE  H18R 6272   1.650   6.345  14.528  0.3522  0.6181  0.9813
   49DOPE  H18S 6273   1.819   6.404  14.549  0.0346  0.4762  0.9882
   49DOPE  H18T 6274   1.766   6.250  14.626  0.1905  1.8701  1.8153
   49DOPE   C33 6275   1.923   6.702  13.127  0.7305  0.1114 -0.4535
   49DOPE   H3X 6276   1.834   6.636  13.122  0.7767 -0.1782  1.8158
   49DOPE   H3Y 6277   1.901   6.778  13.204  1.5856 -0.8906  0.8123
   49DOPE   C34 6278   2.045   6.626  13.186 -0.3430 -0.3887  0.3888
   49DOPE   H4X 6279   2.068   6.539  13.121 -0.1708 -0.2431  0.2562
   49DOPE   H4Y 6280   2.137   6.687  13.174 -0.4202 -0.6075 -1.5423
   49DOPE   C35 6281   2.019   6.579  13.324  0.4406  0.0473 -0.3892
   49DOPE   H5X 6282   2.093   6.497  13.340 -0.8790 -1.2689 -0.7761
   49DOPE   H5Y 6283   1.919   6.533  13.336  0.0048  0.9317 -0.5594
   49DOPE   C36 6284   2.039   6.682  13.439  0.2550 -1.4466 -0.4577
   49DOPE   H6X 6285   1.950   6.748  13.436  0.2350 -1.3864  0.7973
   49DOPE   H6Y 6286   2.129   6.741  13.410 -0.3194  0.4245  1.2953
   49DOPE   C37 6287   2.056   6.613  13.572 -0.0535 -0.5077  0.1656
   49DOPE   H7X 6288   1.960   6.559  13.582  0.4992 -1.6074 -0.3342
   49DOPE   H7Y 6289   2.149   6.553  13.571  0.8716  0.8778 -0.7085
   49DOPE   C38 6290   2.058   6.713  13.692  0.1109 -0.4181 -0.4919
   49DOPE   H8X 6291   1.959   6.763  13.692 -1.1607 -2.7520  0.2593
   49DOPE   H8Y 6292   2.136   6.789  13.671  0.0995 -0.3151 -0.1778
   49DOPE   C39 6293   2.092   6.643  13.823 -0.0417 -0.6119  0.0657
   49DOPE   H9X 6294   2.200   6.629  13.839  0.7240  2.8348 -1.1558
   49DOPE  C310 6295   2.012   6.581  13.913 -0.0526 -0.1166  0.2384
   49DOPE  H10X 6296   2.060   6.535  14.000  0.1749 -0.2981  0.0192
   49DOPE  C311 6297   1.861   6.578  13.905  0.7662  0.1030 -0.0062
   49DOPE  H11X 6298   1.826   6.671  13.856 -0.3849 -0.2423  0.1310
   49DOPE  H11Y 6299   1.831   6.492  13.841 -1.5207  3.1763 -3.4363
   49DOPE  C312 6300   1.793   6.560  14.042  0.4508  0.3246 -0.0320
   49DOPE  H12X 6301   1.825   6.461  14.082 -1.1302 -0.7076 -1.1794
   49DOPE  H12Y 6302   1.683   6.544  14.034  0.4099  0.3944  0.3298
   49DOPE  C313 6303   1.815   6.669  14.144 -0.7509 -0.6613 -0.2023
   49DOPE  H13X 6304   1.924   6.665  14.169 -0.7987  0.2415  0.1946
   49DOPE  H13Y 6305   1.792   6.759  14.084 -0.5427 -1.5659 -1.6769
   49DOPE  C314 6306   1.723   6.674  14.263  0.5697  0.1604 -0.6115
   49DOPE  H14X 6307   1.731   6.575  14.311 -1.1252  1.3080  2.2581
   49DOPE  H14Y 6308   1.624   6.706  14.225  0.0073  0.5705  1.1088
   49DOPE  C315 6309   1.755   6.772  14.372 -0.7799 -0.4367 -1.0037
   49DOPE  H15X 6310   1.755   6.875  14.331  1.0575 -0.5963 -1.4878
   49DOPE  H15Y 6311   1.863   6.761  14.396 -0.9848  1.0936  0.8860
   49DOPE  C316 6312   1.665   6.767  14.500  0.6291  0.5347  0.7745
   49DOPE  H16X 6313   1.650   6.658  14.513 -3.8483  0.5877 -1.9099
   49DOPE  H16Y 6314   1.566   6.815  14.486  0.6518  0.4010  0.0869
   49DOPE  C317 6315   1.723   6.830  14.620 -0.3202 -0.2937 -0.1401
   49DOPE  H17X 6316   1.832   6.809  14.632 -0.5274 -1.3354 -0.0001
   49DOPE  H17Y 6317   1.719   6.941  14.615 -1.8418 -0.1640  2.1808
   49DOPE  C318 6318   1.667   6.803  14.762 -0.8172  0.2121  0.3255
   49DOPE  H18X 6319   1.668   6.694  14.784  0.2975 -0.0662 -0.9376
   49DOPE  H18Y 6320   1.724   6.851  14.844  1.1152 -3.5321  1.4074
   49DOPE  H18Z 6321   1.559   6.829  14.761 -0.9985 -0.3093 -2.3014
   50DOPE     N 6322   2.699   5.472  12.356 -0.1233 -0.6802 -0.1902
   50DOPE   HN1 6323   2.661   5.561  12.317  1.6199 -0.7224 -2.1967
   50DOPE   HN2 6324   2.686   5.399  12.284 -0.2216 -0.1524 -0.7138
   50DOPE   HN3 6325   2.647   5.446  12.442 -0.8609  0.7091 -0.1901
   50DOPE   C12 6326   2.843   5.471  12.399  0.0294 -0.0203 -0.7160
   50DOPE  H12A 6327   2.858   5.558  12.468  1.6648 -0.1261 -0.8902
   50DOPE  H12B 6328   2.908   5.498  12.313  1.6941  0.6794  0.6949
   50DOPE   C11 6329   2.873   5.342  12.469 -0.1212 -0.2555  0.7786
   50DOPE  H11A 6330   2.810   5.336  12.560  0.5643 -0.1036  1.2739
   50DOPE  H11B 6331   2.979   5.343  12.501  0.7298  0.5525 -1.8187
   50DOPE     P 6332   2.790   5.100  12.423 -0.0264  0.1253 -0.2945
   50DOPE   O13 6333   2.869   4.985  12.364 -0.0424 -0.5070  0.5757
   50DOPE   O14 6334   2.644   5.099  12.406 -0.4628 -0.1142  0.1478
   50DOPE   O11 6335   2.816   5.113  12.580  0.0561 -0.2937 -0.1049
   50DOPE   O12 6336   2.841   5.239  12.374 -0.2266  0.1115  0.2522
   50DOPE    C1 6337   2.904   5.024  12.647  0.0304  0.0954 -0.2791
   50DOPE    HA 6338   2.913   5.073  12.746 -1.7560 -0.0161 -0.0338
   50DOPE    HB 6339   3.006   5.017  12.603 -0.0022 -0.8036 -0.2372
   50DOPE    C2 6340   2.845   4.883  12.669 -0.2839 -0.2894 -0.0577
   50DOPE    HS 6341   2.791   4.862  12.575 -0.3370  1.9247 -0.5900
   50DOPE   O21 6342   2.753   4.887  12.776  0.1290  0.0478  0.6222
   50DOPE   C21 6343   2.651   4.805  12.784  0.3254  0.6390 -0.7577
   50DOPE   O22 6344   2.633   4.707  12.714 -0.6755 -0.5602  1.0233
   50DOPE   C22 6345   2.561   4.853  12.900 -0.0040 -0.5062  0.3935
   50DOPE   H2R 6346   2.521   4.951  12.865 -0.1218 -0.7220 -0.1005
   50DOPE   H2S 6347   2.621   4.879  12.989  0.4513  2.3842 -0.6473
   50DOPE    C3 6348   2.951   4.780  12.694 -0.3041 -0.1940 -0.9041
   50DOPE    HX 6349   3.005   4.764  12.598 -1.8931 -2.9179 -1.4470
   50DOPE    HY 6350   2.914   4.677  12.710 -0.0988 -0.0835  0.3657
   50DOPE   O31 6351   3.051   4.827  12.792 -0.2635  0.0159 -0.4202
   50DOPE   C31 6352   3.051   4.774  12.912  0.7004  0.0726  0.4229
   50DOPE   O32 6353   2.973   4.689  12.956  0.0241  0.5574  0.1910
   50DOPE   C32 6354   3.147   4.860  12.987  0.3865 -0.1729  0.8034
   50DOPE   H2X 6355   3.239   4.840  12.929 -0.2429 -1.5331  0.2303
   50DOPE   H2Y 6356   3.117   4.967  12.976  0.3181 -0.0129  2.3319
   50DOPE   C23 6357   2.455   4.760  12.943  0.1225  0.4580  0.3623
   50DOPE   H3R 6358   2.486   4.654  12.953 -2.4949 -0.5014 -0.8264
   50DOPE   H3S 6359   2.374   4.747  12.868 -0.8389 -0.4958  1.5088
   50DOPE   C24 6360   2.402   4.801  13.084  0.6083 -0.7240 -0.4661
   50DOPE   H4R 6361   2.351   4.898  13.067  1.7595 -0.2377 -1.3238
   50DOPE   H4S 6362   2.488   4.810  13.154 -2.5784 -2.3192  4.1425
   50DOPE   C25 6363   2.299   4.708  13.140 -0.2541 -0.1879 -0.1062
   50DOPE   H5R 6364   2.220   4.675  13.069 -0.2079 -0.7756  0.1074
   50DOPE   H5S 6365   2.246   4.770  13.216 -0.3467 -0.3549 -0.0327
   50DOPE   C26 6366   2.359   4.589  13.215  0.2793 -0.1068  0.2373
   50DOPE   H6R 6367   2.442   4.627  13.279 -1.1248  1.6021  1.1235
   50DOPE   H6S 6368   2.409   4.522  13.143  0.3669 -0.3382  0.5085
   50DOPE   C27 6369   2.256   4.505  13.295 -0.5954  0.0023  0.2143
   50DOPE   H7R 6370   2.184   4.451  13.230 -0.8269  1.3585 -0.7052
   50DOPE   H7S 6371   2.192   4.568  13.361 -1.1551 -0.0396 -0.2750
   50DOPE   C28 6372   2.315   4.390  13.378 -0.0349  0.0803  0.4092
   50DOPE   H8R 6373   2.392   4.429  13.448 -0.1834 -0.5966  0.9650
   50DOPE   H8S 6374   2.380   4.329  13.313  1.3239 -0.7783  2.4532
   50DOPE   C29 6375   2.210   4.318  13.458  0.5511  0.1570 -0.2913
   50DOPE   H9R 6376   2.172   4.378  13.542  1.5762 -0.2566  0.4858
   50DOPE  C210 6377   2.164   4.194  13.446 -0.6985  0.1915  0.0081
   50DOPE  H10R 6378   2.089   4.168  13.523 -2.0748  1.6867 -0.7722
   50DOPE  C211 6379   2.204   4.087  13.347 -0.2468  0.1266  0.6627
   50DOPE  H11R 6380   2.283   4.123  13.277 -0.0258  0.3340  1.0197
   50DOPE  H11S 6381   2.116   4.059  13.285 -1.2599  1.2807  1.5348
   50DOPE  C212 6382   2.262   3.959  13.417 -0.3787 -0.6471 -0.1139
   50DOPE  H12R 6383   2.193   3.917  13.493 -0.9684 -1.1766 -0.9335
   50DOPE  H12S 6384   2.352   4.000  13.469 -0.4461  0.0214 -0.5167
   50DOPE  C213 6385   2.307   3.849  13.313 -0.0055 -0.2474 -0.3868
   50DOPE  H13R 6386   2.376   3.885  13.234  1.7431 -0.9245  0.7704
   50DOPE  H13S 6387   2.212   3.813  13.268  0.2573 -0.4087 -0.8118
   50DOPE  C214 6388   2.391   3.740  13.382  0.1074 -0.7084 -0.2936
   50DOPE  H14R 6389   2.484   3.786  13.423  0.5472 -1.0032 -0.9368
   50DOPE  H14S 6390   2.429   3.675  13.300  2.8465  0.7837 -0.3251
   50DOPE  C215 6391   2.319   3.670  13.497 -0.2006 -0.3914 -0.2587
   50DOPE  H15R 6392   2.311   3.746  13.578  3.6234  0.2712 -0.3397
   50DOPE  H15S 6393   2.386   3.594  13.542  1.5202  1.0125 -0.3499
   50DOPE  C216 6394   2.192   3.596  13.467  0.3750 -0.1368 -0.0817
   50DOPE  H16R 6395   2.201   3.508  13.400 -0.6965  0.5471 -1.1636
   50DOPE  H16S 6396   2.125   3.671  13.422  1.4140  0.6286 -0.3823
   50DOPE  C217 6397   2.122   3.531  13.587 -0.7568 -0.2427 -0.3567
   50DOPE  H17R 6398   2.075   3.617  13.640 -1.4651 -0.5177 -0.5282
   50DOPE  H17S 6399   2.201   3.480  13.646 -0.7909 -0.6864 -0.6920
   50DOPE  C218 6400   2.001   3.445  13.547  0.2222  0.7088  0.0013
   50DOPE  H18R 6401   1.944   3.420  13.640 -0.9885 -0.1301 -0.9408
   50DOPE  H18S 6402   2.031   3.353  13.491 -0.3150 -1.0919  2.4836
   50DOPE  H18T 6403   1.937   3.497  13.474  1.7551 -1.2091 -2.8840
   50DOPE   C33 6404   3.179   4.827  13.135  0.0617 -0.3479 -0.5255
   50DOPE   H3X 6405   3.093   4.804  13.202 -0.5459  1.1792 -0.7345
   50DOPE   H3Y 6406   3.211   4.925  13.176  0.6240 -0.7542  0.0256
   50DOPE   C34 6407   3.284   4.717  13.158  0.8290  0.2311  0.3487
   50DOPE   H4X 6408   3.266   4.685  13.263 -1.8514  1.3504  0.3201
   50DOPE   H4Y 6409   3.261   4.631  13.092 -0.9634  1.9811 -1.5039
   50DOPE   C35 6410   3.427   4.758  13.135  1.2372 -0.8776  0.3629
   50DOPE   H5X 6411   3.416   4.860  13.178 -1.3168 -0.8278 -0.2446
   50DOPE   H5Y 6412   3.453   4.767  13.027  0.2517 -2.6606 -0.0630
   50DOPE   C36 6413   3.518   4.668  13.214 -0.9774  0.0866  0.4503
   50DOPE   H6X 6414   3.503   4.559  13.194  1.0380 -0.7821  2.9575
   50DOPE   H6Y 6415   3.514   4.677  13.325 -0.2887 -0.7239  0.5616
   50DOPE   C37 6416   3.660   4.701  13.179  0.7517  0.5962 -0.1505
   50DOPE   H7X 6417   3.667   4.713  13.069  2.2722 -1.7762 -0.3701
   50DOPE   H7Y 6418   3.695   4.798  13.222  1.6498 -0.0209  0.5619
   50DOPE   C38 6419   3.757   4.589  13.211  0.3782  1.2094 -0.7420
   50DOPE   H8X 6420   3.732   4.503  13.145  3.5420 -2.9265  2.8513
   50DOPE   H8Y 6421   3.745   4.542  13.311  0.2966  2.8388  0.0464
   50DOPE   C39 6422   3.898   4.607  13.174 -0.4201 -0.5875  0.1664
   50DOPE   H9X 6423   3.914   4.601  13.065  0.3758  3.6446 -0.1329
   50DOPE  C310 6424   3.996   4.648  13.260  0.7020 -0.5541  0.3277
   50DOPE  H10X 6425   4.094   4.652  13.209  1.3611 -1.8509  1.4420
   50DOPE  C311 6426   3.986   4.672  13.412  0.2608  0.4753  0.0623
   50DOPE  H11X 6427   4.015   4.778  13.431  3.3639 -0.2837  0.1481
   50DOPE  H11Y 6428   3.885   4.656  13.455  0.2592 -2.3754 -0.7991
   50DOPE  C312 6429   4.080   4.589  13.511 -0.3049  0.0575 -0.0717
   50DOPE  H12X 6430   4.058   4.481  13.508  2.3721 -0.5402 -0.7893
   50DOPE  H12Y 6431   4.052   4.623  13.613 -0.7966  1.1578 -0.5575
   50DOPE  C313 6432   4.230   4.602  13.491 -0.3509 -0.1162 -0.4644
   50DOPE  H13X 6433   4.289   4.519  13.536  1.0505  1.1810  0.2234
   50DOPE  H13Y 6434   4.257   4.599  13.384 -1.9077 -1.4120 -0.8575
   50DOPE  C314 6435   4.289   4.729  13.542 -0.1594  0.2060 -0.0334
   50DOPE  H14X 6436   4.233   4.743  13.637 -0.6738 -2.7830  0.2059
   50DOPE  H14Y 6437   4.264   4.817  13.478  2.4266  1.1699  0.1342
   50DOPE  C315 6438   4.440   4.719  13.550 -0.2935  0.4264 -0.2509
   50DOPE  H15X 6439   4.466   4.698  13.444 -3.7512 -0.2621 -1.0600
   50DOPE  H15Y 6440   4.459   4.628  13.612 -0.4452  0.8083  0.3586
   50DOPE  C316 6441   4.494   4.851  13.606  0.2878  0.5324 -0.3489
   50DOPE  H16X 6442   4.465   4.932  13.535  1.5199  2.5466  1.3464
   50DOPE  H16Y 6443   4.603   4.830  13.607  0.0979 -0.8392  2.9131
   50DOPE  C317 6444   4.451   4.879  13.752 -0.2422 -0.0435  0.0518
   50DOPE  H17X 6445   4.340   4.878  13.751 -0.2514  0.6093 -1.4486
   50DOPE  H17Y 6446   4.463   4.793  13.822 -0.3096 -0.7341 -0.7626
   50DOPE  C318 6447   4.515   5.004  13.804 -0.3346 -0.5439 -0.0184
   50DOPE  H18X 6448   4.445   5.087  13.778  0.1794 -0.4814 -1.2655
   50DOPE  H18Y 6449   4.537   5.000  13.913 -2.6099 -0.4273  0.5108
   50DOPE  H18Z 6450   4.613   5.019  13.755 -0.1418  1.2856  0.8338
   51DOPE     N 6451   4.308   8.148  12.658  0.1472  0.0202  0.1059
   51DOPE   HN1 6452   4.241   8.211  12.707 -0.1275  0.4797 -0.8394
   51DOPE   HN2 6453   4.360   8.206  12.589 -0.9345  0.9095  0.0081
   51DOPE   HN3 6454   4.242   8.101  12.592 -0.2728  3.1538 -1.9081
   51DOPE   C12 6455   4.391   8.069  12.756 -0.1216  0.3199 -0.3339
   51DOPE  H12A 6456   4.455   8.139  12.813 -0.7692 -1.4681  2.8202
   51DOPE  H12B 6457   4.443   7.991  12.695 -1.0855 -0.8465  0.3079
   51DOPE   C11 6458   4.301   7.988  12.855 -0.1360  0.2401  0.8592
   51DOPE  H11A 6459   4.249   8.048  12.934 -0.0308  1.0472  0.3307
   51DOPE  H11B 6460   4.366   7.926  12.921  1.4345  0.2563 -0.6246
   51DOPE     P 6461   4.248   7.765  12.708 -0.1429 -0.0010 -0.0948
   51DOPE   O13 6462   4.336   7.798  12.594  0.2210  1.0449 -0.2198
   51DOPE   O14 6463   4.120   7.694  12.682  0.2329  0.3824  0.0320
   51DOPE   O11 6464   4.338   7.676  12.809 -0.7769  0.4617  0.3339
   51DOPE   O12 6465   4.222   7.894  12.787  0.6641  0.0933  0.0598
   51DOPE    C1 6466   4.307   7.665  12.949  0.4289 -0.2151 -0.5316
   51DOPE    HA 6467   4.208   7.711  12.971  1.5615  1.7233  0.7970
   51DOPE    HB 6468   4.382   7.720  13.009  0.6563 -2.1767  1.1027
   51DOPE    C2 6469   4.278   7.517  12.996  0.1480  0.3743  0.2686
   51DOPE    HS 6470   4.282   7.508  13.107  0.7722 -1.1711  0.1499
   51DOPE   O21 6471   4.367   7.427  12.938 -0.1792  0.5173 -0.4418
   51DOPE   C21 6472   4.491   7.410  12.991  0.5652  0.2054 -0.5013
   51DOPE   O22 6473   4.525   7.465  13.093 -0.1137 -0.2063 -0.1039
   51DOPE   C22 6474   4.573   7.308  12.915  0.0453  0.0085  0.5997
   51DOPE   H2R 6475   4.537   7.304  12.810 -0.0165  2.6751  0.4326
   51DOPE   H2S 6476   4.548   7.213  12.967 -1.0487  0.9143  1.7873
   51DOPE    C3 6477   4.129   7.480  12.955 -0.1061  0.3843  0.4038
   51DOPE    HX 6478   4.112   7.379  12.997  0.5065  0.4461  0.8147
   51DOPE    HY 6479   4.120   7.472  12.845 -1.5520  1.8325  0.3758
   51DOPE   O31 6480   4.018   7.571  12.991  0.1433  0.0901  0.2594
   51DOPE   C31 6481   3.895   7.526  12.966  0.1215 -0.0554 -0.6433
   51DOPE   O32 6482   3.866   7.421  12.917  0.4973  0.1500 -0.1575
   51DOPE   C32 6483   3.798   7.625  13.024  0.3734 -0.1756  0.3024
   51DOPE   H2X 6484   3.854   7.702  13.080  0.9639 -1.1185  1.0453
   51DOPE   H2Y 6485   3.743   7.680  12.945  2.0257  0.7948 -0.2207
   51DOPE   C23 6486   4.724   7.328  12.925 -0.2980  0.9170 -0.5405
   51DOPE   H3R 6487   4.761   7.342  13.029  0.2902  1.5982 -0.8295
   51DOPE   H3S 6488   4.750   7.429  12.884  0.4848  0.7579 -0.4498
   51DOPE   C24 6489   4.808   7.219  12.861  0.4420 -0.6685  0.0203
   51DOPE   H4R 6490   4.756   7.197  12.765 -1.4341 -2.0673  1.3077
   51DOPE   H4S 6491   4.808   7.125  12.919  0.4284 -0.2761  0.6633
   51DOPE   C25 6492   4.959   7.269  12.845  0.2161 -0.0836 -0.0343
   51DOPE   H5R 6493   4.971   7.368  12.794  0.1887  0.8148  1.6233
   51DOPE   H5S 6494   5.009   7.193  12.782 -0.7323  0.6696 -1.7493
   51DOPE   C26 6495   5.026   7.273  12.988 -0.0489  0.3213 -0.1384
   51DOPE   H6R 6496   4.993   7.177  13.034 -0.4385  1.2493  1.5810
   51DOPE   H6S 6497   4.974   7.361  13.031 -1.7297  0.5118 -2.3767
   51DOPE   C27 6498   5.174   7.284  12.986  0.2774 -0.5621 -0.4286
   51DOPE   H7R 6499   5.210   7.384  12.953 -0.2533 -0.0374  0.5582
   51DOPE   H7S 6500   5.213   7.206  12.917 -0.4193 -1.4931  0.2099
   51DOPE   C28 6501   5.238   7.278  13.130 -0.4397  0.2837 -0.9078
   51DOPE   H8R 6502   5.171   7.206  13.182 -0.2894  1.0768  0.4137
   51DOPE   H8S 6503   5.228   7.375  13.183 -3.1190 -0.1845 -0.3913
   51DOPE   C29 6504   5.375   7.225  13.151 -0.8416  0.0331 -0.2438
   51DOPE   H9R 6505   5.433   7.251  13.061 -0.5573  2.5211  0.5789
   51DOPE  C210 6506   5.435   7.132  13.230  0.2825 -0.0528 -0.1793
   51DOPE  H10R 6507   5.540   7.115  13.200 -0.2085  0.4226 -2.3008
   51DOPE  C211 6508   5.366   7.052  13.336  0.1006  0.1904  0.3700
   51DOPE  H11R 6509   5.406   6.949  13.336 -0.0230  0.1364 -0.3483
   51DOPE  H11S 6510   5.255   7.049  13.327 -0.0481  0.1805  1.8950
   51DOPE  C212 6511   5.378   7.114  13.477  0.3571  0.2046  0.0689
   51DOPE  H12R 6512   5.356   7.223  13.480 -0.4166  0.0640 -0.3148
   51DOPE  H12S 6513   5.485   7.094  13.497  0.0331 -1.9957 -0.1097
   51DOPE  C213 6514   5.278   7.056  13.574  0.4001  0.0225  0.1812
   51DOPE  H13R 6515   5.296   7.118  13.664  1.4052 -1.5676  1.1233
   51DOPE  H13S 6516   5.299   6.950  13.599 -1.5318 -0.3391  0.4383
   51DOPE  C214 6517   5.123   7.073  13.540  0.2459  0.6467 -0.3852
   51DOPE  H14R 6518   5.096   6.982  13.482 -1.4135  0.1731  1.0539
   51DOPE  H14S 6519   5.102   7.164  13.480 -0.5422  1.1714  0.6537
   51DOPE  C215 6520   5.037   7.082  13.673 -0.2415  0.1839  0.6932
   51DOPE  H15R 6521   4.932   7.096  13.639 -0.1835  0.3864  0.5977
   51DOPE  H15S 6522   5.075   7.164  13.738 -0.1094  0.0517  0.7835
   51DOPE  C216 6523   5.053   6.956  13.757  0.3400  0.4955 -0.5699
   51DOPE  H16R 6524   5.159   6.948  13.789  0.8858  2.4501 -1.7233
   51DOPE  H16S 6525   5.018   6.868  13.698 -1.4801  1.2483 -0.6986
   51DOPE  C217 6526   4.959   6.963  13.884 -0.4270 -0.3550  0.1415
   51DOPE  H17R 6527   4.852   6.975  13.856  0.3518  1.0577 -2.5324
   51DOPE  H17S 6528   4.988   7.035  13.963  1.1124 -2.0914  1.2492
   51DOPE  C218 6529   4.963   6.830  13.951 -0.0140  0.0121  0.1374
   51DOPE  H18R 6530   5.060   6.804  13.999 -0.0292  1.2270  0.8615
   51DOPE  H18S 6531   4.937   6.739  13.893  1.0601  0.2068 -0.7009
   51DOPE  H18T 6532   4.906   6.835  14.046  0.6500 -1.2252  0.6279
   51DOPE   C33 6533   3.687   7.561  13.110  0.0668  0.0884 -0.3964
   51DOPE   H3X 6534   3.633   7.648  13.154  0.2062 -0.2877  0.5543
   51DOPE   H3Y 6535   3.736   7.512  13.197  0.1876  0.6147 -0.1577
   51DOPE   C34 6536   3.580   7.478  13.035  1.0090  0.2002  0.4034
   51DOPE   H4X 6537   3.538   7.532  12.947 -1.2029  0.0665  1.3139
   51DOPE   H4Y 6538   3.638   7.388  13.003 -1.0841 -1.5569  1.3301
   51DOPE   C35 6539   3.475   7.438  13.138 -0.1675 -0.3100 -0.0709
   51DOPE   H5X 6540   3.379   7.492  13.128 -0.3329 -0.7046 -0.6606
   51DOPE   H5Y 6541   3.516   7.470  13.237 -1.9865  1.1457  0.2674
   51DOPE   C36 6542   3.435   7.280  13.137  0.8257  0.4878 -0.2321
   51DOPE   H6X 6543   3.396   7.249  13.236  2.0199 -0.0054  0.1046
   51DOPE   H6Y 6544   3.538   7.238  13.137  1.0988  1.0576  1.6971
   51DOPE   C37 6545   3.336   7.232  13.029 -0.1898  0.7443  0.0677
   51DOPE   H7X 6546   3.363   7.291  12.939 -0.7153  0.1588 -0.4914
   51DOPE   H7Y 6547   3.357   7.128  12.996  1.9322  1.4085 -0.8771
   51DOPE   C38 6548   3.191   7.254  13.067  0.1019 -0.1630  0.4802
   51DOPE   H8X 6549   3.184   7.347  13.126  0.6205 -0.6350  1.3111
   51DOPE   H8Y 6550   3.156   7.176  13.138  1.2960  0.3565  1.6711
   51DOPE   C39 6551   3.113   7.258  12.941  0.0823 -0.4140  0.2780
   51DOPE   H9X 6552   3.099   7.162  12.889 -0.2565  0.2782 -0.9406
   51DOPE  C310 6553   3.072   7.376  12.880  0.0861  0.2622 -0.5503
   51DOPE  H10X 6554   3.020   7.362  12.784 -0.9297 -1.9409  0.2407
   51DOPE  C311 6555   3.104   7.520  12.917 -0.8333 -0.2110 -0.1036
   51DOPE  H11X 6556   3.014   7.575  12.954 -1.7574 -0.1867 -2.2760
   51DOPE  H11Y 6557   3.177   7.525  13.001 -1.1309 -0.1357  0.1555
   51DOPE  C312 6558   3.171   7.600  12.810 -0.0363  0.1076 -0.8847
   51DOPE  H12X 6559   3.092   7.617  12.733  0.9370 -0.4570 -2.0367
   51DOPE  H12Y 6560   3.250   7.546  12.754 -0.1312  0.5027 -1.4063
   51DOPE  C313 6561   3.205   7.741  12.857 -0.7673 -0.1266  0.3765
   51DOPE  H13X 6562   3.186   7.801  12.766  1.0577 -2.9980 -2.0456
   51DOPE  H13Y 6563   3.139   7.772  12.941 -0.7099 -0.9170  0.7189
   51DOPE  C314 6564   3.344   7.769  12.912  0.1404 -0.0575  0.2899
   51DOPE  H14X 6565   3.422   7.726  12.846  1.3509  0.6066  1.2458
   51DOPE  H14Y 6566   3.350   7.705  13.004 -2.1413 -0.0431  0.5151
   51DOPE  C315 6567   3.373   7.916  12.941 -0.2635  0.6287 -0.8210
   51DOPE  H15X 6568   3.294   7.960  13.005 -3.9285 -0.6961 -4.0711
   51DOPE  H15Y 6569   3.367   7.975  12.847  0.3688  0.7421 -0.7960
   51DOPE  C316 6570   3.516   7.922  12.998  0.7224 -0.3163 -0.9604
   51DOPE  H16X 6571   3.562   8.020  12.973 -1.6434  1.6735  1.8224
   51DOPE  H16Y 6572   3.567   7.837  12.949  1.1513  0.0236 -1.1091
   51DOPE  C317 6573   3.517   7.911  13.154  0.7141  0.2362  0.6631
   51DOPE  H17X 6574   3.458   7.822  13.187 -0.0838  0.4452 -0.1263
   51DOPE  H17Y 6575   3.619   7.877  13.181  0.8358 -1.0873 -1.2552
   51DOPE  C318 6576   3.481   8.042  13.229 -0.4456 -0.1850  0.1525
   51DOPE  H18X 6577   3.387   8.094  13.202 -0.8417 -1.2253 -0.5554
   51DOPE  H18Y 6578   3.460   8.009  13.332  1.0871  0.3401  0.6620
   51DOPE  H18Z 6579   3.565   8.114  13.239 -1.3015  0.7429  0.7925
   52DOPE     N 6580   8.370   2.695  12.195  0.3511 -0.8748  0.4474
   52DOPE   HN1 6581   8.309   2.732  12.270  1.3653 -0.3487  1.0330
   52DOPE   HN2 6582   8.414   2.781  12.157  0.4188  0.8375  4.0073
   52DOPE   HN3 6583   8.308   2.654  12.122  0.0340 -0.2705  0.3706
   52DOPE   C12 6584   8.488   2.611  12.241 -0.0499 -0.2582  0.5756
   52DOPE  H12A 6585   8.547   2.577  12.153 -1.1366 -1.5844  0.3366
   52DOPE  H12B 6586   8.441   2.523  12.289 -1.8909 -0.7338 -1.9348
   52DOPE   C11 6587   8.588   2.685  12.343  0.6571  0.0951  0.3217
   52DOPE  H11A 6588   8.661   2.612  12.384 -0.4744  0.0826  2.4665
   52DOPE  H11B 6589   8.525   2.723  12.427  1.4217 -1.3062  1.5777
   52DOPE     P 6590   8.800   2.804  12.268 -0.2212  0.1311  0.1390
   52DOPE   O13 6591   8.846   2.942  12.253  0.1414 -0.4525 -0.0488
   52DOPE   O14 6592   8.832   2.710  12.152  0.0188  0.1559 -0.3702
   52DOPE   O11 6593   8.852   2.735  12.404 -1.0848 -0.2192 -0.2452
   52DOPE   O12 6594   8.643   2.798  12.291  0.5588  0.2979 -0.2874
   52DOPE    C1 6595   8.866   2.813  12.522  0.3575  0.1652 -0.2536
   52DOPE    HA 6596   8.890   2.744  12.605 -1.8320  1.2773  1.3989
   52DOPE    HB 6597   8.769   2.861  12.546 -0.9637 -2.4243 -0.0902
   52DOPE    C2 6598   8.991   2.908  12.526  0.4079 -0.6934  0.8242
   52DOPE    HS 6599   9.013   2.931  12.419  0.4380 -2.0076  0.5259
   52DOPE   O21 6600   9.106   2.836  12.582  0.0249 -0.0696 -0.0634
   52DOPE   C21 6601   9.215   2.900  12.559  0.3238 -0.5858 -0.2741
   52DOPE   O22 6602   9.235   2.986  12.472  0.1742  0.5535  0.1781
   52DOPE   C22 6603   9.328   2.843  12.648 -0.3316  0.3774 -0.4550
   52DOPE   H2R 6604   9.411   2.824  12.577  4.3552  3.6213  3.4864
   52DOPE   H2S 6605   9.296   2.745  12.690 -0.1309  0.0797 -0.9861
   52DOPE    C3 6606   8.964   3.045  12.601  0.4374  1.1001  0.8060
   52DOPE    HX 6607   8.892   3.103  12.539 -0.5835 -1.0279 -0.0981
   52DOPE    HY 6608   9.065   3.090  12.597  1.1946 -0.4212  1.9001
   52DOPE   O31 6609   8.931   3.032  12.741  0.5087  0.2149  0.2649
   52DOPE   C31 6610   8.806   3.049  12.778  0.0480  0.0581 -0.0066
   52DOPE   O32 6611   8.720   3.091  12.707 -0.5084  0.3445  0.6173
   52DOPE   C32 6612   8.794   3.030  12.923  0.5078 -0.4104  0.3686
   52DOPE   H2X 6613   8.811   3.129  12.969  0.6744  0.6155 -1.7804
   52DOPE   H2Y 6614   8.685   3.011  12.935 -0.1102  1.4690 -1.7667
   52DOPE   C23 6615   9.374   2.930  12.765  0.3197 -0.0979 -0.1860
   52DOPE   H3R 6616   9.381   3.038  12.740 -1.2271 -0.0031 -0.3323
   52DOPE   H3S 6617   9.474   2.899  12.801  0.5839  2.2987  1.3276
   52DOPE   C24 6618   9.286   2.930  12.891 -1.0347  0.0977  0.3831
   52DOPE   H4R 6619   9.180   2.935  12.858 -1.4973  0.7112  1.8577
   52DOPE   H4S 6620   9.312   3.021  12.949 -1.3828  0.0670  0.5919
   52DOPE   C25 6621   9.301   2.817  12.995 -0.3335  0.3680  0.4482
   52DOPE   H5R 6622   9.397   2.763  12.977 -0.6826 -0.2882  0.5385
   52DOPE   H5S 6623   9.212   2.756  12.969 -0.6026  1.1083 -0.4274
   52DOPE   C26 6624   9.308   2.860  13.140 -0.7713 -0.5584  0.0009
   52DOPE   H6R 6625   9.222   2.923  13.167  0.7854  1.7403 -0.1483
   52DOPE   H6S 6626   9.400   2.916  13.165 -0.9816 -0.0012 -0.4659
   52DOPE   C27 6627   9.327   2.748  13.242  0.6227 -0.6533 -0.2300
   52DOPE   H7R 6628   9.428   2.703  13.242  0.6314 -0.7118  1.6940
   52DOPE   H7S 6629   9.244   2.678  13.218  0.3347  0.3194 -2.3039
   52DOPE   C28 6630   9.305   2.807  13.381  0.0657 -0.0682  0.2319
   52DOPE   H8R 6631   9.344   2.911  13.374  0.3581 -0.1600  0.4709
   52DOPE   H8S 6632   9.363   2.764  13.465  0.8907  0.5365 -0.0158
   52DOPE   C29 6633   9.164   2.777  13.427 -0.0241 -0.1007 -0.4255
   52DOPE   H9R 6634   9.150   2.668  13.439  0.1968  0.1121  2.5095
   52DOPE  C210 6635   9.061   2.859  13.445  0.3578  0.2632 -0.4713
   52DOPE  H10R 6636   8.970   2.821  13.493 -0.1072  1.8201 -0.0673
   52DOPE  C211 6637   9.080   3.008  13.450  0.6527  0.0205  0.4577
   52DOPE  H11R 6638   9.186   3.041  13.449  1.0165 -0.9800  2.2071
   52DOPE  H11S 6639   9.034   3.048  13.543  0.6971  0.9724  0.0877
   52DOPE  C212 6640   9.011   3.070  13.327 -0.2909 -0.5513 -0.0455
   52DOPE  H12R 6641   8.907   3.032  13.326  0.0004 -1.3746 -0.6187
   52DOPE  H12S 6642   9.047   3.032  13.229  1.9985  0.7295  0.2209
   52DOPE  C213 6643   9.005   3.225  13.313  0.3128 -0.2282  0.0532
   52DOPE  H13R 6644   8.973   3.268  13.411  0.2659  2.8726 -1.2193
   52DOPE  H13S 6645   8.927   3.243  13.236 -0.6571 -0.8533  0.8617
   52DOPE  C214 6646   9.136   3.295  13.273  0.3261 -0.2942 -0.2535
   52DOPE  H14R 6647   9.222   3.225  13.269  1.3213  0.9408 -1.1592
   52DOPE  H14S 6648   9.162   3.360  13.359 -2.2950  2.0214 -1.0609
   52DOPE  C215 6649   9.147   3.380  13.143  0.3844  0.2612  0.0791
   52DOPE  H15R 6650   9.250   3.420  13.145  0.6792 -0.5200  1.3365
   52DOPE  H15S 6651   9.075   3.464  13.149  1.3076  1.2144 -1.5259
   52DOPE  C216 6652   9.124   3.295  13.019 -0.6774 -0.5272  0.3686
   52DOPE  H16R 6653   9.024   3.246  13.028 -1.6742  1.5618  1.2002
   52DOPE  H16S 6654   9.205   3.220  13.008  0.8746  1.1739 -0.2827
   52DOPE  C217 6655   9.131   3.377  12.895  0.8227  0.0369 -0.6451
   52DOPE  H17R 6656   9.238   3.404  12.881  1.2262 -0.7775  0.7035
   52DOPE  H17S 6657   9.064   3.466  12.898  2.2419  1.1395 -0.4315
   52DOPE  C218 6658   9.082   3.302  12.769  0.0342 -1.1475 -0.7981
   52DOPE  H18R 6659   9.129   3.202  12.775 -2.1930 -2.2028  0.3501
   52DOPE  H18S 6660   8.971   3.305  12.770  0.0126 -0.9119 -2.3064
   52DOPE  H18T 6661   9.120   3.370  12.691  2.2502  0.3572  1.4321
   52DOPE   C33 6662   8.871   2.896  12.967 -0.1704  0.7694 -0.2602
   52DOPE   H3X 6663   8.979   2.910  12.991  0.1700  0.4629 -1.5227
   52DOPE   H3Y 6664   8.864   2.829  12.879 -1.3091  1.0988 -0.4293
   52DOPE   C34 6665   8.809   2.826  13.090  0.6418  0.5139 -0.1021
   52DOPE   H4X 6666   8.858   2.727  13.100 -1.1908 -0.3712  0.4095
   52DOPE   H4Y 6667   8.831   2.889  13.180 -1.2896  0.2242  0.6267
   52DOPE   C35 6668   8.662   2.795  13.070 -0.3928 -0.5108 -0.2330
   52DOPE   H5X 6669   8.641   2.750  12.971 -1.1570  2.3824 -1.5165
   52DOPE   H5Y 6670   8.605   2.890  13.066  0.9848  0.3250 -1.0518
   52DOPE   C36 6671   8.607   2.687  13.168 -0.0232 -0.1940 -0.2593
   52DOPE   H6X 6672   8.497   2.680  13.158 -0.2702 -1.1487  2.4896
   52DOPE   H6Y 6673   8.621   2.731  13.269  1.8064  0.5269 -0.7735
   52DOPE   C37 6674   8.657   2.540  13.145 -0.7445  0.3253  0.1539
   52DOPE   H7X 6675   8.640   2.518  13.038  2.4066  0.3902 -0.4576
   52DOPE   H7Y 6676   8.767   2.537  13.162 -0.8609 -0.2574  0.8878
   52DOPE   C38 6677   8.602   2.433  13.249 -0.0492  0.0103 -1.0025
   52DOPE   H8X 6678   8.616   2.327  13.220  0.5800 -1.1176  2.8522
   52DOPE   H8Y 6679   8.492   2.448  13.247 -0.0712 -0.1822 -3.0252
   52DOPE   C39 6680   8.648   2.450  13.391  0.5531  0.0360 -0.4361
   52DOPE   H9X 6681   8.745   2.501  13.399  0.2810  0.3376  1.5517
   52DOPE  C310 6682   8.576   2.424  13.499 -0.1530  0.5205 -0.4674
   52DOPE  H10X 6683   8.625   2.436  13.597 -1.9235 -3.9884  1.1962
   52DOPE  C311 6684   8.441   2.356  13.504  0.3657  0.2262  0.1335
   52DOPE  H11X 6685   8.432   2.304  13.406  0.2999  1.0383 -0.3001
   52DOPE  H11Y 6686   8.436   2.276  13.581 -3.3309 -0.5568 -0.7098
   52DOPE  C312 6687   8.314   2.438  13.529  0.5982 -0.2845 -0.0550
   52DOPE  H12X 6688   8.328   2.526  13.463  2.9353 -0.9465 -0.5291
   52DOPE  H12Y 6689   8.325   2.475  13.633  1.9436 -0.1206 -0.2399
   52DOPE  C313 6690   8.175   2.370  13.504 -0.0787  0.7551 -0.0628
   52DOPE  H13X 6691   8.162   2.282  13.571  0.4178 -0.5496 -1.5988
   52DOPE  H13Y 6692   8.097   2.446  13.527 -3.4319 -2.0306 -1.3055
   52DOPE  C314 6693   8.153   2.318  13.356 -0.4992 -0.4947 -0.4092
   52DOPE  H14X 6694   8.220   2.229  13.359 -0.8651 -0.7358  1.2181
   52DOPE  H14Y 6695   8.193   2.389  13.280 -0.7484 -1.6034 -1.6293
   52DOPE  C315 6696   8.004   2.283  13.324 -0.3020  0.9684 -0.4075
   52DOPE  H15X 6697   7.967   2.222  13.409  1.1070 -1.2478 -1.3154
   52DOPE  H15Y 6698   7.988   2.220  13.234 -0.2056  2.8823 -1.8406
   52DOPE  C316 6699   7.915   2.407  13.313 -0.7297 -0.3892  0.2754
   52DOPE  H16X 6700   7.948   2.460  13.222 -0.4186  1.2954  1.3166
   52DOPE  H16Y 6701   7.927   2.465  13.408 -1.1120 -1.5287  1.0431
   52DOPE  C317 6702   7.772   2.368  13.289 -0.3479  0.1475 -0.4691
   52DOPE  H17X 6703   7.766   2.326  13.186  0.3957  0.8376 -0.8053
   52DOPE  H17Y 6704   7.762   2.280  13.356  1.6136  0.2798  0.0488
   52DOPE  C318 6705   7.670   2.480  13.316  0.2466  0.0265  0.4989
   52DOPE  H18X 6706   7.697   2.526  13.414 -0.7729 -1.6695  1.6353
   52DOPE  H18Y 6707   7.687   2.566  13.249 -1.4540  1.0501  1.3098
   52DOPE  H18Z 6708   7.567   2.439  13.322 -0.2760  0.3187 -3.7284
   53DOPE     N 6709   7.535   7.637  12.340  0.1739  0.0328  0.1464
   53DOPE   HN1 6710   7.496   7.721  12.293  0.0726  0.6053  1.2216
   53DOPE   HN2 6711   7.518   7.650  12.442 -1.2399  0.7296 -0.1552
   53DOPE   HN3 6712   7.638   7.625  12.336  0.5817  2.4287  1.1668
   53DOPE   C12 6713   7.468   7.511  12.292  0.7188  0.7676 -0.1557
   53DOPE  H12A 6714   7.512   7.421  12.340  2.9602  1.4710 -0.7890
   53DOPE  H12B 6715   7.499   7.512  12.186  1.3995  2.9071  0.0110
   53DOPE   C11 6716   7.316   7.517  12.323  0.1766 -0.2405  0.2342
   53DOPE  H11A 6717   7.271   7.420  12.293  0.3223 -0.5373  0.9458
   53DOPE  H11B 6718   7.270   7.596  12.259 -0.5619  0.4122  1.5260
   53DOPE     P 6719   7.264   7.456  12.571  0.0822 -0.0410 -0.3180
   53DOPE   O13 6720   7.348   7.335  12.545  0.0784  0.5056 -0.1420
   53DOPE   O14 6721   7.117   7.435  12.604  0.1198 -0.6688  0.0789
   53DOPE   O11 6722   7.322   7.535  12.695  0.0296  0.0511  0.2655
   53DOPE   O12 6723   7.277   7.559  12.457 -0.5637  0.1207 -0.0095
   53DOPE    C1 6724   7.463   7.540  12.703 -0.1431  0.2442 -0.8388
   53DOPE    HA 6725   7.488   7.640  12.743 -1.6830  1.0171 -1.6930
   53DOPE    HB 6726   7.518   7.536  12.607 -0.3534  3.0975 -1.1616
   53DOPE    C2 6727   7.511   7.439  12.803 -0.7855 -0.3373 -0.1233
   53DOPE    HS 6728   7.495   7.340  12.756 -0.3892 -0.3901 -0.1538
   53DOPE   O21 6729   7.444   7.458  12.931 -0.0140 -0.0936  0.3617
   53DOPE   C21 6730   7.393   7.339  12.975 -0.1727 -0.1433 -0.3944
   53DOPE   O22 6731   7.394   7.232  12.916 -0.0795 -0.2533  0.3312
   53DOPE   C22 6732   7.325   7.370  13.101  0.2276  0.5254 -0.3357
   53DOPE   H2R 6733   7.218   7.375  13.074  0.8118 -0.0873 -2.9850
   53DOPE   H2S 6734   7.349   7.470  13.143 -1.2785 -0.8428  4.4805
   53DOPE    C3 6735   7.667   7.453  12.824  0.3291  0.1619 -0.1079
   53DOPE    HX 6736   7.686   7.546  12.882  3.1384  0.9109 -2.0102
   53DOPE    HY 6737   7.722   7.447  12.728 -1.5869 -3.0173 -1.1643
   53DOPE   O31 6738   7.715   7.344  12.906 -0.1022  0.5367  0.5743
   53DOPE   C31 6739   7.734   7.228  12.839  0.0057  0.3596 -0.8336
   53DOPE   O32 6740   7.717   7.204  12.721 -0.7415  0.0073 -0.7598
   53DOPE   C32 6741   7.796   7.126  12.945  0.5126  0.0754 -0.2214
   53DOPE   H2X 6742   7.900   7.104  12.913  0.5796  1.0816 -0.7398
   53DOPE   H2Y 6743   7.793   7.166  13.049 -0.1035  1.4052 -0.7166
   53DOPE   C23 6744   7.357   7.272  13.220  0.5392  0.4240 -0.5810
   53DOPE   H3R 6745   7.462   7.284  13.255  0.1999  1.9776 -0.0311
   53DOPE   H3S 6746   7.341   7.164  13.198  0.1025 -0.1598  2.2198
   53DOPE   C24 6747   7.266   7.296  13.341 -0.1837  0.2966  0.2175
   53DOPE   H4R 6748   7.163   7.264  13.314  0.3885 -1.3993 -0.0445
   53DOPE   H4S 6749   7.259   7.406  13.355  0.1533  0.4187 -0.5104
   53DOPE   C25 6750   7.308   7.224  13.469  0.2960 -0.1809 -0.5123
   53DOPE   H5R 6751   7.417   7.221  13.490  0.1897 -0.6933  0.0037
   53DOPE   H5S 6752   7.274   7.120  13.449 -2.0017 -0.1101  2.3772
   53DOPE   C26 6753   7.234   7.256  13.604 -0.3043 -0.8391 -0.4219
   53DOPE   H6R 6754   7.255   7.170  13.671 -1.1721 -0.3896  0.4739
   53DOPE   H6S 6755   7.125   7.263  13.583 -0.4426 -0.1666  0.4558
   53DOPE   C27 6756   7.286   7.389  13.662 -0.4149  0.6526  0.1672
   53DOPE   H7R 6757   7.290   7.456  13.573  5.0266 -2.1670 -2.1744
   53DOPE   H7S 6758   7.392   7.377  13.692 -0.5727  1.5555  1.1539
   53DOPE   C28 6759   7.193   7.457  13.761  0.3175 -0.5682 -0.4067
   53DOPE   H8R 6760   7.094   7.481  13.718  0.4707  1.5943  0.2979
   53DOPE   H8S 6761   7.242   7.553  13.787 -0.9723 -0.1945  0.7588
   53DOPE   C29 6762   7.187   7.372  13.888 -0.1352  0.3392 -0.0713
   53DOPE   H9R 6763   7.280   7.313  13.894  0.0148  0.5216 -0.5021
   53DOPE  C210 6764   7.103   7.382  13.997 -0.0853 -0.1214 -0.4186
   53DOPE  H10R 6765   7.112   7.303  14.073 -1.1691 -0.0671 -0.2131
   53DOPE  C211 6766   6.986   7.475  13.997 -0.7841 -0.2504  0.2695
   53DOPE  H11R 6767   6.901   7.424  14.048 -1.0779  2.0351  2.2190
   53DOPE  H11S 6768   6.947   7.482  13.893  0.4979 -0.3959 -0.2326
   53DOPE  C212 6769   7.008   7.608  14.067 -0.2247 -0.8365  0.8189
   53DOPE  H12R 6770   6.921   7.678  14.070  0.5899  0.3635 -1.0214
   53DOPE  H12S 6771   7.100   7.654  14.025  0.9931 -2.2552  1.8812
   53DOPE  C213 6772   7.053   7.585  14.206  0.4487 -0.7017 -0.0879
   53DOPE  H13R 6773   7.140   7.517  14.216 -0.3772 -1.7158  0.3742
   53DOPE  H13S 6774   6.965   7.541  14.257  0.3686  0.7373  1.1169
   53DOPE  C214 6775   7.095   7.722  14.276 -0.0874 -0.7076 -0.2846
   53DOPE  H14R 6776   7.019   7.798  14.248 -1.1210 -1.7427 -0.3807
   53DOPE  H14S 6777   7.195   7.760  14.247 -0.0885 -0.0457  0.5395
   53DOPE  C215 6778   7.097   7.734  14.426  0.4856 -0.3938 -0.5487
   53DOPE  H15R 6779   6.996   7.732  14.472  1.5893  0.0157  2.0600
   53DOPE  H15S 6780   7.141   7.831  14.459 -1.8985  0.7447 -0.4777
   53DOPE  C216 6781   7.163   7.617  14.498  0.8402 -0.1423  0.6989
   53DOPE  H16R 6782   7.274   7.623  14.492  0.9009 -1.9803 -1.5548
   53DOPE  H16S 6783   7.123   7.534  14.435 -0.3649  0.1988  0.9948
   53DOPE  C217 6784   7.117   7.599  14.642 -0.2509  0.9594 -0.3197
   53DOPE  H17R 6785   7.010   7.568  14.646 -0.2230  0.8264 -0.5507
   53DOPE  H17S 6786   7.114   7.693  14.700 -0.3465  0.2480  0.8602
   53DOPE  C218 6787   7.193   7.487  14.711  0.6133 -1.8241  0.1068
   53DOPE  H18R 6788   7.304   7.492  14.702  0.5498 -0.2774 -0.0238
   53DOPE  H18S 6789   7.160   7.391  14.666  1.0706 -1.2915 -1.4146
   53DOPE  H18T 6790   7.165   7.489  14.819  0.9047  0.0517  0.1819
   53DOPE   C33 6791   7.727   6.985  12.938 -0.2823  0.0527  1.3268
   53DOPE   H3X 6792   7.732   6.950  12.832 -0.9059 -1.2669  1.7077
   53DOPE   H3Y 6793   7.618   6.981  12.955 -0.3811  0.9178  0.9536
   53DOPE   C34 6794   7.793   6.882  13.019  0.2557 -0.3577  0.4732
   53DOPE   H4X 6795   7.791   6.785  12.966 -1.2755  0.4956 -1.1413
   53DOPE   H4Y 6796   7.900   6.908  13.031  0.3962 -0.0251 -1.2741
   53DOPE   C35 6797   7.716   6.867  13.154  0.5444 -0.2868 -0.1738
   53DOPE   H5X 6798   7.609   6.854  13.131 -0.1103 -0.2057  2.5465
   53DOPE   H5Y 6799   7.713   6.962  13.212  0.0078 -0.7634  0.5905
   53DOPE   C36 6800   7.763   6.759  13.252  0.0115  0.2438 -0.3702
   53DOPE   H6X 6801   7.754   6.656  13.209 -1.4543 -0.4500  1.4238
   53DOPE   H6Y 6802   7.690   6.762  13.335 -0.4276  0.5727 -0.7615
   53DOPE   C37 6803   7.906   6.773  13.295 -0.2060 -0.3830 -0.0255
   53DOPE   H7X 6804   7.948   6.686  13.350 -0.4747 -0.5281 -0.0482
   53DOPE   H7Y 6805   7.962   6.787  13.200  0.8897  1.6281  0.8508
   53DOPE   C38 6806   7.925   6.895  13.387 -0.1368 -0.2735 -0.4710
   53DOPE   H8X 6807   7.886   6.985  13.334  0.4232  0.3439  0.1506
   53DOPE   H8Y 6808   8.034   6.913  13.394 -0.0238 -0.8458 -0.6784
   53DOPE   C39 6809   7.854   6.882  13.526 -0.1205  0.5309  0.5395
   53DOPE   H9X 6810   7.750   6.847  13.513 -0.0857  0.9480 -1.1316
   53DOPE  C310 6811   7.909   6.913  13.643 -0.2371 -0.2606  0.7695
   53DOPE  H10X 6812   7.842   6.920  13.730  0.2218  0.0770  1.1028
   53DOPE  C311 6813   8.043   6.961  13.675 -0.0577 -0.4096  0.0070
   53DOPE  H11X 6814   8.114   6.989  13.594  0.8236 -2.8989 -0.1727
   53DOPE  H11Y 6815   8.036   7.059  13.728  1.1936  0.5023 -1.4192
   53DOPE  C312 6816   8.118   6.881  13.777 -0.5656  0.4061 -0.4247
   53DOPE  H12X 6817   8.226   6.903  13.790 -0.8195  0.5534  1.8239
   53DOPE  H12Y 6818   8.130   6.774  13.750  0.1641 -0.0705  1.5849
   53DOPE  C313 6819   8.056   6.885  13.921 -0.1756  0.1766  0.2157
   53DOPE  H13X 6820   8.011   6.986  13.934 -0.8408 -0.4038  2.9947
   53DOPE  H13Y 6821   7.970   6.816  13.935 -1.6901  2.0512  0.5748
   53DOPE  C314 6822   8.163   6.865  14.025 -0.1944 -0.2113 -0.6243
   53DOPE  H14X 6823   8.229   6.954  14.020 -2.0908  1.3125  0.2085
   53DOPE  H14Y 6824   8.223   6.773  14.007  0.7675 -0.2916  2.4490
   53DOPE  C315 6825   8.115   6.864  14.174 -0.0492  0.4649 -0.4152
   53DOPE  H15X 6826   8.048   6.951  14.189  0.6611  1.0605 -0.6102
   53DOPE  H15Y 6827   8.208   6.872  14.234 -0.3882 -0.2405  0.2201
   53DOPE  C316 6828   8.052   6.741  14.228  0.4374 -0.2166  0.2256
   53DOPE  H16X 6829   8.114   6.652  14.202  2.7552  0.5184  2.7933
   53DOPE  H16Y 6830   7.949   6.732  14.186  0.5270 -1.3166  0.1988
   53DOPE  C317 6831   8.024   6.731  14.383  0.3628  0.8747  0.7406
   53DOPE  H17X 6832   8.122   6.755  14.432  0.9105  0.5021 -0.1456
   53DOPE  H17Y 6833   7.955   6.812  14.414 -3.2261 -0.6343 -2.4868
   53DOPE  C318 6834   7.974   6.599  14.429 -0.6633 -0.1483 -0.2554
   53DOPE  H18X 6835   7.884   6.573  14.370 -0.8247  1.5796 -0.8124
   53DOPE  H18Y 6836   8.048   6.517  14.422 -0.7111 -0.1446 -0.8761
   53DOPE  H18Z 6837   7.931   6.601  14.532 -0.6252 -3.0614 -0.0887
   54DOPE     N 6838   1.854   3.299  12.471  0.3131 -0.4752  0.0639
   54DOPE   HN1 6839   1.880   3.219  12.410  1.6235 -1.0815  1.3462
   54DOPE   HN2 6840   1.752   3.282  12.489 -0.1485  0.9168 -1.0510
   54DOPE   HN3 6841   1.871   3.387  12.419  1.5258 -0.7529 -0.0357
   54DOPE   C12 6842   1.935   3.296  12.595 -0.1737  0.2269  0.9830
   54DOPE  H12A 6843   1.930   3.384  12.662  3.5082  0.0533  1.7000
   54DOPE  H12B 6844   2.039   3.293  12.557 -0.9246  1.7671 -1.4403
   54DOPE   C11 6845   1.900   3.173  12.680  0.1563 -0.4227  0.1580
   54DOPE  H11A 6846   1.796   3.178  12.717 -0.7778 -0.0851 -2.2906
   54DOPE  H11B 6847   1.966   3.169  12.769 -0.8273 -1.0590  0.8830
   54DOPE     P 6848   2.029   2.948  12.586 -0.1601  0.3410 -0.0640
   54DOPE   O13 6849   2.165   3.015  12.575 -0.5447  0.4179  0.4456
   54DOPE   O14 6850   1.999   2.846  12.484 -0.2765 -0.3508  0.4062
   54DOPE   O11 6851   2.028   2.879  12.724  1.2784  0.0953  0.1984
   54DOPE   O12 6852   1.909   3.052  12.594  0.1103  0.1765 -0.4277
   54DOPE    C1 6853   1.916   2.832  12.790 -0.6122 -0.4716  0.0453
   54DOPE    HA 6854   1.868   2.744  12.741  0.4547  1.0930 -4.2301
   54DOPE    HB 6855   1.839   2.911  12.805 -1.1228 -1.3447  2.5350
   54DOPE    C2 6856   1.959   2.782  12.932 -0.7149 -0.2680  0.1074
   54DOPE    HS 6857   1.858   2.757  12.972 -1.7056  1.6793 -1.0056
   54DOPE   O21 6858   2.032   2.877  13.011  0.2202  0.3950 -0.1295
   54DOPE   C21 6859   1.962   2.986  13.039 -0.0506 -0.2485  0.5325
   54DOPE   O22 6860   1.843   2.988  13.056  0.0454  0.3891  0.2491
   54DOPE   C22 6861   2.051   3.111  13.029 -0.7982  0.8543  0.2755
   54DOPE   H2R 6862   2.090   3.114  12.925  0.7128  1.7404  0.8290
   54DOPE   H2S 6863   2.137   3.092  13.097 -0.1747  2.0844 -0.1377
   54DOPE    C3 6864   2.040   2.655  12.924 -0.2370 -0.7445 -0.2402
   54DOPE    HX 6865   2.138   2.679  12.878  0.6205 -1.5732  1.0960
   54DOPE    HY 6866   1.991   2.581  12.858 -1.3191 -2.5766  2.4344
   54DOPE   O31 6867   2.055   2.584  13.047  0.2572 -0.4157 -0.0120
   54DOPE   C31 6868   2.166   2.621  13.117 -0.6516 -0.3245  0.1350
   54DOPE   O32 6869   2.258   2.690  13.068  0.0647  1.1023  0.3701
   54DOPE   C32 6870   2.167   2.554  13.250 -0.2630  0.7002 -0.4117
   54DOPE   H2X 6871   2.181   2.632  13.328 -1.7745  1.1698 -0.5739
   54DOPE   H2Y 6872   2.069   2.509  13.277  2.0018 -3.2734  2.2770
   54DOPE   C23 6873   1.982   3.243  13.046  0.0156 -0.0902 -0.3943
   54DOPE   H3R 6874   1.967   3.235  13.156  0.2956 -3.0105 -0.4828
   54DOPE   H3S 6875   1.879   3.259  13.008  0.6097  0.5799 -1.7771
   54DOPE   C24 6876   2.080   3.352  13.001  0.8702  0.2940 -0.0350
   54DOPE   H4R 6877   2.105   3.335  12.894  0.8607  0.7264 -0.1067
   54DOPE   H4S 6878   2.175   3.339  13.058  1.2494 -0.3176 -0.7844
   54DOPE   C25 6879   2.025   3.497  13.008 -0.6669 -0.0394  0.4873
   54DOPE   H5R 6880   2.028   3.523  13.117 -1.1018  1.6284  0.1396
   54DOPE   H5S 6881   1.924   3.508  12.964 -0.0885 -1.1389 -1.2136
   54DOPE   C26 6882   2.118   3.596  12.934 -0.0153 -0.3117  0.1793
   54DOPE   H6R 6883   2.132   3.545  12.836 -0.1732  0.5504 -0.3008
   54DOPE   H6S 6884   2.222   3.594  12.974  0.5475  2.4872 -0.9320
   54DOPE   C27 6885   2.071   3.740  12.940  0.5896  0.3538 -0.2171
   54DOPE   H7R 6886   2.130   3.790  12.861 -1.3266  0.1419 -1.8499
   54DOPE   H7S 6887   2.100   3.777  13.041 -0.2362  2.2481 -0.6385
   54DOPE   C28 6888   1.923   3.766  12.902  0.1370 -0.0633 -0.4919
   54DOPE   H8R 6889   1.851   3.716  12.971  1.4057 -0.2799  0.7217
   54DOPE   H8S 6890   1.903   3.742  12.796 -0.5063  1.0482 -0.6413
   54DOPE   C29 6891   1.917   3.917  12.910 -0.4219 -0.1993  0.0452
   54DOPE   H9R 6892   1.979   3.968  12.835 -0.8038 -1.0042 -0.8301
   54DOPE  C210 6893   1.840   3.990  12.993 -0.1949  0.3653  0.6530
   54DOPE  H10R 6894   1.850   4.099  12.992  2.4397  0.2372  2.1185
   54DOPE  C211 6895   1.756   3.940  13.108 -0.0215 -0.0306  0.5589
   54DOPE  H11R 6896   1.772   4.012  13.192 -1.7119  1.5644 -0.4240
   54DOPE  H11S 6897   1.776   3.840  13.154 -1.2853  0.0413  1.3246
   54DOPE  C212 6898   1.615   3.938  13.074  0.4467 -0.1934  0.1444
   54DOPE  H12R 6899   1.585   3.856  13.005  1.4249 -2.5665  2.3531
   54DOPE  H12S 6900   1.578   4.035  13.034  1.4852 -1.0139 -3.1017
   54DOPE  C213 6901   1.526   3.902  13.196  0.5186 -1.3135 -0.2093
   54DOPE  H13R 6902   1.421   3.900  13.160  1.1085  0.8602 -2.3007
   54DOPE  H13S 6903   1.546   3.990  13.260  1.8894  0.3641 -2.7870
   54DOPE  C214 6904   1.567   3.776  13.268  0.6121  0.1694  0.5148
   54DOPE  H14R 6905   1.663   3.782  13.324 -1.0429 -0.3814  3.6528
   54DOPE  H14S 6906   1.567   3.697  13.190  0.6266  0.3818  0.2969
   54DOPE  C215 6907   1.466   3.718  13.370  0.0854 -0.2623  0.5679
   54DOPE  H15R 6908   1.510   3.628  13.418 -3.6618 -2.8047 -0.3680
   54DOPE  H15S 6909   1.371   3.690  13.321  0.4630 -1.3432  0.4416
   54DOPE  C216 6910   1.430   3.819  13.476 -0.2652 -0.4594  0.9099
   54DOPE  H16R 6911   1.368   3.897  13.427 -1.1405 -1.3961  0.4875
   54DOPE  H16S 6912   1.526   3.870  13.501 -0.3910  2.2777 -3.1044
   54DOPE  C217 6913   1.354   3.755  13.595 -0.6122 -0.9099  0.4248
   54DOPE  H17R 6914   1.357   3.832  13.675  1.2792 -1.6154  1.0888
   54DOPE  H17S 6915   1.419   3.669  13.622 -2.3083 -1.7611  2.0084
   54DOPE  C218 6916   1.217   3.700  13.576  0.2032 -0.3037 -0.0804
   54DOPE  H18R 6917   1.217   3.624  13.495  1.6103  0.6196 -0.9859
   54DOPE  H18S 6918   1.148   3.783  13.550  1.1603  0.8298  0.8691
   54DOPE  H18T 6919   1.183   3.649  13.668 -2.5111 -0.8349 -1.2789
   54DOPE   C33 6920   2.285   2.442  13.259  0.0897 -0.4797  0.3571
   54DOPE   H3X 6921   2.381   2.478  13.216 -0.7582  2.3571  0.7036
   54DOPE   H3Y 6922   2.232   2.362  13.203 -0.6802 -0.9088  1.6693
   54DOPE   C34 6923   2.311   2.398  13.398 -0.0095 -0.4078  0.5489
   54DOPE   H4X 6924   2.211   2.373  13.440 -0.9903  0.9353 -0.8814
   54DOPE   H4Y 6925   2.378   2.309  13.392 -2.4331 -2.2345 -1.4710
   54DOPE   C35 6926   2.394   2.501  13.469  0.0637 -0.9390  0.2233
   54DOPE   H5X 6927   2.342   2.598  13.486  0.3580 -0.5685 -0.8952
   54DOPE   H5Y 6928   2.485   2.530  13.413 -0.2424  2.3383  1.2149
   54DOPE   C36 6929   2.430   2.447  13.611 -0.1669  0.3811 -0.3684
   54DOPE   H6X 6930   2.491   2.527  13.660  1.6563  0.2005 -2.2076
   54DOPE   H6Y 6931   2.488   2.353  13.605 -0.7324  0.0234 -0.2838
   54DOPE   C37 6932   2.300   2.411  13.682  0.2479  0.2275 -0.0000
   54DOPE   H7X 6933   2.213   2.461  13.636  0.7624  0.8421 -0.3102
   54DOPE   H7Y 6934   2.278   2.304  13.662 -3.2190  1.2197 -2.3737
   54DOPE   C38 6935   2.303   2.431  13.833 -0.5655 -0.2044 -0.1275
   54DOPE   H8X 6936   2.199   2.450  13.868 -0.1673  1.4568  0.2611
   54DOPE   H8Y 6937   2.363   2.524  13.845  0.1185 -0.7811  1.1185
   54DOPE   C39 6938   2.379   2.336  13.931  0.5911 -0.4268 -0.0698
   54DOPE   H9X 6939   2.473   2.291  13.896  0.1897 -2.9176  1.8253
   54DOPE  C310 6940   2.342   2.327  14.063 -0.1324 -0.2413 -0.3038
   54DOPE  H10X 6941   2.400   2.262  14.129  0.7853  1.9957  1.2389
   54DOPE  C311 6942   2.230   2.400  14.133  0.0972 -0.5922 -0.4969
   54DOPE  H11X 6943   2.164   2.452  14.060 -1.1113  0.7881  1.4691
   54DOPE  H11Y 6944   2.163   2.327  14.184  0.3712 -0.4881  0.0162
   54DOPE  C312 6945   2.284   2.493  14.244 -0.0453 -0.5123  0.1408
   54DOPE  H12X 6946   2.194   2.552  14.270 -0.3651 -0.1256 -1.6843
   54DOPE  H12Y 6947   2.359   2.566  14.206 -0.6598  0.1425  0.1652
   54DOPE  C313 6948   2.335   2.405  14.360 -0.0138 -0.8835  0.1794
   54DOPE  H13X 6949   2.269   2.320  14.385  1.2272 -1.3301  2.0954
   54DOPE  H13Y 6950   2.432   2.359  14.333  0.5543  0.8942 -0.9984
   54DOPE  C314 6951   2.356   2.498  14.479 -0.8331 -0.0843 -0.0373
   54DOPE  H14X 6952   2.261   2.534  14.524 -0.2757  0.5854  0.6193
   54DOPE  H14Y 6953   2.418   2.585  14.448  0.5302 -0.5796  1.1893
   54DOPE  C315 6954   2.444   2.431  14.585 -0.2455 -0.1909  0.1980
   54DOPE  H15X 6955   2.471   2.498  14.670  3.9100 -3.0390  1.4028
   54DOPE  H15Y 6956   2.542   2.400  14.544 -0.0204 -1.6031  1.7151
   54DOPE  C316 6957   2.387   2.307  14.658  0.5557 -0.2699 -0.0683
   54DOPE  H16X 6958   2.456   2.265  14.734 -2.1591 -1.6689  1.8218
   54DOPE  H16Y 6959   2.372   2.222  14.589 -2.0148  1.7496 -2.2335
   54DOPE  C317 6960   2.236   2.320  14.714 -1.2068 -0.5072 -0.1918
   54DOPE  H17X 6961   2.176   2.356  14.628 -1.0169 -1.6555 -0.8286
   54DOPE  H17Y 6962   2.195   2.223  14.751  1.2557 -1.1693  1.0731
   54DOPE  C318 6963   2.221   2.433  14.825  0.6389  0.6828  0.3454
   54DOPE  H18X 6964   2.115   2.438  14.857  0.4634  2.2837 -0.3866
   54DOPE  H18Y 6965   2.283   2.402  14.912  1.0469  0.7029  0.0626
   54DOPE  H18Z 6966   2.249   2.531  14.782  0.2397  1.6206  2.1071
   55DOPE     N 6967   0.605   5.027  12.371  0.6917 -0.1781  0.0285
   55DOPE   HN1 6968   0.518   4.996  12.419  0.9182 -0.6539  0.1422
   55DOPE   HN2 6969   0.582   5.011  12.271 -1.4547 -0.7946  0.5597
   55DOPE   HN3 6970   0.676   4.954  12.392  0.5069  0.2557  2.4791
   55DOPE   C12 6971   0.641   5.171  12.387 -0.1995  0.0476 -0.0634
   55DOPE  H12A 6972   0.628   5.196  12.494 -2.6564 -0.7088 -0.1073
   55DOPE  H12B 6973   0.573   5.237  12.329  0.3626 -0.7052 -1.6348
   55DOPE   C11 6974   0.785   5.198  12.346  0.5617 -0.9006 -0.3424
   55DOPE  H11A 6975   0.807   5.302  12.377 -0.4313  0.0722 -2.6746
   55DOPE  H11B 6976   0.786   5.194  12.235 -1.4584  0.5356 -0.4479
   55DOPE     P 6977   1.026   5.129  12.407 -0.0461 -0.2534 -0.1588
   55DOPE   O13 6978   1.051   5.258  12.485 -0.1739  0.1879  0.8787
   55DOPE   O14 6979   1.089   5.112  12.275  0.0315  0.2253  0.1547
   55DOPE   O11 6980   1.075   5.011  12.504 -0.3445  0.0172 -0.0292
   55DOPE   O12 6981   0.867   5.102  12.399 -0.1260 -0.4349  0.0888
   55DOPE    C1 6982   1.015   4.984  12.625  0.3448  0.2022  0.2540
   55DOPE    HA 6983   0.994   4.875  12.634 -1.7922  0.5138 -0.3430
   55DOPE    HB 6984   0.923   5.043  12.646  0.7604  1.2673 -0.8478
   55DOPE    C2 6985   1.110   5.015  12.734 -0.0051  0.4029 -0.3539
   55DOPE    HS 6986   1.150   5.117  12.715 -1.0214  0.5821 -1.6112
   55DOPE   O21 6987   1.216   4.913  12.739 -0.0597 -0.7237  0.5755
   55DOPE   C21 6988   1.337   4.953  12.747  0.0176  0.5574  0.3047
   55DOPE   O22 6989   1.386   5.070  12.742  0.3625  0.6060  0.2948
   55DOPE   C22 6990   1.429   4.834  12.768  0.2837  0.3111  0.0100
   55DOPE   H2R 6991   1.392   4.765  12.690 -3.4878  1.2163  0.8008
   55DOPE   H2S 6992   1.404   4.786  12.865  0.6212 -1.6917 -0.8425
   55DOPE    C3 6993   1.037   5.029  12.878 -0.3008  0.6266  0.4917
   55DOPE    HX 6994   0.978   4.936  12.889 -0.1763  0.2347 -1.6047
   55DOPE    HY 6995   0.955   5.103  12.865  0.9300  2.0407  0.5692
   55DOPE   O31 6996   1.134   5.058  12.986  0.1210  0.2798  0.4687
   55DOPE   C31 6997   1.124   5.178  13.031  0.0797  0.1002  0.8751
   55DOPE   O32 6998   1.028   5.256  13.009  0.1589 -0.1894 -0.4566
   55DOPE   C32 6999   1.247   5.212  13.119 -0.2973 -0.0853 -1.1114
   55DOPE   H2X 7000   1.216   5.297  13.183 -1.1334 -0.9590 -0.3280
   55DOPE   H2Y 7001   1.252   5.121  13.183 -0.3445  0.4566 -0.3299
   55DOPE   C23 7002   1.580   4.860  12.763  0.0276  0.0018 -1.0954
   55DOPE   H3R 7003   1.606   4.945  12.697 -1.1859  1.0219 -0.2978
   55DOPE   H3S 7004   1.631   4.767  12.730  0.7528 -0.0490  0.0940
   55DOPE   C24 7005   1.621   4.885  12.911 -0.1197 -0.0013 -0.6756
   55DOPE   H4R 7006   1.590   4.806  12.983  0.0274  1.7355  1.3996
   55DOPE   H4S 7007   1.569   4.978  12.942 -0.6297 -0.6505  0.5101
   55DOPE   C25 7008   1.775   4.914  12.925 -0.2849 -0.7475 -0.8782
   55DOPE   H5R 7009   1.795   5.024  12.927  1.3353 -0.9853  2.5143
   55DOPE   H5S 7010   1.828   4.864  12.841  0.2681 -1.8342  0.0898
   55DOPE   C26 7011   1.834   4.871  13.062 -0.2124 -0.1043 -0.5522
   55DOPE   H6R 7012   1.763   4.897  13.143  2.6545 -0.1115  2.1732
   55DOPE   H6S 7013   1.932   4.922  13.079 -0.5818  0.8287 -1.1886
   55DOPE   C27 7014   1.878   4.723  13.078 -0.5606 -0.7881 -0.1228
   55DOPE   H7R 7015   1.982   4.704  13.043 -0.7884  1.4655 -2.2977
   55DOPE   H7S 7016   1.825   4.662  13.001 -1.7273  1.2393 -0.9941
   55DOPE   C28 7017   1.852   4.671  13.214 -0.0780 -0.2463 -0.1606
   55DOPE   H8R 7018   1.751   4.694  13.254  0.0732  1.8853 -0.8461
   55DOPE   H8S 7019   1.916   4.717  13.293  0.1833 -0.3747 -0.2957
   55DOPE   C29 7020   1.873   4.523  13.225 -0.7179 -0.1620  0.1832
   55DOPE   H9R 7021   1.946   4.486  13.152 -0.3444 -0.1048  0.5222
   55DOPE  C210 7022   1.820   4.433  13.309 -0.3885  0.3774 -0.2478
   55DOPE  H10R 7023   1.826   4.326  13.286 -0.7715  0.5638 -1.2308
   55DOPE  C211 7024   1.715   4.470  13.408  0.0239 -0.3694  0.6520
   55DOPE  H11R 7025   1.625   4.406  13.392 -1.1238  1.6476 -1.8052
   55DOPE  H11S 7026   1.664   4.568  13.392 -0.4934 -0.3122  2.4159
   55DOPE  C212 7027   1.756   4.472  13.558  0.7634 -0.0145 -0.1655
   55DOPE  H12R 7028   1.671   4.485  13.629 -0.3858 -4.6689 -0.3789
   55DOPE  H12S 7029   1.831   4.552  13.574 -0.3311  1.1665 -0.7459
   55DOPE  C213 7030   1.815   4.334  13.589 -0.1706  0.1721  0.6096
   55DOPE  H13R 7031   1.893   4.351  13.666 -0.2868 -0.3187  0.8369
   55DOPE  H13S 7032   1.876   4.293  13.506 -0.4983  0.6692  0.1135
   55DOPE  C214 7033   1.719   4.221  13.624 -0.6476  0.0164 -0.0841
   55DOPE  H14R 7034   1.651   4.209  13.536 -1.0620  0.1253  0.2173
   55DOPE  H14S 7035   1.653   4.261  13.704 -1.4216 -0.9438 -0.2107
   55DOPE  C215 7036   1.781   4.084  13.653 -0.3534 -0.0506  0.0753
   55DOPE  H15R 7037   1.708   4.013  13.697  0.1867 -0.1283  0.8584
   55DOPE  H15S 7038   1.860   4.099  13.729  2.5863 -2.4024 -2.2503
   55DOPE  C216 7039   1.837   4.009  13.527  0.4388  0.4315 -0.4977
   55DOPE  H16R 7040   1.896   4.081  13.466  3.3282 -1.0734  0.3555
   55DOPE  H16S 7041   1.743   3.984  13.473  0.3496  1.2201 -0.7228
   55DOPE  C217 7042   1.910   3.881  13.563 -0.5397  0.4000 -0.4099
   55DOPE  H17R 7043   1.992   3.895  13.637  0.4904 -3.5378 -0.5756
   55DOPE  H17S 7044   1.965   3.842  13.475  1.6766 -1.0283  1.4893
   55DOPE  C218 7045   1.811   3.770  13.609  0.2545  0.3940  0.6132
   55DOPE  H18R 7046   1.872   3.681  13.637  0.5189  0.5448  0.5237
   55DOPE  H18S 7047   1.742   3.749  13.524  1.3776 -1.0156 -0.0047
   55DOPE  H18T 7048   1.756   3.775  13.705  1.6185 -0.6060  1.4879
   55DOPE   C33 7049   1.372   5.220  13.036 -0.5411  0.1947  0.2203
   55DOPE   H3X 7050   1.373   5.307  12.967  3.1087 -0.2849 -0.5142
   55DOPE   H3Y 7051   1.384   5.127  12.976 -0.9470  1.3071 -1.6803
   55DOPE   C34 7052   1.497   5.232  13.130 -0.1240  0.2744  0.3197
   55DOPE   H4X 7053   1.587   5.260  13.071  0.7431 -1.6071  0.6836
   55DOPE   H4Y 7054   1.479   5.313  13.204  1.4618  0.5949  0.3857
   55DOPE   C35 7055   1.534   5.110  13.212  0.3525  0.2478 -0.3478
   55DOPE   H5X 7056   1.552   5.025  13.143  0.5405 -0.9816  1.1461
   55DOPE   H5Y 7057   1.452   5.070  13.276 -0.5569  2.7057  0.1252
   55DOPE   C36 7058   1.660   5.124  13.301 -0.2482 -0.0178  0.3581
   55DOPE   H6X 7059   1.753   5.145  13.246  1.1751  0.0950  2.6596
   55DOPE   H6Y 7060   1.673   5.026  13.353  2.5079 -1.0554 -2.0401
   55DOPE   C37 7061   1.643   5.244  13.397  0.7384  0.7978  0.4096
   55DOPE   H7X 7062   1.648   5.340  13.341 -2.3820  0.7933 -0.0490
   55DOPE   H7Y 7063   1.538   5.229  13.431 -0.3496 -0.2527 -2.9446
   55DOPE   C38 7064   1.752   5.237  13.502  0.3390 -0.0981  0.7303
   55DOPE   H8X 7065   1.847   5.244  13.444 -0.0694 -0.2532  0.0397
   55DOPE   H8Y 7066   1.745   5.131  13.535 -0.4820 -0.6163 -1.0186
   55DOPE   C39 7067   1.741   5.345  13.599  0.3831 -0.9802  0.3556
   55DOPE   H9X 7068   1.781   5.440  13.562  0.5751 -1.8064 -1.7237
   55DOPE  C310 7069   1.688   5.333  13.723  0.1813  0.2006 -0.3271
   55DOPE  H10X 7070   1.673   5.426  13.779  0.6622  0.8941 -1.3189
   55DOPE  C311 7071   1.603   5.214  13.766  0.4856 -0.1385 -1.0609
   55DOPE  H11X 7072   1.551   5.160  13.683 -1.3122 -1.2274  0.6743
   55DOPE  H11Y 7073   1.673   5.146  13.819  0.3024  0.7086  0.3362
   55DOPE  C312 7074   1.488   5.252  13.862  0.2782  0.0907 -0.0693
   55DOPE  H12X 7075   1.435   5.158  13.892 -0.0106 -0.0221 -0.9193
   55DOPE  H12Y 7076   1.415   5.315  13.807  1.9315  0.2206 -2.2223
   55DOPE  C313 7077   1.535   5.302  13.995  0.4925 -0.2344 -0.8409
   55DOPE  H13X 7078   1.578   5.213  14.046  1.8631 -0.5956 -2.5411
   55DOPE  H13Y 7079   1.610   5.383  13.992  1.0417 -0.7399 -0.8050
   55DOPE  C314 7080   1.409   5.358  14.065  0.1042  0.3016  0.3974
   55DOPE  H14X 7081   1.331   5.278  14.065  0.6832 -0.2721  0.2291
   55DOPE  H14Y 7082   1.363   5.444  14.011 -2.0077 -1.2149 -0.3834
   55DOPE  C315 7083   1.441   5.402  14.208  0.4649 -0.8198 -0.5188
   55DOPE  H15X 7084   1.356   5.451  14.261  1.1055 -1.8859  1.6029
   55DOPE  H15Y 7085   1.524   5.475  14.204 -1.6811  2.1329  2.8045
   55DOPE  C316 7086   1.482   5.281  14.298  0.1721  0.1659  0.3840
   55DOPE  H16X 7087   1.548   5.205  14.253 -0.8156 -0.3729 -0.1820
   55DOPE  H16Y 7088   1.394   5.219  14.327 -1.0531  0.2023 -2.9144
   55DOPE  C317 7089   1.564   5.339  14.411 -0.3243  0.1403 -0.4452
   55DOPE  H17X 7090   1.665   5.355  14.368  0.7157 -2.4028  0.7979
   55DOPE  H17Y 7091   1.528   5.440  14.439 -0.4021  0.2278 -0.8670
   55DOPE  C318 7092   1.579   5.245  14.534 -0.3171  0.1542  0.2770
   55DOPE  H18X 7093   1.608   5.296  14.628  1.3170  0.9805 -0.6356
   55DOPE  H18Y 7094   1.479   5.197  14.545  0.2495 -0.5353  3.1279
   55DOPE  H18Z 7095   1.661   5.174  14.508 -0.4207 -0.1802  0.8447
   56DOPE     N 7096   1.007   6.635  12.466 -0.2508 -0.2068  0.0100
   56DOPE   HN1 7097   0.917   6.677  12.437  0.0604  1.3187  1.1389
   56DOPE   HN2 7098   1.021   6.628  12.569  0.1744  0.1872 -0.0175
   56DOPE   HN3 7099   1.087   6.694  12.435 -0.3514 -0.3835 -0.6029
   56DOPE   C12 7100   1.027   6.494  12.408  0.3173 -1.0079 -0.4433
   56DOPE  H12A 7101   1.015   6.506  12.298 -0.4697  0.7613 -0.1978
   56DOPE  H12B 7102   0.943   6.428  12.440  1.1427 -2.1133 -0.5117
   56DOPE   C11 7103   1.165   6.439  12.447  0.3975 -0.2866  0.4067
   56DOPE  H11A 7104   1.186   6.335  12.413 -2.5507 -1.6196  2.2539
   56DOPE  H11B 7105   1.158   6.433  12.558  0.3219  0.7757  0.4684
   56DOPE     P 7106   1.389   6.506  12.321  0.3332 -0.4588 -0.0638
   56DOPE   O13 7107   1.503   6.601  12.348 -0.2950  0.2071  0.1017
   56DOPE   O14 7108   1.320   6.506  12.192  0.1651 -0.4671  0.3246
   56DOPE   O11 7109   1.427   6.358  12.354 -0.2682  0.8454 -0.6974
   56DOPE   O12 7110   1.271   6.532  12.420 -0.5930 -0.1743 -0.7829
   56DOPE    C1 7111   1.530   6.332  12.451 -0.1696  0.0879 -0.0510
   56DOPE    HA 7112   1.625   6.387  12.437  1.0454 -1.8228  0.3327
   56DOPE    HB 7113   1.553   6.223  12.453 -0.5027 -0.1725 -3.6807
   56DOPE    C2 7114   1.488   6.371  12.599  0.5761 -0.0359 -0.0450
   56DOPE    HS 7115   1.379   6.351  12.610  0.4309  0.2628 -0.8677
   56DOPE   O21 7116   1.517   6.507  12.623  0.4589 -0.3013  0.2162
   56DOPE   C21 7117   1.436   6.564  12.703  0.8227 -0.7484  0.0786
   56DOPE   O22 7118   1.346   6.510  12.766  0.5197  0.0099 -0.1541
   56DOPE   C22 7119   1.455   6.713  12.703  0.2708 -0.2102  0.3263
   56DOPE   H2R 7120   1.363   6.769  12.730  1.4185  1.4960  0.8719
   56DOPE   H2S 7121   1.482   6.746  12.600 -0.9505 -0.3306 -0.0492
   56DOPE    C3 7122   1.566   6.281  12.702 -0.2001 -0.1779  0.5050
   56DOPE    HX 7123   1.672   6.312  12.692 -0.6811  1.1588 -0.8490
   56DOPE    HY 7124   1.555   6.174  12.672 -1.7172 -0.4297  1.8245
   56DOPE   O31 7125   1.534   6.290  12.845 -0.2049  0.6018  0.0998
   56DOPE   C31 7126   1.413   6.239  12.876 -0.5625 -1.0087  0.0651
   56DOPE   O32 7127   1.343   6.172  12.801  0.2360 -0.0378  0.2697
   56DOPE   C32 7128   1.367   6.278  13.017 -0.2427  0.3335  0.3931
   56DOPE   H2X 7129   1.399   6.384  13.022  0.2855  0.3203 -1.8210
   56DOPE   H2Y 7130   1.256   6.272  13.025 -0.3679 -0.5113 -1.4570
   56DOPE   C23 7131   1.564   6.767  12.798 -0.2637 -0.1839 -0.0869
   56DOPE   H3R 7132   1.555   6.878  12.799  0.0764 -0.0627  3.7466
   56DOPE   H3S 7133   1.660   6.738  12.748  0.1220  0.7658  0.0837
   56DOPE   C24 7134   1.550   6.719  12.943  0.1064  0.1536 -0.3353
   56DOPE   H4R 7135   1.642   6.657  12.953  0.2894  0.0386 -2.2745
   56DOPE   H4S 7136   1.472   6.643  12.968  0.8479 -0.4674  0.1390
   56DOPE   C25 7137   1.548   6.827  13.051  0.4249 -0.8039  0.6389
   56DOPE   H5R 7138   1.448   6.875  13.055  0.3881 -0.8845  0.7038
   56DOPE   H5S 7139   1.615   6.912  13.029 -0.4466 -0.0927  0.6768
   56DOPE   C26 7140   1.587   6.780  13.188 -0.1203  0.3491 -0.2030
   56DOPE   H6R 7141   1.589   6.865  13.260  0.9290 -1.5992  2.2075
   56DOPE   H6S 7142   1.693   6.746  13.193  0.4733  2.2467  2.1589
   56DOPE   C27 7143   1.500   6.681  13.259 -0.5859  0.3832 -0.2019
   56DOPE   H7R 7144   1.495   6.599  13.185 -1.1746 -0.4700  0.7623
   56DOPE   H7S 7145   1.394   6.713  13.268 -0.8298 -0.4376 -0.0334
   56DOPE   C28 7146   1.551   6.615  13.388  0.0154  0.0466 -0.1378
   56DOPE   H8R 7147   1.653   6.575  13.372 -0.1341  0.4603 -2.6684
   56DOPE   H8S 7148   1.491   6.526  13.415  2.9267 -2.6244 -1.8207
   56DOPE   C29 7149   1.564   6.719  13.496  0.1548 -0.0318  0.4104
   56DOPE   H9R 7150   1.666   6.739  13.534 -0.0984  1.1684  0.5081
   56DOPE  C210 7151   1.466   6.779  13.570 -0.1105  0.1390  0.6807
   56DOPE  H10R 7152   1.481   6.859  13.644 -2.2673  0.1818  1.1509
   56DOPE  C211 7153   1.323   6.739  13.546 -0.2562 -0.0132 -0.5835
   56DOPE  H11R 7154   1.317   6.644  13.603 -1.5568  1.0773  1.1842
   56DOPE  H11S 7155   1.302   6.739  13.436  1.2134  1.3922 -0.9018
   56DOPE  C212 7156   1.228   6.840  13.616 -0.1867 -0.0714 -0.1333
   56DOPE  H12R 7157   1.124   6.805  13.600 -0.1641 -0.8897  1.3731
   56DOPE  H12S 7158   1.238   6.940  13.569  2.2407 -1.6139 -3.2658
   56DOPE  C213 7159   1.229   6.858  13.774 -0.1268  0.4940 -0.0822
   56DOPE  H13R 7160   1.328   6.893  13.809  0.4811 -1.2499  0.0319
   56DOPE  H13S 7161   1.211   6.754  13.810  1.2602 -0.3517 -1.6983
   56DOPE  C214 7162   1.108   6.943  13.812 -0.6885  0.2043 -0.5394
   56DOPE  H14R 7163   1.013   6.899  13.775 -1.3590 -1.3399  2.7003
   56DOPE  H14S 7164   1.130   7.039  13.759  0.6413  2.3072  3.4311
   56DOPE  C215 7165   1.090   6.962  13.966  0.8992 -0.0316  0.0377
   56DOPE  H15R 7166   1.073   6.861  14.010 -1.9043  0.0348 -0.7201
   56DOPE  H15S 7167   1.003   7.030  13.974  0.9840  0.0213  0.5427
   56DOPE  C216 7168   1.216   7.011  14.040  0.9322 -0.5429  0.1782
   56DOPE  H16R 7169   1.264   7.093  13.982  4.6312 -1.9848  0.9415
   56DOPE  H16S 7170   1.292   6.931  14.033 -1.4286 -2.7622 -2.9423
   56DOPE  C217 7171   1.192   7.046  14.189  0.4942 -0.1036 -0.4805
   56DOPE  H17R 7172   1.283   7.084  14.239 -0.1226 -1.9673  2.3084
   56DOPE  H17S 7173   1.180   6.958  14.255 -2.1872  0.9237  0.5323
   56DOPE  C218 7174   1.084   7.160  14.204  0.2123 -0.4057  0.3261
   56DOPE  H18R 7175   1.117   7.243  14.139 -0.2730 -3.0833 -3.6898
   56DOPE  H18S 7176   1.081   7.197  14.309 -0.2060 -1.0844  0.5640
   56DOPE  H18T 7177   0.978   7.130  14.190 -0.0071 -0.0775  1.1860
   56DOPE   C33 7178   1.438   6.190  13.120 -0.0464  0.2290 -0.3283
   56DOPE   H3X 7179   1.542   6.180  13.083  0.0601  2.8559 -0.9136
   56DOPE   H3Y 7180   1.398   6.087  13.133  1.9371 -0.7683 -1.4972
   56DOPE   C34 7181   1.461   6.261  13.254  0.2758  0.1811 -0.1874
   56DOPE   H4X 7182   1.569   6.289  13.248  0.1272  0.5539 -1.5118
   56DOPE   H4Y 7183   1.388   6.343  13.268  0.5440  0.3621  0.1748
   56DOPE   C35 7184   1.438   6.164  13.376 -0.4463  0.2508 -0.0592
   56DOPE   H5X 7185   1.496   6.077  13.338  1.3385  1.5896 -0.5313
   56DOPE   H5Y 7186   1.332   6.139  13.397 -0.4672  0.5390  0.1886
   56DOPE   C36 7187   1.504   6.207  13.504  0.1042 -0.1203  0.8873
   56DOPE   H6X 7188   1.594   6.258  13.463 -0.3372 -0.0875 -0.0661
   56DOPE   H6Y 7189   1.524   6.115  13.562 -0.0259 -1.1873 -0.7000
   56DOPE   C37 7190   1.424   6.303  13.596 -0.0020  0.4947  0.0127
   56DOPE   H7X 7191   1.359   6.367  13.533  1.7636  2.2056 -0.1428
   56DOPE   H7Y 7192   1.355   6.232  13.648  0.8438 -0.8124 -0.5946
   56DOPE   C38 7193   1.528   6.373  13.680 -0.1921 -0.7227 -0.0416
   56DOPE   H8X 7194   1.532   6.478  13.643  0.4835 -1.2287 -1.4853
   56DOPE   H8Y 7195   1.628   6.325  13.675  0.2787  0.0975  1.0461
   56DOPE   C39 7196   1.482   6.400  13.822  0.7355  0.2665 -0.0209
   56DOPE   H9X 7197   1.403   6.473  13.841  1.3605  0.9112  0.1453
   56DOPE  C310 7198   1.534   6.334  13.927  0.4640 -0.1095 -0.7718
   56DOPE  H10X 7199   1.505   6.370  14.028  1.6998  0.8275 -0.7258
   56DOPE  C311 7200   1.649   6.234  13.932 -1.1068 -1.2270  0.0809
   56DOPE  H11X 7201   1.715   6.234  13.843  1.1068  0.3049  1.5818
   56DOPE  H11Y 7202   1.711   6.268  14.018 -0.3624  0.9208 -1.2250
   56DOPE  C312 7203   1.597   6.092  13.948  0.3243 -0.3209 -0.2438
   56DOPE  H12X 7204   1.521   6.072  13.869 -0.6030  0.2661  0.4885
   56DOPE  H12Y 7205   1.540   6.078  14.042 -1.8987 -1.5628 -1.6776
   56DOPE  C313 7206   1.694   5.980  13.913  0.1735 -0.1298 -0.0805
   56DOPE  H13X 7207   1.626   5.893  13.920  0.6453 -0.5050 -0.1774
   56DOPE  H13Y 7208   1.723   5.993  13.807 -1.3452 -2.0960 -0.7982
   56DOPE  C314 7209   1.812   5.961  14.010  0.6621  0.2675 -0.2192
   56DOPE  H14X 7210   1.776   5.951  14.114 -1.6994  0.9757 -0.8994
   56DOPE  H14Y 7211   1.865   6.058  14.020 -0.1311  0.6286  0.5871
   56DOPE  C315 7212   1.917   5.859  13.961 -0.3753 -0.4082 -0.5017
   56DOPE  H15X 7213   2.003   5.884  14.027  0.4044 -0.2020 -1.5698
   56DOPE  H15Y 7214   1.941   5.873  13.854 -2.7510 -1.6734 -1.2748
   56DOPE  C316 7215   1.883   5.713  13.990 -0.0017  0.4692  0.1452
   56DOPE  H16X 7216   1.948   5.639  13.939 -1.8755 -1.9448  1.0420
   56DOPE  H16Y 7217   1.780   5.681  13.961  0.0854  2.5628 -2.9935
   56DOPE  C317 7218   1.908   5.685  14.141  0.2138  0.6502  0.1641
   56DOPE  H17X 7219   2.013   5.700  14.175  1.0116 -0.7016 -1.5191
   56DOPE  H17Y 7220   1.831   5.744  14.193 -0.8089 -0.8495  0.4304
   56DOPE  C318 7221   1.886   5.538  14.181 -0.0921 -0.2236 -0.1681
   56DOPE  H18X 7222   1.913   5.519  14.287  1.2931  0.1778 -0.4322
   56DOPE  H18Y 7223   1.777   5.516  14.180 -0.2389  0.2231  2.1352
   56DOPE  H18Z 7224   1.950   5.481  14.110 -0.3658  1.5586 -1.9387
   57DOPE     N 7225   2.423   2.315  12.352  0.3860 -0.8058  0.0073
   57DOPE   HN1 7226   2.395   2.413  12.372  0.0813 -1.2710  2.1815
   57DOPE   HN2 7227   2.526   2.323  12.342  0.2229  1.1810 -0.4131
   57DOPE   HN3 7228   2.377   2.276  12.267 -0.6451 -0.3893  0.3543
   57DOPE   C12 7229   2.375   2.242  12.472 -0.3202  0.3432  0.3036
   57DOPE  H12A 7230   2.268   2.272  12.482 -0.4161  0.0988  0.0194
   57DOPE  H12B 7231   2.430   2.284  12.559 -0.0532  0.0717  0.2634
   57DOPE   C11 7232   2.382   2.093  12.461  0.3967  0.7971 -0.4632
   57DOPE  H11A 7233   2.354   2.037  12.553  0.1884  1.2020 -0.2783
   57DOPE  H11B 7234   2.481   2.066  12.419  0.2302  2.6962 -2.2137
   57DOPE     P 7235   2.265   1.919  12.298 -0.2322  0.2119 -0.3299
   57DOPE   O13 7236   2.357   1.828  12.370 -0.1026  0.4344 -0.0514
   57DOPE   O14 7237   2.268   1.929  12.149  0.1418 -0.4710 -0.5037
   57DOPE   O11 7238   2.119   1.882  12.345 -0.2472 -0.8393  0.2865
   57DOPE   O12 7239   2.291   2.067  12.359 -0.5468  0.6524 -0.1187
   57DOPE    C1 7240   2.035   1.983  12.394  0.6529 -0.2761 -0.3734
   57DOPE    HA 7241   1.931   1.949  12.379  0.9833 -0.7446 -1.7896
   57DOPE    HB 7242   2.046   2.082  12.345  0.4589 -1.4435 -2.9636
   57DOPE    C2 7243   2.050   1.993  12.548  0.1202 -0.5004  0.0329
   57DOPE    HS 7244   2.158   1.997  12.573 -0.0657 -0.9524  0.9446
   57DOPE   O21 7245   1.975   1.887  12.608  0.6768 -0.3610 -0.0095
   57DOPE   C21 7246   2.012   1.843  12.731  0.4348 -0.3062  0.3799
   57DOPE   O22 7247   2.113   1.880  12.787 -0.4619 -0.2637 -0.2937
   57DOPE   C22 7248   1.909   1.741  12.799  0.1483  0.2168  0.5169
   57DOPE   H2R 7249   1.881   1.666  12.721  2.5984 -1.2300  0.9232
   57DOPE   H2S 7250   1.820   1.803  12.826 -1.1626 -1.0764 -0.6250
   57DOPE    C3 7251   1.983   2.123  12.601 -0.0447  0.6995 -0.4493
   57DOPE    HX 7252   1.877   2.103  12.577 -0.7833  2.0344  1.5134
   57DOPE    HY 7253   2.017   2.217  12.552  1.8412  1.1509  1.5833
   57DOPE   O31 7254   1.995   2.143  12.744  0.4493  0.1658  0.2161
   57DOPE   C31 7255   2.094   2.218  12.787  0.1722  0.5284 -0.4394
   57DOPE   O32 7256   2.175   2.283  12.724 -0.1850  0.1347 -0.1062
   57DOPE   C32 7257   2.086   2.218  12.947 -0.2975 -0.2805  0.6662
   57DOPE   H2X 7258   2.177   2.168  12.986 -1.4445 -1.7324  1.6149
   57DOPE   H2Y 7259   2.079   2.328  12.964 -4.2028  0.1551 -2.3222
   57DOPE   C23 7260   1.946   1.672  12.933  0.0589 -0.5865  1.1156
   57DOPE   H3R 7261   2.051   1.643  12.914 -0.4450 -2.3337  0.8108
   57DOPE   H3S 7262   1.886   1.578  12.936  0.1156 -0.6209  1.1804
   57DOPE   C24 7263   1.920   1.750  13.058  0.5463  0.1664 -0.0036
   57DOPE   H4R 7264   1.810   1.757  13.076  0.5706 -2.0046  1.4562
   57DOPE   H4S 7265   1.963   1.850  13.036 -2.3236  1.4590 -0.2151
   57DOPE   C25 7266   1.973   1.686  13.189  0.5631  0.5107 -0.5133
   57DOPE   H5R 7267   1.940   1.748  13.275 -2.4214 -1.2899 -0.2190
   57DOPE   H5S 7268   2.083   1.683  13.172  0.6072 -0.1594 -0.1250
   57DOPE   C26 7269   1.930   1.544  13.216  1.0048  0.1977  0.3843
   57DOPE   H6R 7270   1.962   1.521  13.320 -0.5021 -0.1014  0.7985
   57DOPE   H6S 7271   1.974   1.466  13.150 -1.8145 -0.7900 -0.4883
   57DOPE   C27 7272   1.773   1.521  13.206 -0.2239 -0.2596 -0.0515
   57DOPE   H7R 7273   1.733   1.521  13.103 -1.4577  0.3300  0.4168
   57DOPE   H7S 7274   1.721   1.601  13.264 -0.8542 -1.0251  0.4486
   57DOPE   C28 7275   1.739   1.388  13.269 -0.0363  0.2241  0.4289
   57DOPE   H8R 7276   1.789   1.393  13.367 -0.1863 -1.4926  0.6310
   57DOPE   H8S 7277   1.801   1.310  13.220  0.8118 -0.5699  2.6681
   57DOPE   C29 7278   1.588   1.367  13.266 -0.8763  0.3064 -0.4047
   57DOPE   H9R 7279   1.537   1.410  13.353  3.0605 -1.0708  2.9052
   57DOPE  C210 7280   1.520   1.274  13.199  0.4175  0.5271  0.4214
   57DOPE  H10R 7281   1.411   1.274  13.214  0.3435  0.4961 -0.0859
   57DOPE  C211 7282   1.565   1.182  13.087 -0.1305  0.7384  0.2741
   57DOPE  H11R 7283   1.674   1.185  13.067 -0.3178 -0.4503 -1.0961
   57DOPE  H11S 7284   1.523   1.203  12.987  0.9126  4.2000  0.4293
   57DOPE  C212 7285   1.539   1.036  13.116  0.1382  0.3297 -0.6360
   57DOPE  H12R 7286   1.597   1.005  13.205 -2.8801 -1.1730  0.9931
   57DOPE  H12S 7287   1.575   0.974  13.031  0.1773 -0.4062 -0.0909
   57DOPE  C213 7288   1.390   1.004  13.138  0.1727 -0.3009 -0.3760
   57DOPE  H13R 7289   1.321   1.059  13.070 -0.0216 -0.5822 -0.4059
   57DOPE  H13S 7290   1.361   1.045  13.238 -0.4045 -0.4954 -0.4564
   57DOPE  C214 7291   1.356   0.856  13.149  0.4945 -0.3254  0.2331
   57DOPE  H14R 7292   1.264   0.826  13.203 -1.2831 -0.7075 -2.7901
   57DOPE  H14S 7293   1.441   0.814  13.207  0.6378 -1.7734 -0.9593
   57DOPE  C215 7294   1.363   0.785  13.013 -0.3323  0.4585  0.1538
   57DOPE  H15R 7295   1.454   0.811  12.955 -1.8075  1.8755 -1.6615
   57DOPE  H15S 7296   1.280   0.825  12.951  0.0000  1.3004  0.2301
   57DOPE  C216 7297   1.346   0.627  13.036 -0.5565  0.1802 -0.2610
   57DOPE  H16R 7298   1.289   0.603  13.128  2.7709 -1.1116  1.6482
   57DOPE  H16S 7299   1.451   0.595  13.057 -1.0420 -1.6760 -0.5031
   57DOPE  C217 7300   1.301   0.544  12.914  0.0935 -0.3273 -0.1239
   57DOPE  H17R 7301   1.318   0.435  12.931  4.1675  0.2895  0.5489
   57DOPE  H17S 7302   1.355   0.583  12.826 -0.5811 -1.1004 -0.9024
   57DOPE  C218 7303   1.156   0.571  12.892 -0.2437  0.7974 -0.4541
   57DOPE  H18R 7304   1.137   0.524  12.794  1.8759 -0.7857 -0.1664
   57DOPE  H18S 7305   1.128   0.678  12.901  1.4644  1.3994 -1.8179
   57DOPE  H18T 7306   1.091   0.526  12.970  1.4603 -1.7373 -0.3731
   57DOPE   C33 7307   1.953   2.153  12.990 -0.0064 -0.2347 -0.8821
   57DOPE   H3X 7308   1.948   2.048  12.955 -2.6094 -0.7136  0.6701
   57DOPE   H3Y 7309   1.863   2.195  12.941 -0.0792 -0.9731 -1.3830
   57DOPE   C34 7310   1.923   2.149  13.141  0.1595  0.1682  0.7702
   57DOPE   H4X 7311   1.892   2.251  13.172 -2.0403 -0.0830 -0.3807
   57DOPE   H4Y 7312   1.828   2.092  13.145 -0.1624  0.7218  1.2487
   57DOPE   C35 7313   2.021   2.083  13.233  0.0017 -0.5746  0.3600
   57DOPE   H5X 7314   2.119   2.135  13.235  0.4313 -1.3754  1.0817
   57DOPE   H5Y 7315   2.044   1.977  13.206  0.7530 -0.1893 -0.5843
   57DOPE   C36 7316   1.957   2.088  13.371 -0.2552  0.1359 -0.5724
   57DOPE   H6X 7317   1.865   2.025  13.369 -0.0723 -0.1252 -1.6303
   57DOPE   H6Y 7318   1.941   2.190  13.410  1.4442  0.3056 -0.2273
   57DOPE   C37 7319   2.048   2.038  13.485 -0.5196 -0.3761 -0.0788
   57DOPE   H7X 7320   2.067   1.930  13.471  0.8269 -0.1388 -0.1774
   57DOPE   H7Y 7321   2.139   2.095  13.458  0.8568 -2.1901  0.5854
   57DOPE   C38 7322   2.012   2.072  13.632 -0.6447  1.0545 -0.0929
   57DOPE   H8X 7323   1.920   2.017  13.665  0.6689 -0.8869  0.5195
   57DOPE   H8Y 7324   1.994   2.181  13.630  2.4375  1.6434 -0.1586
   57DOPE   C39 7325   2.125   2.052  13.724  0.1706 -0.3098  0.3775
   57DOPE   H9X 7326   2.217   2.018  13.673 -0.0282 -0.8387  0.3682
   57DOPE  C310 7327   2.118   2.069  13.860  0.1225  0.4195  0.7498
   57DOPE  H10X 7328   2.210   2.067  13.920  0.4924 -3.6762  0.3254
   57DOPE  C311 7329   1.999   2.123  13.933 -0.5561 -0.2070  0.0710
   57DOPE  H11X 7330   2.037   2.177  14.022 -0.2925 -1.0246  0.4627
   57DOPE  H11Y 7331   1.946   2.193  13.865  2.6152  1.1679 -1.2034
   57DOPE  C312 7332   1.910   2.013  13.986 -0.6127  0.0665  0.4332
   57DOPE  H12X 7333   1.872   1.956  13.899  3.2612 -0.0748 -1.3530
   57DOPE  H12Y 7334   1.822   2.059  14.037  0.8758  0.3461  2.9299
   57DOPE  C313 7335   1.977   1.909  14.081  0.2879 -0.1461 -0.4379
   57DOPE  H13X 7336   2.068   1.873  14.028  0.5296  2.3920 -1.8986
   57DOPE  H13Y 7337   2.002   1.964  14.174  0.8955 -0.0455 -0.6567
   57DOPE  C314 7338   1.879   1.792  14.104 -0.1943  0.6850 -0.7368
   57DOPE  H14X 7339   1.856   1.746  14.006 -2.1285  1.7691 -0.8309
   57DOPE  H14Y 7340   1.781   1.824  14.144 -0.8812 -3.4820  1.5492
   57DOPE  C315 7341   1.939   1.694  14.214 -0.1000  0.6813 -0.3841
   57DOPE  H15X 7342   1.966   1.760  14.299  0.2593 -0.0092  0.0492
   57DOPE  H15Y 7343   2.026   1.637  14.176 -0.4278 -0.6114  0.6957
   57DOPE  C316 7344   1.837   1.591  14.267  0.2297  0.4586  0.1015
   57DOPE  H16X 7345   1.799   1.538  14.177 -0.2703 -0.5822  0.8993
   57DOPE  H16Y 7346   1.745   1.635  14.310 -1.5724 -3.7953  1.0806
   57DOPE  C317 7347   1.890   1.495  14.375  0.2545 -0.1894  0.5327
   57DOPE  H17X 7348   1.978   1.450  14.324 -0.0159 -0.0951 -0.0299
   57DOPE  H17Y 7349   1.918   1.552  14.466 -3.2797  0.9211  1.0573
   57DOPE  C318 7350   1.778   1.401  14.426 -0.3247 -0.4246 -0.4198
   57DOPE  H18X 7351   1.818   1.323  14.493  0.5525  1.4186  1.3088
   57DOPE  H18Y 7352   1.694   1.450  14.479 -1.0698 -1.0590 -0.9782
   57DOPE  H18Z 7353   1.731   1.353  14.337 -2.0040 -2.2936  1.3573
   58DOPE     N 7354   0.734   4.486  12.114  0.0975  0.5449 -0.4019
   58DOPE   HN1 7355   0.637   4.452  12.131  0.1774  0.7648  0.5589
   58DOPE   HN2 7356   0.748   4.589  12.109 -0.2601  0.7439  1.6130
   58DOPE   HN3 7357   0.769   4.439  12.029 -2.8994 -1.9339 -0.4330
   58DOPE   C12 7358   0.820   4.422  12.222 -0.4737  0.2492 -0.9771
   58DOPE  H12A 7359   0.923   4.462  12.209  0.8540 -2.3412  0.7145
   58DOPE  H12B 7360   0.825   4.312  12.203 -0.3622 -0.1485  1.1432
   58DOPE   C11 7361   0.768   4.442  12.372 -1.0279  1.2596  0.4633
   58DOPE  H11A 7362   0.850   4.426  12.444 -0.7362  0.3535 -0.0576
   58DOPE  H11B 7363   0.694   4.362  12.391  0.4228 -0.2141  0.1126
   58DOPE     P 7364   0.810   4.697  12.426  0.3409 -0.2244 -0.1289
   58DOPE   O13 7365   0.731   4.815  12.460 -0.1039 -0.3689 -0.0318
   58DOPE   O14 7366   0.907   4.714  12.319 -0.3555 -0.0250 -0.4641
   58DOPE   O11 7367   0.874   4.633  12.557  0.0556  0.0888 -0.3047
   58DOPE   O12 7368   0.708   4.578  12.388  0.6131  0.3341 -0.2800
   58DOPE    C1 7369   0.796   4.590  12.668  0.3598  0.2059 -0.2293
   58DOPE    HA 7370   0.802   4.480  12.683  1.4628  0.1988 -0.6561
   58DOPE    HB 7371   0.686   4.603  12.656  0.3216  0.3912  0.2835
   58DOPE    C2 7372   0.837   4.656  12.801 -0.3634 -0.3720 -1.1742
   58DOPE    HS 7373   0.783   4.602  12.881  0.2792 -0.6000 -0.8820
   58DOPE   O21 7374   0.806   4.792  12.792 -0.5962 -0.1356  0.9975
   58DOPE   C21 7375   0.673   4.830  12.793 -0.5887  0.2043 -0.3745
   58DOPE   O22 7376   0.578   4.758  12.807  0.3656 -0.0709  0.1498
   58DOPE   C22 7377   0.659   4.976  12.782 -0.4505 -0.4204 -0.5365
   58DOPE   H2R 7378   0.615   5.008  12.686  2.2032  2.8779 -0.8301
   58DOPE   H2S 7379   0.752   5.036  12.784 -1.4077  1.1285  1.8773
   58DOPE    C3 7380   0.994   4.629  12.814 -0.3080 -1.0337 -0.1550
   58DOPE    HX 7381   1.050   4.690  12.740 -0.2190  0.5843  1.1915
   58DOPE    HY 7382   1.010   4.520  12.801  1.2972 -0.7411 -0.8721
   58DOPE   O31 7383   1.045   4.670  12.945 -0.4249  0.1226  0.0262
   58DOPE   C31 7384   1.174   4.642  12.963 -0.0877 -0.1087  1.4183
   58DOPE   O32 7385   1.248   4.591  12.877  0.1333 -0.1600  0.2322
   58DOPE   C32 7386   1.218   4.683  13.107  1.2994  0.2519 -0.0585
   58DOPE   H2X 7387   1.232   4.793  13.097 -0.3443  0.6147  1.1122
   58DOPE   H2Y 7388   1.135   4.663  13.180 -1.0474  1.6703 -2.1822
   58DOPE   C23 7389   0.573   5.029  12.905 -0.6966 -0.2111 -0.5107
   58DOPE   H3R 7390   0.476   4.975  12.915 -1.1019  0.9120  2.6914
   58DOPE   H3S 7391   0.547   5.133  12.875  0.9895  0.7644  1.2479
   58DOPE   C24 7392   0.662   5.015  13.035  0.5412 -0.0384 -0.5079
   58DOPE   H4R 7393   0.767   5.046  13.017  1.7483 -0.9087  3.7954
   58DOPE   H4S 7394   0.678   4.906  13.048  2.7275  0.3000 -0.0176
   58DOPE   C25 7395   0.605   5.097  13.151  0.2163 -0.0114  0.1547
   58DOPE   H5R 7396   0.519   5.031  13.171  0.0852 -0.1832 -0.9280
   58DOPE   H5S 7397   0.585   5.200  13.113  4.0749  0.4357 -1.1284
   58DOPE   C26 7398   0.701   5.088  13.271  0.0227 -0.0044 -0.4640
   58DOPE   H6R 7399   0.760   4.994  13.273  0.1128  0.0432 -0.7889
   58DOPE   H6S 7400   0.634   5.079  13.360  0.3934 -0.0524 -0.1887
   58DOPE   C27 7401   0.800   5.199  13.271  0.5707  0.4962  0.3229
   58DOPE   H7R 7402   0.751   5.297  13.252 -2.5495 -0.9905 -0.0675
   58DOPE   H7S 7403   0.873   5.176  13.190  0.3672 -0.4977  0.4131
   58DOPE   C28 7404   0.877   5.203  13.403 -0.2505 -0.3326 -0.5321
   58DOPE   H8R 7405   0.932   5.109  13.423  1.3655  0.6160 -0.3594
   58DOPE   H8S 7406   0.800   5.218  13.482  0.5526 -1.9304  0.6123
   58DOPE   C29 7407   0.984   5.314  13.422 -0.9039  0.8006  0.1497
   58DOPE   H9R 7408   0.988   5.385  13.337  0.4377 -0.0155 -0.5002
   58DOPE  C210 7409   1.054   5.323  13.533 -0.0374 -0.5127  0.2731
   58DOPE  H10R 7410   1.120   5.410  13.546  0.4772 -0.7586 -0.6010
   58DOPE  C211 7411   1.054   5.238  13.650  0.2422 -0.3421  0.0046
   58DOPE  H11R 7412   1.161   5.234  13.681  0.9016  2.0605 -1.7390
   58DOPE  H11S 7413   1.024   5.135  13.618  1.2753 -1.4845  2.4103
   58DOPE  C212 7414   0.969   5.279  13.772 -0.0959 -0.1035  0.4016
   58DOPE  H12R 7415   0.986   5.204  13.851  0.3065  0.3989  0.7938
   58DOPE  H12S 7416   0.858   5.282  13.759 -0.0393  0.4755  0.0019
   58DOPE  C213 7417   1.017   5.413  13.836  0.0454 -0.4716 -0.1432
   58DOPE  H13R 7418   1.004   5.492  13.759  1.9459  0.4487  0.4280
   58DOPE  H13S 7419   1.121   5.385  13.862 -0.0696  0.6602  1.6385
   58DOPE  C214 7420   0.934   5.457  13.960 -0.9595 -0.2332 -0.0266
   58DOPE  H14R 7421   0.944   5.391  14.048 -1.8712 -0.8378 -0.3583
   58DOPE  H14S 7422   0.829   5.455  13.923 -0.4255  0.0830 -1.6252
   58DOPE  C215 7423   0.972   5.599  14.005 -0.3045 -0.2122 -0.4517
   58DOPE  H15R 7424   0.909   5.615  14.095 -0.0904 -3.6525  0.4556
   58DOPE  H15S 7425   0.950   5.678  13.931 -0.2383 -0.0060 -0.2512
   58DOPE  C216 7426   1.114   5.606  14.058 -0.7904 -0.3879 -0.1084
   58DOPE  H16R 7427   1.181   5.567  13.979  0.4629  1.7056 -0.1645
   58DOPE  H16S 7428   1.115   5.531  14.140 -3.3186 -0.1489  0.2195
   58DOPE  C217 7429   1.168   5.744  14.102 -0.6302 -0.5099 -0.4622
   58DOPE  H17R 7430   1.113   5.782  14.191 -1.0490  2.1518 -1.7808
   58DOPE  H17S 7431   1.156   5.814  14.017 -2.1043  0.5140  0.5302
   58DOPE  C218 7432   1.317   5.732  14.142 -0.1566  0.3201 -0.8271
   58DOPE  H18R 7433   1.359   5.835  14.146 -0.1792  0.3763 -1.7582
   58DOPE  H18S 7434   1.370   5.675  14.063  0.1276 -0.1333 -0.3090
   58DOPE  H18T 7435   1.326   5.683  14.241  1.4749  0.2168 -1.0097
   58DOPE   C33 7436   1.351   4.626  13.152  0.0348 -0.6318 -0.0135
   58DOPE   H3X 7437   1.429   4.679  13.093 -2.4349  1.7950 -1.3131
   58DOPE   H3Y 7438   1.357   4.516  13.137 -0.1350 -0.5680 -0.5508
   58DOPE   C34 7439   1.369   4.647  13.305  0.0915  0.2402 -0.9723
   58DOPE   H4X 7440   1.280   4.606  13.357  1.1053  0.2642  0.8631
   58DOPE   H4Y 7441   1.456   4.594  13.349 -0.3497 -1.2031 -1.7721
   58DOPE   C35 7442   1.391   4.799  13.336 -0.2658 -0.0342  0.4193
   58DOPE   H5X 7443   1.300   4.855  13.305  0.7880  1.4008 -0.2007
   58DOPE   H5Y 7444   1.463   4.840  13.262 -2.2184 -1.0298 -2.1654
   58DOPE   C36 7445   1.418   4.823  13.486 -0.3940  0.8748 -0.1307
   58DOPE   H6X 7446   1.337   4.777  13.547 -0.4507  1.4608  0.2462
   58DOPE   H6Y 7447   1.403   4.932  13.501 -1.4401  0.5231  1.7331
   58DOPE   C37 7448   1.559   4.780  13.525 -0.0541  0.2311  0.2266
   58DOPE   H7X 7449   1.550   4.676  13.564  0.6984  0.9527  2.4918
   58DOPE   H7Y 7450   1.623   4.779  13.435 -0.0695 -2.1136  0.1672
   58DOPE   C38 7451   1.617   4.847  13.656 -0.1221 -0.0025  0.6415
   58DOPE   H8X 7452   1.631   4.952  13.624 -0.7661 -0.3264 -0.7658
   58DOPE   H8Y 7453   1.722   4.816  13.676 -0.0575  0.2769  0.7411
   58DOPE   C39 7454   1.524   4.841  13.774 -0.3546  0.0396 -0.1513
   58DOPE   H9X 7455   1.460   4.930  13.787  0.6248  0.8236 -0.5294
   58DOPE  C310 7456   1.541   4.755  13.873  0.4958  0.9727 -0.3945
   58DOPE  H10X 7457   1.482   4.756  13.965  2.3859 -1.7122  0.9759
   58DOPE  C311 7458   1.642   4.644  13.872  0.0797  0.0247 -0.1222
   58DOPE  H11X 7459   1.702   4.645  13.779 -3.4141  3.1541 -2.6394
   58DOPE  H11Y 7460   1.711   4.655  13.958  1.4105 -1.7737 -0.9118
   58DOPE  C312 7461   1.567   4.509  13.873 -0.4436 -0.1272  0.0875
   58DOPE  H12X 7462   1.640   4.440  13.825 -1.1900  0.4997 -2.0762
   58DOPE  H12Y 7463   1.473   4.508  13.814 -1.4195  0.5188  1.5604
   58DOPE  C313 7464   1.540   4.466  14.020  0.0868 -0.0379  0.3329
   58DOPE  H13X 7465   1.540   4.354  14.018 -0.9756 -0.0525  0.6690
   58DOPE  H13Y 7466   1.618   4.498  14.092 -0.7450  1.8757  0.4398
   58DOPE  C314 7467   1.398   4.500  14.068 -0.3811 -0.3608 -0.3997
   58DOPE  H14X 7468   1.333   4.488  13.978 -1.0657  1.1662 -0.1438
   58DOPE  H14Y 7469   1.389   4.608  14.094  0.4463 -0.5053  0.5381
   58DOPE  C315 7470   1.359   4.428  14.203  0.5601 -0.1559  0.0313
   58DOPE  H15X 7471   1.408   4.329  14.217 -0.7923 -0.6331  1.8502
   58DOPE  H15Y 7472   1.248   4.418  14.205  0.6083 -1.0821 -0.9760
   58DOPE  C316 7473   1.407   4.489  14.332  0.4883  0.2095  0.7429
   58DOPE  H16X 7474   1.371   4.594  14.341 -0.4247 -0.0379  0.1516
   58DOPE  H16Y 7475   1.516   4.499  14.316  0.1849 -0.2451 -2.0309
   58DOPE  C317 7476   1.362   4.425  14.463  0.4344  0.2386 -0.8742
   58DOPE  H17X 7477   1.252   4.436  14.466  0.6862  3.8863  1.0986
   58DOPE  H17Y 7478   1.388   4.317  14.458 -0.8164 -0.1006 -0.2640
   58DOPE  C318 7479   1.419   4.498  14.588  0.1582  0.0412  1.0941
   58DOPE  H18X 7480   1.414   4.609  14.576 -3.0070 -0.1262  0.0188
   58DOPE  H18Y 7481   1.371   4.465  14.682  0.9415  0.0032  1.4859
   58DOPE  H18Z 7482   1.526   4.470  14.586  0.0329 -0.4052 -0.2648
   59DOPE     N 7483   1.034   0.077  12.009 -0.4744 -0.1255  0.1788
   59DOPE   HN1 7484   1.074   0.169  12.039 -3.1110  1.0607  0.3889
   59DOPE   HN2 7485   1.080  -0.003  12.057  1.3910  0.9104  0.2133
   59DOPE   HN3 7486   1.033   0.065  11.906 -0.8197  1.8728 -0.0998
   59DOPE   C12 7487   0.889   0.078  12.051  0.1079 -0.2134 -0.0540
   59DOPE  H12A 7488   0.871  -0.032  12.051  3.2141 -0.9239 -3.7763
   59DOPE  H12B 7489   0.828   0.130  11.975  0.0956  0.0400  0.1270
   59DOPE   C11 7490   0.887   0.143  12.192  0.3559 -0.9272  0.1151
   59DOPE  H11A 7491   0.951   0.096  12.270 -0.0118  0.7527  1.4891
   59DOPE  H11B 7492   0.783   0.140  12.231  0.5886 -0.7821  0.7649
   59DOPE     P 7493   0.827   0.401  12.171  0.0618  0.0244  0.5282
   59DOPE   O13 7494   0.736   0.398  12.046  0.0253  0.0723 -0.1531
   59DOPE   O14 7495   0.904   0.529  12.184  0.5004  0.3721 -0.4209
   59DOPE   O11 7496   0.734   0.380  12.283  0.5109  0.1331  0.2232
   59DOPE   O12 7497   0.925   0.279  12.173 -0.6941  0.0642  0.4154
   59DOPE    C1 7498   0.775   0.402  12.420 -0.0487  0.1268 -0.1668
   59DOPE    HA 7499   0.885   0.404  12.434 -0.0180 -2.7539  0.7413
   59DOPE    HB 7500   0.749   0.308  12.474 -0.1828 -0.9712 -2.0416
   59DOPE    C2 7501   0.698   0.517  12.489  0.3319  0.3435  0.0156
   59DOPE    HS 7502   0.715   0.613  12.435 -0.6919  0.1513 -0.6848
   59DOPE   O21 7503   0.727   0.513  12.627  0.0720  0.2592 -0.2553
   59DOPE   C21 7504   0.705   0.635  12.678  0.0620  0.6653 -0.5028
   59DOPE   O22 7505   0.691   0.736  12.616 -0.2873  0.5891  0.7758
   59DOPE   C22 7506   0.694   0.619  12.831 -0.0269 -0.3832 -0.0779
   59DOPE   H2R 7507   0.757   0.532  12.859 -1.1584 -1.0292  0.5756
   59DOPE   H2S 7508   0.598   0.581  12.873  0.1341 -1.5011 -0.6845
   59DOPE    C3 7509   0.548   0.479  12.459  0.2656  0.1446 -0.9457
   59DOPE    HX 7510   0.527   0.373  12.485 -0.3430  0.2537 -0.9595
   59DOPE    HY 7511   0.526   0.477  12.350 -2.1408  1.5557 -0.5692
   59DOPE   O31 7512   0.450   0.567  12.532 -0.5775 -0.2252 -0.6470
   59DOPE   C31 7513   0.402   0.666  12.463  0.0057  0.5132 -0.4920
   59DOPE   O32 7514   0.438   0.696  12.350 -0.2295  0.6254  0.0251
   59DOPE   C32 7515   0.290   0.745  12.538  0.5743 -0.1882 -0.4191
   59DOPE   H2X 7516   0.301   0.842  12.485 -0.3069  0.0339 -0.2015
   59DOPE   H2Y 7517   0.188   0.713  12.509  0.0212  2.2047 -1.3759
   59DOPE   C23 7518   0.728   0.753  12.917 -0.0790  0.3321  0.1367
   59DOPE   H3R 7519   0.815   0.808  12.875  0.8880 -1.1286  0.1600
   59DOPE   H3S 7520   0.769   0.732  13.019 -0.2036 -2.7509 -0.3449
   59DOPE   C24 7521   0.608   0.853  12.914  1.0778  0.3599  0.1438
   59DOPE   H4R 7522   0.517   0.801  12.951 -0.1121  2.1918 -0.1179
   59DOPE   H4S 7523   0.578   0.875  12.810 -0.6892 -0.5546  0.4260
   59DOPE   C25 7524   0.644   0.982  12.991  0.0734 -0.2173  0.0068
   59DOPE   H5R 7525   0.738   1.013  12.941 -0.0813  0.6348  0.2165
   59DOPE   H5S 7526   0.677   0.953  13.093 -0.7031 -1.4371 -0.0700
   59DOPE   C26 7527   0.546   1.094  12.992  0.0058 -0.4385  0.0018
   59DOPE   H6R 7528   0.534   1.115  12.883 -0.3974  0.9334  0.2955
   59DOPE   H6S 7529   0.585   1.185  13.042  0.5286  0.0967 -1.3354
   59DOPE   C27 7530   0.412   1.059  13.061 -0.1179  0.3678  0.2903
   59DOPE   H7R 7531   0.379   0.954  13.046 -0.2793  0.1330  2.1016
   59DOPE   H7S 7532   0.326   1.120  13.026  0.1235 -0.2954 -1.6236
   59DOPE   C28 7533   0.420   1.095  13.211 -0.3191  0.3759  0.2110
   59DOPE   H8R 7534   0.425   1.206  13.215  0.4273  0.5196 -2.6367
   59DOPE   H8S 7535   0.519   1.060  13.247 -0.1849  0.9368  0.3981
   59DOPE   C29 7536   0.303   1.034  13.288  0.7716 -0.1678 -0.1198
   59DOPE   H9R 7537   0.233   0.975  13.227  1.8851 -1.3866 -0.2745
   59DOPE  C210 7538   0.295   1.039  13.425  0.3501 -0.3297  0.0719
   59DOPE  H10R 7539   0.205   1.006  13.480 -0.8534  0.8577 -1.1240
   59DOPE  C211 7540   0.413   1.097  13.511 -0.0610 -0.8221 -0.0757
   59DOPE  H11R 7541   0.367   1.164  13.586  0.1533 -1.2501  0.4439
   59DOPE  H11S 7542   0.483   1.157  13.450 -0.5030 -1.5640 -1.3731
   59DOPE  C212 7543   0.497   0.989  13.587 -0.1866  0.3300 -0.5884
   59DOPE  H12R 7544   0.546   0.933  13.504 -0.8597 -1.2612  0.0510
   59DOPE  H12S 7545   0.424   0.916  13.628 -0.7577  0.7317 -0.8686
   59DOPE  C213 7546   0.593   1.046  13.695  0.1773 -0.3724 -0.2132
   59DOPE  H13R 7547   0.514   1.076  13.767  0.0443 -0.6863 -0.2244
   59DOPE  H13S 7548   0.642   1.142  13.666  1.7516 -1.4897 -1.4364
   59DOPE  C214 7549   0.696   0.950  13.742 -0.6143 -0.7170 -0.1996
   59DOPE  H14R 7550   0.767   0.982  13.822 -2.2395 -1.2483  1.5369
   59DOPE  H14S 7551   0.763   0.933  13.655 -0.7667  1.8662 -0.8953
   59DOPE  C215 7552   0.635   0.814  13.783  0.0087 -0.2175 -0.3172
   59DOPE  H15R 7553   0.596   0.761  13.693  2.2226 -0.3491 -1.2711
   59DOPE  H15S 7554   0.550   0.836  13.851  2.2837  3.1944  1.6732
   59DOPE  C216 7555   0.732   0.714  13.856 -0.1030  0.3175 -0.4592
   59DOPE  H16R 7556   0.741   0.749  13.961  0.4103 -3.1488  0.7970
   59DOPE  H16S 7557   0.834   0.713  13.813  0.2118  0.8556  0.2429
   59DOPE  C217 7558   0.661   0.578  13.858 -0.7245  0.2438  0.0290
   59DOPE  H17R 7559   0.623   0.539  13.761 -1.8265  0.2865  0.4247
   59DOPE  H17S 7560   0.571   0.590  13.922 -1.5047 -3.5544 -0.1456
   59DOPE  C218 7561   0.752   0.467  13.919 -0.1575  0.6122  0.2194
   59DOPE  H18R 7562   0.853   0.504  13.890  0.0979  0.9076  1.4291
   59DOPE  H18S 7563   0.739   0.365  13.877  2.9859  0.2934 -0.1947
   59DOPE  H18T 7564   0.751   0.458  14.030  0.5320  0.6283  0.2317
   59DOPE   C33 7565   0.311   0.765  12.689  0.5193 -0.4359  0.9411
   59DOPE   H3X 7566   0.412   0.810  12.700  1.2271 -1.4223 -0.9973
   59DOPE   H3Y 7567   0.289   0.674  12.748 -1.4774 -0.8949 -0.3936
   59DOPE   C34 7568   0.216   0.872  12.750 -0.0374  0.5664 -0.5931
   59DOPE   H4X 7569   0.115   0.836  12.720  0.4125 -1.4890  0.1602
   59DOPE   H4Y 7570   0.222   0.867  12.861  0.2183 -1.6286 -0.6636
   59DOPE   C35 7571   0.229   1.012  12.701  0.5281  0.2799 -0.7209
   59DOPE   H5X 7572   0.214   1.011  12.591  0.6951 -4.1290 -0.8685
   59DOPE   H5Y 7573   0.327   1.058  12.729  0.8634 -1.0402  0.3679
   59DOPE   C36 7574   0.120   1.098  12.775  0.5069  0.1399  0.5802
   59DOPE   H6X 7575   0.135   1.098  12.885  1.9104  0.2075  0.4051
   59DOPE   H6Y 7576   0.020   1.050  12.770  0.9407 -0.7248  0.0160
   59DOPE   C37 7577   0.122   1.241  12.726  0.4868 -0.3256  0.5651
   59DOPE   H7X 7578   0.109   1.240  12.616 -1.9486  2.2258  0.7188
   59DOPE   H7Y 7579   0.029   1.290  12.762  1.7323  1.1915  1.8930
   59DOPE   C38 7580   0.238   1.326  12.782  0.3041 -0.6737 -0.5569
   59DOPE   H8X 7581   0.340   1.292  12.750  1.1628  0.0884  1.2253
   59DOPE   H8Y 7582   0.236   1.319  12.893  0.1202 -0.4476 -0.5451
   59DOPE   C39 7583   0.222   1.473  12.751  1.1894  0.1532 -0.1891
   59DOPE   H9X 7584   0.222   1.486  12.642 -1.3856  1.8397 -0.0668
   59DOPE  C310 7585   0.216   1.575  12.832  0.2081  0.3835  0.6329
   59DOPE  H10X 7586   0.204   1.674  12.785 -0.2773 -0.9560 -2.3070
   59DOPE  C311 7587   0.210   1.573  12.981  0.1036  0.3046 -0.5064
   59DOPE  H11X 7588   0.267   1.486  13.021  0.8513  0.9652 -0.1009
   59DOPE  H11Y 7589   0.269   1.661  13.014  0.6921  0.3427 -1.6281
   59DOPE  C312 7590   0.057   1.571  13.028  0.0306 -0.0090 -0.5936
   59DOPE  H12X 7591   0.018   1.467  13.022  0.6945 -0.4308  1.5985
   59DOPE  H12Y 7592  -0.007   1.632  12.961 -0.2816 -1.0814 -1.2980
   59DOPE  C313 7593   0.043   1.605  13.174 -0.6290  0.4633  0.7901
   59DOPE  H13X 7594   0.064   1.712  13.197 -0.0422  0.4424  0.3718
   59DOPE  H13Y 7595  -0.060   1.582  13.210 -0.5854 -0.5521  0.3054
   59DOPE  C314 7596   0.134   1.528  13.273 -0.6381  0.2657  0.4376
   59DOPE  H14X 7597   0.230   1.582  13.259 -0.8294  0.5060  0.0592
   59DOPE  H14Y 7598   0.158   1.437  13.214 -1.2967  0.4382 -0.1059
   59DOPE  C315 7599   0.076   1.511  13.411 -0.1016 -0.1096 -0.2539
   59DOPE  H15X 7600  -0.018   1.454  13.400  0.1019 -0.2702 -1.2274
   59DOPE  H15Y 7601   0.066   1.609  13.462 -1.3155 -0.9899  1.2926
   59DOPE  C316 7602   0.172   1.433  13.499  0.4070 -0.6160  0.4817
   59DOPE  H16X 7603   0.265   1.485  13.528  0.4452 -0.0096 -0.6579
   59DOPE  H16Y 7604   0.195   1.331  13.462 -0.8069 -0.7935  0.1488
   59DOPE  C317 7605   0.090   1.406  13.629 -0.1529  0.0959 -0.9436
   59DOPE  H17X 7606  -0.001   1.349  13.599  0.2533 -0.3581 -1.3178
   59DOPE  H17Y 7607   0.155   1.346  13.697  1.1398 -0.5208 -2.6359
   59DOPE  C318 7608   0.039   1.528  13.716 -0.0396  0.6312  0.8397
   59DOPE  H18X 7609  -0.000   1.497  13.815  0.7102 -1.3283  0.5751
   59DOPE  H18Y 7610   0.113   1.607  13.741 -0.5455  0.8810  1.5763
   59DOPE  H18Z 7611  -0.040   1.582  13.659  2.0116  3.2289  0.2612
   60DOPE     N 7612   0.377   5.923  11.915 -0.3837 -0.5939  0.3523
   60DOPE   HN1 7613   0.313   5.880  11.984 -1.2564  0.3967  0.1736
   60DOPE   HN2 7614   0.385   6.026  11.920  0.5220 -0.6129 -0.3377
   60DOPE   HN3 7615   0.359   5.895  11.816  0.9243 -1.0662  0.2199
   60DOPE   C12 7616   0.519   5.881  11.962 -0.2321 -0.2261  0.3658
   60DOPE  H12A 7617   0.587   5.893  11.875 -0.6543  0.4989  0.1308
   60DOPE  H12B 7618   0.519   5.772  11.986 -2.1203 -0.5331 -0.7999
   60DOPE   C11 7619   0.558   5.957  12.089  0.6684  0.2833  0.1706
   60DOPE  H11A 7620   0.650   5.908  12.127  0.7010 -1.0691 -1.5149
   60DOPE  H11B 7621   0.488   5.953  12.175 -0.3205 -1.2253 -0.6646
   60DOPE     P 7622   0.494   6.218  12.066 -0.5589  0.3614  0.5365
   60DOPE   O13 7623   0.377   6.181  11.980  0.1325  0.2201  0.3246
   60DOPE   O14 7624   0.572   6.344  12.038  0.7414 -0.0360 -0.2602
   60DOPE   O11 7625   0.449   6.224  12.214  0.1451  0.2204  0.4664
   60DOPE   O12 7626   0.590   6.097  12.054 -0.5199  0.1578  0.3057
   60DOPE    C1 7627   0.545   6.203  12.314 -0.2058  0.2327 -0.5379
   60DOPE    HA 7628   0.650   6.232  12.292 -0.0618 -0.4915 -0.8113
   60DOPE    HB 7629   0.553   6.097  12.345  0.3246 -0.0044 -1.4511
   60DOPE    C2 7630   0.501   6.278  12.447 -0.1418  0.4263  0.0984
   60DOPE    HS 7631   0.573   6.245  12.525  0.0376 -0.5366 -0.4664
   60DOPE   O21 7632   0.367   6.247  12.491 -0.7902  0.0240 -0.1980
   60DOPE   C21 7633   0.354   6.127  12.539 -0.7612  0.2404 -0.0907
   60DOPE   O22 7634   0.446   6.048  12.561 -0.0252 -0.3599  0.6627
   60DOPE   C22 7635   0.205   6.088  12.546 -0.0713  0.1267 -0.1505
   60DOPE   H2R 7636   0.175   6.029  12.457 -1.4825  1.5873 -0.7002
   60DOPE   H2S 7637   0.145   6.180  12.530  1.1449  0.8797 -0.5725
   60DOPE    C3 7638   0.513   6.433  12.437  0.3238  0.3208  0.2678
   60DOPE    HX 7639   0.437   6.452  12.357 -0.8042  0.8045  1.4177
   60DOPE    HY 7640   0.617   6.456  12.406  0.3156  1.3049  0.9644
   60DOPE   O31 7641   0.475   6.495  12.566  0.1338 -0.0644  0.2216
   60DOPE   C31 7642   0.581   6.555  12.628  0.0597  0.2438  0.3958
   60DOPE   O32 7643   0.699   6.545  12.596  0.6560  0.2088  0.7242
   60DOPE   C32 7644   0.519   6.636  12.749  0.2024  0.2042  0.5802
   60DOPE   H2X 7645   0.467   6.717  12.694  0.1499 -0.6711 -0.6903
   60DOPE   H2Y 7646   0.443   6.572  12.799 -1.0213 -0.0126 -1.4563
   60DOPE   C23 7647   0.190   6.015  12.677 -0.7555  0.3181  0.5611
   60DOPE   H3R 7648   0.253   5.925  12.697  0.2571  0.8259 -0.2154
   60DOPE   H3S 7649   0.087   5.976  12.669 -0.5730 -0.1726  0.5717
   60DOPE   C24 7650   0.194   6.115  12.802  0.5532 -0.1274  0.1096
   60DOPE   H4R 7651   0.131   6.197  12.763 -0.5216 -0.6257  0.7673
   60DOPE   H4S 7652   0.301   6.146  12.809  0.5368 -0.0565  0.0495
   60DOPE   C25 7653   0.145   6.070  12.937 -0.3837  0.5475 -0.5047
   60DOPE   H5R 7654   0.150   6.154  13.009 -2.1886  0.3499 -0.1015
   60DOPE   H5S 7655   0.219   6.000  12.981 -1.3995  0.9201  1.9650
   60DOPE   C26 7656   0.004   6.005  12.937  0.6191  0.8315 -0.2811
   60DOPE   H6R 7657   0.014   5.908  12.884  1.9922 -1.0403  3.1018
   60DOPE   H6S 7658  -0.068   6.066  12.879 -1.5472 -0.0494  1.3347
   60DOPE   C27 7659  -0.043   5.977  13.082 -0.3520  0.4941  0.6322
   60DOPE   H7R 7660  -0.101   6.067  13.113 -0.6763  0.0602  1.3272
   60DOPE   H7S 7661   0.045   5.968  13.149 -1.0364  1.3458  1.6975
   60DOPE   C28 7662  -0.140   5.857  13.092  0.8067 -0.3706 -0.4022
   60DOPE   H8R 7663  -0.108   5.770  13.032 -0.1673  0.1049 -1.6559
   60DOPE   H8S 7664  -0.239   5.876  13.045  0.1842 -1.4883  0.4121
   60DOPE   C29 7665  -0.161   5.814  13.234  0.0884 -0.0250 -0.6743
   60DOPE   H9R 7666  -0.095   5.732  13.265  1.2573  0.9389 -0.4935
   60DOPE  C210 7667  -0.244   5.867  13.322 -0.2000  0.7844 -0.3709
   60DOPE  H10R 7668  -0.247   5.822  13.422  1.5151 -1.8497 -1.3697
   60DOPE  C211 7669  -0.344   5.976  13.294  0.3685 -0.2284 -0.8288
   60DOPE  H11R 7670  -0.325   6.010  13.190 -1.3745 -0.2750 -1.1907
   60DOPE  H11S 7671  -0.307   6.063  13.352 -0.8615 -0.0254 -0.3150
   60DOPE  C212 7672  -0.490   5.947  13.321  0.6611  0.7747 -0.4503
   60DOPE  H12R 7673  -0.530   5.869  13.253  0.7788  0.3573 -0.0412
   60DOPE  H12S 7674  -0.543   6.043  13.299 -0.9858  0.9728  3.5115
   60DOPE  C213 7675  -0.514   5.911  13.466 -0.3916  0.6732  0.4503
   60DOPE  H13R 7676  -0.466   5.982  13.536  0.6975 -0.6524  1.1031
   60DOPE  H13S 7677  -0.476   5.808  13.481  0.6450  0.7874 -1.1251
   60DOPE  C214 7678  -0.662   5.904  13.507 -0.7225  0.5350 -0.0994
   60DOPE  H14R 7679  -0.719   5.821  13.460 -1.0936 -0.7809  2.4754
   60DOPE  H14S 7680  -0.701   6.002  13.474 -0.5167  0.2329 -1.3075
   60DOPE  C215 7681  -0.674   5.881  13.655  0.1409  0.6895  0.4927
   60DOPE  H15R 7682  -0.620   5.963  13.707 -0.8391  0.7520  1.4446
   60DOPE  H15S 7683  -0.620   5.786  13.671 -1.5592 -1.3977 -4.4158
   60DOPE  C216 7684  -0.822   5.866  13.706 -0.7944 -0.5790 -0.0803
   60DOPE  H16R 7685  -0.814   5.841  13.813  0.9099 -1.7911 -0.4619
   60DOPE  H16S 7686  -0.855   5.780  13.644 -0.9098  0.1293 -1.0276
   60DOPE  C217 7687  -0.921   5.980  13.669 -1.1458 -0.2291  0.1966
   60DOPE  H17R 7688  -1.025   5.950  13.693 -1.2885 -0.0686 -0.2014
   60DOPE  H17S 7689  -0.926   5.996  13.559 -0.5985 -1.2368  0.0076
   60DOPE  C218 7690  -0.901   6.111  13.742 -0.2164  0.3094  0.0770
   60DOPE  H18R 7691  -0.807   6.151  13.698 -0.8378  1.4542 -0.2652
   60DOPE  H18S 7692  -0.886   6.089  13.849  1.8649  0.5123 -0.1239
   60DOPE  H18T 7693  -0.983   6.185  13.726 -0.1751  0.5286  0.8464
   60DOPE   C33 7694   0.619   6.687  12.845  0.0760  0.5228 -0.2001
   60DOPE   H3X 7695   0.671   6.774  12.799  0.4637  0.7968  0.7400
   60DOPE   H3Y 7696   0.692   6.606  12.865 -1.3041 -1.1955 -1.7049
   60DOPE   C34 7697   0.569   6.734  12.979 -0.4908 -0.1130  0.3957
   60DOPE   H4X 7698   0.652   6.795  13.021 -1.4701  3.2867 -2.1642
   60DOPE   H4Y 7699   0.494   6.815  12.966  0.1283  0.1367 -1.9697
   60DOPE   C35 7700   0.514   6.629  13.074  0.6582 -0.1309  0.1939
   60DOPE   H5X 7701   0.583   6.543  13.082 -1.1305 -1.5223  1.4589
   60DOPE   H5Y 7702   0.427   6.585  13.021 -0.1774  1.8594 -0.1732
   60DOPE   C36 7703   0.472   6.687  13.211 -0.1976 -0.4420  0.3425
   60DOPE   H6X 7704   0.387   6.753  13.184  1.3824  0.9664 -1.4261
   60DOPE   H6Y 7705   0.560   6.745  13.248 -0.8401  1.3398 -0.8046
   60DOPE   C37 7706   0.426   6.577  13.303 -0.1950  0.1770 -0.0606
   60DOPE   H7X 7707   0.339   6.529  13.254  0.1190 -0.1623 -0.2872
   60DOPE   H7Y 7708   0.502   6.498  13.317 -0.1116 -0.1061 -1.9765
   60DOPE   C38 7709   0.371   6.636  13.429  1.2986 -0.1119  0.0842
   60DOPE   H8X 7710   0.302   6.568  13.484  0.0289  0.3716 -0.8534
   60DOPE   H8Y 7711   0.316   6.728  13.398 -0.1905 -1.1847 -0.5467
   60DOPE   C39 7712   0.488   6.674  13.513 -0.4052  0.5697 -0.1844
   60DOPE   H9X 7713   0.526   6.775  13.490 -1.9966  1.2136 -0.1370
   60DOPE  C310 7714   0.542   6.606  13.614 -0.3996 -0.4707  0.6165
   60DOPE  H10X 7715   0.631   6.643  13.666 -0.3467  0.3323 -0.0176
   60DOPE  C311 7716   0.501   6.472  13.669  0.3543  0.5053 -0.4897
   60DOPE  H11X 7717   0.500   6.399  13.585  1.2118  0.1423 -0.1987
   60DOPE  H11Y 7718   0.587   6.440  13.732 -0.4750  1.1742  1.0514
   60DOPE  C312 7719   0.373   6.464  13.750  0.3196  0.1250  0.1249
   60DOPE  H12X 7720   0.280   6.495  13.698  0.6355 -0.3855 -0.7784
   60DOPE  H12Y 7721   0.385   6.528  13.840  1.2335 -0.6653  0.5832
   60DOPE  C313 7722   0.349   6.316  13.798 -0.2485 -0.1023  0.5363
   60DOPE  H13X 7723   0.362   6.254  13.707 -1.4251 -1.0681  0.9957
   60DOPE  H13Y 7724   0.419   6.276  13.874 -0.2105 -0.7460  0.1643
   60DOPE  C314 7725   0.215   6.296  13.860  0.2677  0.0583 -1.1285
   60DOPE  H14X 7726   0.137   6.345  13.799 -2.9952 -1.6151  1.3640
   60DOPE  H14Y 7727   0.213   6.352  13.956  1.6615 -0.5191 -0.7391
   60DOPE  C315 7728   0.189   6.153  13.888 -0.0073  0.1165 -0.4111
   60DOPE  H15X 7729   0.283   6.107  13.925  0.2294  1.5844  0.9207
   60DOPE  H15Y 7730   0.169   6.100  13.793 -0.3005 -0.5034 -0.0147
   60DOPE  C316 7731   0.074   6.125  13.984  0.1397  0.3762  0.0449
   60DOPE  H16X 7732  -0.023   6.125  13.931  0.0882 -0.3012  0.1306
   60DOPE  H16Y 7733   0.067   6.208  14.056  2.0164  0.8703 -0.2787
   60DOPE  C317 7734   0.080   5.999  14.065  0.3116  0.2551  0.1810
   60DOPE  H17X 7735   0.166   6.012  14.134 -0.4548 -1.0490  1.4385
   60DOPE  H17Y 7736  -0.009   5.994  14.130 -0.8719  1.8031 -1.2127
   60DOPE  C318 7737   0.098   5.876  13.976 -0.0717  0.1629  0.9540
   60DOPE  H18X 7738   0.109   5.791  14.046  0.0747  1.3127  2.3638
   60DOPE  H18Y 7739   0.019   5.869  13.898  2.2441 -0.5350 -1.4600
   60DOPE  H18Z 7740   0.190   5.872  13.914 -0.8120 -4.1001 -0.1827
   6123SM     N 7741   4.276   5.237  16.114 -0.3594  0.0109  0.3425
   6123SM   C15 7742   4.397   5.223  16.032 -0.5650 -0.4433  0.5583
   6123SM  H15A 7743   4.376   5.267  15.936 -0.5633 -0.0544  0.7301
   6123SM  H15B 7744   4.422   5.119  16.025 -0.5995 -0.4108 -0.0555
   6123SM  H15C 7745   4.479   5.280  16.072  0.3696  1.1923 -3.2453
   6123SM   C14 7746   4.266   5.379  16.143 -0.1584  0.4324 -0.5047
   6123SM  H14A 7747   4.363   5.408  16.182 -0.4348 -1.1705  1.5531
   6123SM  H14B 7748   4.187   5.391  16.215 -0.9788 -1.9087 -0.9179
   6123SM  H14C 7749   4.242   5.422  16.047 -3.1836 -1.1605 -0.5623
   6123SM   C13 7750   4.154   5.196  16.050  0.5552  0.2119 -0.9819
   6123SM  H13A 7751   4.155   5.089  16.037 -1.3124 -0.1054  0.9065
   6123SM  H13B 7752   4.135   5.248  15.957 -0.1491  2.1067  0.1484
   6123SM  H13C 7753   4.065   5.208  16.112  0.9983 -0.7607 -0.1344
   6123SM   C12 7754   4.287   5.158  16.249 -0.2496  0.9083  0.7479
   6123SM  H12A 7755   4.208   5.186  16.317 -0.8887  0.4980  0.1836
   6123SM  H12B 7756   4.383   5.190  16.288 -0.4126  3.1924 -0.5570
   6123SM   C11 7757   4.288   4.999  16.245 -0.3441  0.0922 -0.4519
   6123SM  H11A 7758   4.199   4.965  16.188 -2.0512  2.4299  0.6823
   6123SM  H11B 7759   4.292   4.941  16.340  0.2897 -0.1161 -0.5983
   6123SM     P 7760   4.435   4.819  16.133  0.4719  0.0466 -0.0464
   6123SM   O13 7761   4.565   4.816  16.067 -0.8013 -0.1389  0.5672
   6123SM   O14 7762   4.414   4.726  16.247  0.7999 -0.5960 -0.3350
   6123SM   O11 7763   4.326   4.789  16.027 -0.0344  0.2661 -0.7022
   6123SM   O12 7764   4.412   4.966  16.178  0.6979  0.1462  0.0992
   6123SM   C1S 7765   4.284   4.872  15.915 -0.1542 -0.1997  0.1151
   6123SM   H1S 7766   4.352   4.956  15.887 -0.4605 -0.9053 -3.1239
   6123SM   H1T 7767   4.188   4.924  15.932  0.2059  1.0674 -1.4144
   6123SM    NF 7768   4.232   4.864  15.667  0.0440  0.5319  0.4039
   6123SM   HNF 7769   4.133   4.865  15.650 -0.3866 -2.1712  2.1284
   6123SM   C2S 7770   4.262   4.783  15.781  0.3503  0.3768  0.3276
   6123SM   H2S 7771   4.355   4.723  15.766 -0.3083 -1.5972  3.2533
   6123SM   C3S 7772   4.155   4.666  15.809  0.4636 -0.4139 -0.1583
   6123SM   H3S 7773   4.061   4.715  15.844  2.1804  1.6382  1.9037
   6123SM    O3 7774   4.198   4.587  15.918  0.7488 -0.2697 -0.1123
   6123SM   HO3 7775   4.265   4.642  15.959 -0.3922 -0.3091  1.9493
   6123SM   C4S 7776   4.137   4.572  15.695 -0.2259 -0.7919 -0.5985
   6123SM   H4S 7777   4.237   4.552  15.653 -0.4851 -0.5286 -1.3567
   6123SM   C5S 7778   4.036   4.535  15.622  0.1024 -0.1170 -0.5164
   6123SM   H5S 7779   3.938   4.581  15.643  0.2860  0.0866 -0.0725
   6123SM   C6S 7780   4.052   4.470  15.486  0.4520  0.6153 -0.8534
   6123SM   H6S 7781   4.155   4.430  15.479 -1.0754 -4.4798  0.8173
   6123SM   H6T 7782   4.028   4.545  15.408 -0.9448  1.7290  0.5615
   6123SM   C7S 7783   3.952   4.350  15.464  0.0679  0.3605  0.2266
   6123SM   H7S 7784   3.848   4.383  15.484 -0.3177 -0.5640 -0.1681
   6123SM   H7T 7785   3.988   4.278  15.541 -0.1274 -2.6591 -2.2784
   6123SM   C8S 7786   3.970   4.300  15.321 -0.0451 -0.7149  0.0559
   6123SM   H8S 7787   4.074   4.259  15.329  0.0914 -0.0672  1.8727
   6123SM   H8T 7788   3.970   4.378  15.242 -0.5908 -1.3410 -0.5818
   6123SM   C9S 7789   3.886   4.180  15.277 -0.0317 -0.4367 -0.6049
   6123SM   H9S 7790   3.785   4.213  15.245  0.0355  0.4126  0.0301
   6123SM   H9T 7791   3.864   4.101  15.352  0.0584 -0.2262 -0.3547
   6123SM  C10S 7792   3.946   4.099  15.160  0.2702 -0.2114 -0.1093
   6123SM  H10S 7793   3.903   3.998  15.144 -1.7026  0.4861  0.5386
   6123SM  H10T 7794   4.049   4.071  15.192  0.0908 -1.4135 -0.5497
   6123SM  C11S 7795   3.953   4.181  15.036 -0.2665  0.2927  0.6774
   6123SM  H11S 7796   4.005   4.279  15.043 -1.5295  1.1129 -0.7977
   6123SM  H11T 7797   3.851   4.204  15.000 -0.6182  0.5856  1.8314
   6123SM  C12S 7798   4.028   4.102  14.925 -0.6582  0.2266  0.6120
   6123SM  H12S 7799   3.961   4.017  14.903  1.0150 -0.9071 -0.3348
   6123SM  H12T 7800   4.126   4.074  14.969 -0.1072  0.9694 -0.0844
   6123SM  C13S 7801   4.057   4.191  14.802 -0.6073 -0.1075  0.1929
   6123SM  H13S 7802   4.152   4.249  14.808 -0.3692 -0.1082 -2.2947
   6123SM  H13T 7803   3.963   4.248  14.793 -1.0974 -0.2188  3.4828
   6123SM  C14S 7804   4.059   4.116  14.667  0.3397  0.4010  0.1283
   6123SM  H14S 7805   3.963   4.064  14.647 -0.0431  0.4208  1.8470
   6123SM  H14T 7806   4.150   4.052  14.668  0.3780  0.4599  0.3872
   6123SM  C15S 7807   4.077   4.207  14.546  0.0299  0.1909  0.2902
   6123SM  H15S 7808   4.178   4.252  14.548 -0.3796  1.3557 -1.7735
   6123SM  H15T 7809   3.995   4.282  14.550 -0.9053 -0.4742 -2.7665
   6123SM  C16S 7810   4.069   4.132  14.416  0.3921 -0.2624 -0.0029
   6123SM  H16S 7811   3.962   4.105  14.399  0.4218 -1.4811  1.5754
   6123SM  H16T 7812   4.132   4.041  14.414  2.5049  1.1236  0.8722
   6123SM  C17S 7813   4.104   4.223  14.301  0.6172  0.4317  0.4445
   6123SM  H17S 7814   4.214   4.243  14.302  0.8985 -0.9063 -0.4576
   6123SM  H17T 7815   4.044   4.316  14.309 -0.7464 -0.3074 -0.7519
   6123SM  C18S 7816   4.070   4.157  14.166 -0.4134 -0.1828  0.5808
   6123SM  H18S 7817   3.963   4.133  14.148 -0.0127 -2.0708  0.4482
   6123SM  H18T 7818   4.110   4.053  14.172  1.0688  0.3767  0.7621
   6123SM  H18U 7819   4.114   4.210  14.080 -2.1199  0.7078  0.2073
   6123SM   C1F 7820   4.319   4.951  15.607  0.0382  0.1991  0.6094
   6123SM    OF 7821   4.432   4.967  15.652  0.1477  0.0118 -0.1000
   6123SM   C2F 7822   4.284   5.025  15.486 -0.0702 -0.1680  0.7555
   6123SM   H2F 7823   4.328   5.128  15.488 -1.0897  0.3343 -1.0449
   6123SM   H2G 7824   4.174   5.040  15.486 -0.1293 -0.6089  0.3956
   6123SM   C3F 7825   4.337   4.945  15.366  0.3053  0.2225 -0.2137
   6123SM   H3F 7826   4.334   4.836  15.387  1.5655  0.1998 -0.1004
   6123SM   H3G 7827   4.442   4.974  15.347  0.1366  1.2563  0.3663
   6123SM   C4F 7828   4.248   4.973  15.243 -0.3088  0.2665  0.5800
   6123SM   H4F 7829   4.258   5.082  15.225 -0.1878 -0.0848 -1.8258
   6123SM   H4G 7830   4.141   4.954  15.266  0.0003 -1.1482  0.9361
   6123SM   C5F 7831   4.297   4.888  15.120 -0.2729 -0.0369  0.2175
   6123SM   H5F 7832   4.277   4.780  15.138  0.4787  0.1358  2.5081
   6123SM   H5G 7833   4.406   4.904  15.115 -0.1064 -1.4137 -1.7560
   6123SM   C6F 7834   4.238   4.937  14.984  0.0364 -0.3547 -0.7923
   6123SM   H6F 7835   4.130   4.913  14.977  0.0967 -0.6462 -0.7377
   6123SM   H6G 7836   4.273   4.874  14.899 -2.6655 -0.9248 -1.5636
   6123SM   C7F 7837   4.278   5.081  14.949  0.4646  0.0853 -0.0933
   6123SM   H7F 7838   4.385   5.098  14.970  0.5030 -1.5670  1.2087
   6123SM   H7G 7839   4.224   5.161  15.004 -0.7738  0.9269 -2.3793
   6123SM   C8F 7840   4.252   5.108  14.802 -0.1488  0.0311 -0.3873
   6123SM   H8F 7841   4.250   5.218  14.793  0.0352 -0.0864 -2.4287
   6123SM   H8G 7842   4.147   5.081  14.776 -1.0755  2.6593  0.3375
   6123SM   C9F 7843   4.341   5.049  14.696 -0.2101 -0.5265  1.1224
   6123SM   H9F 7844   4.364   4.942  14.718  0.1903 -0.2882  1.8812
   6123SM   H9G 7845   4.438   5.102  14.700 -2.0798  3.1550  2.1305
   6123SM  C10F 7846   4.284   5.062  14.558 -0.3479 -0.4178 -0.0110
   6123SM  H10F 7847   4.189   5.004  14.558  0.1265 -1.2280  1.4915
   6123SM  H10G 7848   4.347   5.020  14.476 -1.0173  2.0329 -1.8852
   6123SM  C11F 7849   4.257   5.208  14.515  0.1750  0.2320  0.2603
   6123SM  H11F 7850   4.349   5.269  14.531  0.0192  0.6759 -0.4567
   6123SM  H11G 7851   4.178   5.257  14.575  1.3236  1.6489  0.6864
   6123SM  C12F 7852   4.226   5.239  14.366  0.5494  0.0709 -0.1968
   6123SM  H12F 7853   4.158   5.169  14.313 -0.5830  0.6846  0.3904
   6123SM  H12G 7854   4.317   5.229  14.304  1.3430  0.4731  0.8691
   6123SM  C13F 7855   4.173   5.382  14.350  0.2438 -0.3320  0.3549
   6123SM  H13F 7856   4.084   5.385  14.416 -0.7846  0.0329 -0.9899
   6123SM  H13G 7857   4.135   5.401  14.247 -0.6304  1.4082  0.9651
   6123SM  C14F 7858   4.279   5.483  14.373 -0.0428 -1.1289  0.1841
   6123SM  H14F 7859   4.357   5.467  14.295  0.8765  0.8167  0.6337
   6123SM  H14G 7860   4.329   5.481  14.472 -0.1624  0.8190  0.3297
   6123SM  C15F 7861   4.214   5.617  14.355  0.3480 -0.5593 -0.0006
   6123SM  H15F 7862   4.160   5.622  14.257 -0.2776  0.7766  0.3996
   6123SM  H15G 7863   4.303   5.683  14.352 -0.1182  0.2104  1.9716
   6123SM  C16F 7864   4.115   5.649  14.469  0.2233  0.2532  0.2056
   6123SM  H16F 7865   4.159   5.646  14.571  0.4532 -0.6955  0.0858
   6123SM  H16G 7866   4.024   5.584  14.471 -0.3559  1.0097  2.7896
   6123SM  C17F 7867   4.070   5.796  14.463  0.6285  0.4912 -0.5753
   6123SM  H17F 7868   4.050   5.826  14.358  2.4282 -0.4814 -1.2338
   6123SM  H17G 7869   4.148   5.859  14.510 -1.5906  1.7535  1.6665
   6123SM  C18F 7870   3.937   5.812  14.557 -0.4274  0.3115 -0.7022
   6123SM  H18F 7871   3.956   5.786  14.663  0.8997 -0.6974 -1.1526
   6123SM  H18G 7872   3.854   5.747  14.523 -0.2329  0.6662 -1.9180
   6123SM  C19F 7873   3.897   5.960  14.560  0.4281  1.2439  0.4951
   6123SM  H19F 7874   3.894   6.010  14.461  0.3286  1.9656  0.8506
   6123SM  H19G 7875   3.966   6.024  14.619  0.5562  0.6821  0.9634
   6123SM  C20F 7876   3.760   5.974  14.626  0.6340 -0.2401 -0.5257
   6123SM  H20F 7877   3.759   5.919  14.722 -1.1381 -1.5473 -1.2580
   6123SM  H20G 7878   3.682   5.941  14.554 -0.0792 -0.2158  0.2343
   6123SM  C21F 7879   3.742   6.121  14.678  0.4230  0.9028  0.3038
   6123SM  H21F 7880   3.763   6.181  14.586  1.2926  0.2216  0.0423
   6123SM  H21G 7881   3.823   6.148  14.749  0.4402  0.2439  0.5435
   6123SM  C22F 7882   3.602   6.153  14.743 -0.6728  0.4738 -0.0276
   6123SM  H22F 7883   3.593   6.073  14.820  3.7733  2.2596  2.7885
   6123SM  H22G 7884   3.530   6.157  14.658 -0.3880 -0.6901 -0.3476
   6123SM  C23F 7885   3.604   6.289  14.814 -0.0187  0.1605  0.5885
   6123SM  H23F 7886   3.504   6.304  14.862 -0.3408  0.6366 -0.2144
   6123SM  H23G 7887   3.638   6.373  14.750  0.5971  0.5506  1.4042
   6123SM  H23H 7888   3.680   6.287  14.895  1.7999  0.6678 -1.0500
   6223SM     N 7889   3.581   4.124  16.385 -0.0608 -0.0283  0.0388
   6223SM   C15 7890   3.504   4.224  16.312 -0.1770  0.2045 -0.5976
   6223SM  H15A 7891   3.547   4.254  16.217 -2.9519 -0.5500 -2.2030
   6223SM  H15B 7892   3.482   4.309  16.375 -0.0293 -0.4878  0.4091
   6223SM  H15C 7893   3.412   4.173  16.286 -0.7555  1.8859 -2.1254
   6223SM   C14 7894   3.709   4.185  16.425 -0.4063  0.4869 -0.4955
   6223SM  H14A 7895   3.759   4.224  16.338  0.6858  1.2134  0.4184
   6223SM  H14B 7896   3.768   4.124  16.492  0.7463  3.0180  0.9432
   6223SM  H14C 7897   3.679   4.273  16.481 -2.8603  0.9071 -2.3124
   6223SM   C13 7898   3.506   4.084  16.517  0.6175  0.2796  0.8611
   6223SM  H13A 7899   3.403   4.070  16.487  0.4451  1.7067  0.6786
   6223SM  H13B 7900   3.513   4.167  16.586 -1.2911  0.4527  0.9243
   6223SM  H13C 7901   3.548   3.996  16.562  1.0481 -1.3377 -2.4470
   6223SM   C12 7902   3.597   3.998  16.305  0.3012  0.3665  0.5506
   6223SM  H12A 7903   3.495   3.971  16.282  0.3785 -0.7711  1.4149
   6223SM  H12B 7904   3.633   3.919  16.369  1.4283  0.1064 -0.3798
   6223SM   C11 7905   3.684   4.006  16.182  0.7728  0.5148 -0.6076
   6223SM  H11A 7906   3.680   3.908  16.130 -0.0726  0.4219 -0.3785
   6223SM  H11B 7907   3.788   4.014  16.220  0.7942 -0.6416 -0.4037
   6223SM     P 7908   3.775   4.202  16.028 -0.3244 -0.1044 -0.2634
   6223SM   O13 7909   3.711   4.314  15.948 -0.3633  0.5027 -0.1884
   6223SM   O14 7910   3.865   4.239  16.139 -0.1589  0.4690  0.5160
   6223SM   O11 7911   3.849   4.094  15.931 -0.3288  0.4341  1.0908
   6223SM   O12 7912   3.656   4.116  16.093  0.2388  0.6022  0.2272
   6223SM   C1S 7913   3.766   4.001  15.855  0.5506  0.2087  0.5981
   6223SM   H1S 7914   3.659   4.030  15.846 -0.4712 -3.5168 -1.3284
   6223SM   H1T 7915   3.755   3.903  15.906 -1.8411  0.6796  1.0699
   6223SM    NF 7916   3.715   3.908  15.624  0.2177  0.2170  0.5176
   6223SM   HNF 7917   3.755   3.828  15.580  0.8119  0.4510  0.6129
   6223SM   C2S 7918   3.815   3.980  15.709  0.4339  0.2348 -0.0799
   6223SM   H2S 7919   3.808   4.085  15.673  0.4640  0.8360  1.5678
   6223SM   C3S 7920   3.955   3.924  15.693  0.3254 -0.0909 -0.4530
   6223SM   H3S 7921   3.942   3.816  15.719  0.1358  0.2337  0.8965
   6223SM    O3 7922   4.049   3.959  15.792 -0.8234 -0.3417  0.2293
   6223SM   HO3 7923   4.003   4.000  15.865 -2.6901 -0.8799 -0.5901
   6223SM   C4S 7924   4.022   3.929  15.557  0.6888 -0.0234 -0.8880
   6223SM   H4S 7925   4.027   4.033  15.520  0.3142  0.6017  0.7421
   6223SM   C5S 7926   4.094   3.830  15.497 -0.7812 -0.2176 -0.5666
   6223SM   H5S 7927   4.110   3.734  15.548 -3.3591  0.5053  1.8709
   6223SM   C6S 7928   4.166   3.843  15.363 -0.0027 -0.3192 -0.1303
   6223SM   H6S 7929   4.271   3.808  15.376  1.1690  2.7397 -0.4981
   6223SM   H6T 7930   4.177   3.952  15.344 -6.1623  0.8394  0.8523
   6223SM   C7S 7931   4.087   3.780  15.246 -0.0613  0.5756  0.1149
   6223SM   H7S 7932   3.984   3.822  15.237 -0.6407 -0.7855  0.0826
   6223SM   H7T 7933   4.068   3.673  15.272 -3.4327  0.4150 -2.2839
   6223SM   C8S 7934   4.172   3.791  15.116  1.0382 -0.3175  0.1373
   6223SM   H8S 7935   4.274   3.747  15.117  1.5656  0.8864  0.7954
   6223SM   H8T 7936   4.183   3.901  15.103 -1.3772 -0.0002  0.3978
   6223SM   C9S 7937   4.087   3.754  14.992  0.4214  0.2682 -0.0638
   6223SM   H9S 7938   3.992   3.810  14.985  0.1887  0.4826  3.2504
   6223SM   H9T 7939   4.063   3.646  14.996 -0.0194  0.3270 -0.9017
   6223SM  C10S 7940   4.157   3.761  14.855  0.4612 -0.0436 -0.0815
   6223SM  H10S 7941   4.253   3.705  14.855  0.3274 -0.3200  1.3055
   6223SM  H10T 7942   4.178   3.869  14.840  0.3094  0.6734  3.7711
   6223SM  C11S 7943   4.063   3.729  14.738  0.1490  0.0720 -0.4628
   6223SM  H11S 7944   3.982   3.802  14.755 -0.6994 -1.3327  2.1551
   6223SM  H11T 7945   4.029   3.624  14.753  1.4462  0.0040  2.6870
   6223SM  C12S 7946   4.126   3.732  14.594 -0.2328 -0.1930  0.0405
   6223SM  H12S 7947   4.221   3.674  14.595  0.7555  1.3664 -0.3070
   6223SM  H12T 7948   4.154   3.837  14.569 -1.6475  0.4871  1.1184
   6223SM  C13S 7949   4.035   3.678  14.474 -0.3373 -0.4383 -0.5998
   6223SM  H13S 7950   4.021   3.568  14.476 -1.2627 -0.3245  0.4686
   6223SM  H13T 7951   4.068   3.709  14.373 -0.7822  0.3567 -0.5064
   6223SM  C14S 7952   3.892   3.739  14.479  0.6121  0.3938 -0.0756
   6223SM  H14S 7953   3.899   3.850  14.482 -0.3437  0.4555  0.3082
   6223SM  H14T 7954   3.839   3.725  14.576 -1.3378  2.5910 -0.7067
   6223SM  C15S 7955   3.790   3.675  14.382 -0.8686  0.4545 -0.3636
   6223SM  H15S 7956   3.689   3.707  14.414 -0.9388 -0.2327  0.1293
   6223SM  H15T 7957   3.793   3.564  14.386 -0.9602  0.3988 -1.4659
   6223SM  C16S 7958   3.811   3.715  14.234 -0.4100 -0.0258 -0.4015
   6223SM  H16S 7959   3.919   3.698  14.215  0.4308 -0.4113  3.7552
   6223SM  H16T 7960   3.802   3.825  14.222 -1.2243  0.1751  1.6643
   6223SM  C17S 7961   3.709   3.645  14.139 -0.6965 -0.1070  0.7980
   6223SM  H17S 7962   3.605   3.659  14.173 -0.4306  0.8953  1.2407
   6223SM  H17T 7963   3.726   3.535  14.136 -0.6595 -0.2125  2.9993
   6223SM  C18S 7964   3.734   3.692  13.997  0.0608 -0.1805  0.1448
   6223SM  H18S 7965   3.828   3.660  13.946 -1.5828 -2.3595 -1.7262
   6223SM  H18T 7966   3.741   3.803  13.989  2.3600 -0.3753 -1.7928
   6223SM  H18U 7967   3.652   3.666  13.927 -0.3770 -0.2772  0.6915
   6223SM   C1F 7968   3.589   3.948  15.609  0.4377  0.0068 -0.2446
   6223SM    OF 7969   3.549   4.056  15.651  0.1204 -0.2569  0.4440
   6223SM   C2F 7970   3.492   3.850  15.538  0.1562 -0.3144 -0.1746
   6223SM   H2F 7971   3.413   3.849  15.616  0.5747 -0.7645  0.2545
   6223SM   H2G 7972   3.543   3.754  15.513  2.0928  0.3994  0.8218
   6223SM   C3F 7973   3.432   3.917  15.411 -0.1059 -0.0952  0.5511
   6223SM   H3F 7974   3.366   4.001  15.439  0.6675  0.6696  0.1149
   6223SM   H3G 7975   3.377   3.833  15.363  0.2182  0.8607 -1.5600
   6223SM   C4F 7976   3.536   3.966  15.301 -0.1158  0.1173 -0.2969
   6223SM   H4F 7977   3.628   3.905  15.306  1.3739  2.1898 -0.9819
   6223SM   H4G 7978   3.564   4.071  15.324  0.5421  0.0434 -0.7348
   6223SM   C5F 7979   3.471   3.967  15.157  0.0718 -0.3615 -0.0947
   6223SM   H5F 7980   3.400   4.053  15.157 -0.1560 -0.5145 -2.1975
   6223SM   H5G 7981   3.417   3.874  15.130  0.8381 -0.0549 -3.0410
   6223SM   C6F 7982   3.574   4.007  15.054  0.2928  0.0651 -0.2222
   6223SM   H6F 7983   3.659   3.935  15.063 -1.0639 -1.6650 -0.7874
   6223SM   H6G 7984   3.612   4.111  15.067  0.1569  0.5184 -2.7711
   6223SM   C7F 7985   3.525   3.998  14.911  0.9498 -0.3807 -0.1986
   6223SM   H7F 7986   3.447   4.074  14.889  1.8696  0.1525 -1.7556
   6223SM   H7G 7987   3.474   3.900  14.901  0.4276 -0.2893  1.2707
   6223SM   C8F 7988   3.625   4.021  14.799 -0.1811 -0.2479 -0.2717
   6223SM   H8F 7989   3.688   3.930  14.791 -0.1894 -0.1486 -1.5954
   6223SM   H8G 7990   3.694   4.106  14.817  2.3717 -2.0857 -0.9015
   6223SM   C9F 7991   3.551   4.057  14.670  1.3622 -0.2131 -0.4525
   6223SM   H9F 7992   3.495   4.147  14.701  1.5969 -0.2455  0.0856
   6223SM   H9G 7993   3.478   3.978  14.643  0.1997  0.1184  1.4732
   6223SM  C10F 7994   3.639   4.095  14.553 -0.1299  1.0864 -0.5702
   6223SM  H10F 7995   3.690   4.006  14.510  1.3597  1.8873 -0.5350
   6223SM  H10G 7996   3.720   4.166  14.582 -0.2071  1.0933 -0.3741
   6223SM  C11F 7997   3.564   4.163  14.437 -0.1017 -0.7734  0.9828
   6223SM  H11F 7998   3.554   4.273  14.448 -0.6723 -0.5148 -1.5112
   6223SM  H11G 7999   3.462   4.120  14.422  0.0685 -0.8821  0.1178
   6223SM  C12F 8000   3.639   4.145  14.305  0.0656  0.2734  0.6029
   6223SM  H12F 8001   3.656   4.039  14.277  0.7463  0.8959 -1.6136
   6223SM  H12G 8002   3.744   4.177  14.324  0.8445 -1.4535 -0.5623
   6223SM  C13F 8003   3.588   4.214  14.181  0.2212  0.9415 -0.1573
   6223SM  H13F 8004   3.547   4.315  14.200 -1.8189  0.3137 -0.9179
   6223SM  H13G 8005   3.505   4.148  14.150  0.8981 -0.6273  1.2211
   6223SM  C14F 8006   3.687   4.219  14.069 -0.3796 -0.3108 -0.0681
   6223SM  H14F 8007   3.783   4.263  14.104 -0.3395 -0.6658  0.2909
   6223SM  H14G 8008   3.655   4.290  13.991  1.9627  0.3976 -0.4701
   6223SM  C15F 8009   3.711   4.086  13.994  0.9969 -0.0760  0.2294
   6223SM  H15F 8010   3.763   4.013  14.060 -0.5271 -0.6108  0.9079
   6223SM  H15G 8011   3.786   4.095  13.913 -0.2259 -0.8950 -1.0336
   6223SM  C16F 8012   3.585   4.031  13.926 -0.1604  0.2785  0.6470
   6223SM  H16F 8013   3.507   4.109  13.912 -0.6148 -0.6029 -2.9154
   6223SM  H16G 8014   3.543   3.951  13.991  0.4198  0.3923  1.1617
   6223SM  C17F 8015   3.600   3.977  13.780  0.1229  0.9092  0.3699
   6223SM  H17F 8016   3.684   3.905  13.764 -0.5386  0.0549  0.7198
   6223SM  H17G 8017   3.619   4.065  13.713  1.3562 -0.4602 -1.1808
   6223SM  C18F 8018   3.468   3.911  13.729  0.5953 -0.7730  0.2947
   6223SM  H18F 8019   3.395   3.994  13.738  0.1171 -0.8764 -1.8495
   6223SM  H18G 8020   3.427   3.833  13.797 -2.7736  1.2268  0.7547
   6223SM  C19F 8021   3.476   3.873  13.584 -0.0471 -0.5154  0.1743
   6223SM  H19F 8022   3.535   3.779  13.576  0.3764 -0.2517  0.1821
   6223SM  H19G 8023   3.535   3.953  13.536  1.8982 -2.5279 -0.9968
   6223SM  C20F 8024   3.338   3.870  13.517 -0.2849 -0.3761  0.3216
   6223SM  H20F 8025   3.299   3.973  13.531  0.6055 -0.3164  2.8914
   6223SM  H20G 8026   3.273   3.799  13.571 -2.7741  1.7858  0.4040
   6223SM  C21F 8027   3.340   3.826  13.365  0.2623  0.0299 -0.5832
   6223SM  H21F 8028   3.359   3.717  13.357 -0.6273 -0.2814  1.0823
   6223SM  H21G 8029   3.434   3.870  13.324  1.1128 -0.9277  0.2762
   6223SM  C22F 8030   3.219   3.890  13.291 -0.1856  0.0112  0.1592
   6223SM  H22F 8031   3.246   3.997  13.284 -0.1879  0.0340  0.4938
   6223SM  H22G 8032   3.123   3.887  13.346 -0.2578  0.8947  0.0927
   6223SM  C23F 8033   3.203   3.836  13.149  0.2725  0.5194  0.0713
   6223SM  H23F 8034   3.304   3.813  13.109  0.4627 -0.1360  0.8801
   6223SM  H23G 8035   3.147   3.894  13.074 -1.0368 -0.5562  0.1791
   6223SM  H23H 8036   3.133   3.750  13.152 -0.0445  0.7800  0.1337
   6323SM     N 8037   3.935   6.544  16.085 -0.1846 -0.4342  0.0278
   6323SM   C15 8038   3.902   6.401  16.121 -0.4407  0.3140  0.4754
   6323SM  H15A 8039   3.812   6.364  16.075  0.1309 -1.0806  0.4296
   6323SM  H15B 8040   3.888   6.402  16.228 -1.9839 -2.5684  0.4013
   6323SM  H15C 8041   3.986   6.335  16.101 -1.7440 -0.5874 -2.6474
   6323SM   C14 8042   3.948   6.566  15.936 -0.3474 -0.6244  0.2406
   6323SM  H14A 8043   3.855   6.550  15.882 -0.0826  1.0905 -0.7973
   6323SM  H14B 8044   4.019   6.501  15.887 -1.0897  0.1226 -1.9479
   6323SM  H14C 8045   3.983   6.664  15.910  2.3864 -1.2544  1.1705
   6323SM   C13 8046   3.814   6.620  16.133  0.2922 -0.5451  0.1246
   6323SM  H13A 8047   3.789   6.587  16.233  0.5197 -1.6381 -0.1591
   6323SM  H13B 8048   3.733   6.603  16.063  1.4764  0.4940 -1.5653
   6323SM  H13C 8049   3.830   6.726  16.131 -1.1477 -0.3094  0.1644
   6323SM   C12 8050   4.062   6.586  16.165 -0.1774  0.2752  1.1194
   6323SM  H12A 8051   4.140   6.515  16.144 -1.3270 -1.3349  2.0917
   6323SM  H12B 8052   4.047   6.574  16.271 -0.6054 -0.6377  0.9719
   6323SM   C11 8053   4.126   6.730  16.130 -0.8163 -0.3296 -0.4308
   6323SM  H11A 8054   4.198   6.750  16.212 -1.7856  1.6358 -0.0006
   6323SM  H11B 8055   4.041   6.800  16.144 -1.8277 -1.7920  1.2065
   6323SM     P 8056   4.302   6.629  15.960 -0.0739  0.4220 -0.1014
   6323SM   O13 8057   4.437   6.690  15.970  0.4675 -0.1603  0.0532
   6323SM   O14 8058   4.293   6.502  16.034  0.3913 -0.1288 -0.1311
   6323SM   O11 8059   4.277   6.603  15.807 -0.3399  0.6813 -0.0793
   6323SM   O12 8060   4.188   6.736  16.007 -0.5299  0.0448  0.5957
   6323SM   C1S 8061   4.268   6.715  15.722 -0.1389 -0.4169  0.2312
   6323SM   H1S 8062   4.359   6.777  15.715 -1.5285  1.5711 -1.3710
   6323SM   H1T 8063   4.185   6.778  15.758 -0.7143  0.2871 -2.1201
   6323SM    NF 8064   4.217   6.789  15.490  0.0613 -0.2322  0.5233
   6323SM   HNF 8065   4.125   6.825  15.477  0.1528  0.3415  1.4347
   6323SM   C2S 8066   4.219   6.669  15.581 -0.3069 -0.2033  0.2612
   6323SM   H2S 8067   4.296   6.601  15.538  0.5963  0.2225  1.1681
   6323SM   C3S 8068   4.089   6.598  15.584 -0.0679  0.8358  0.1722
   6323SM   H3S 8069   4.013   6.672  15.618 -1.7204 -0.7972  0.1855
   6323SM    O3 8070   4.091   6.492  15.684  0.6033  0.2729  0.6569
   6323SM   HO3 8071   4.180   6.502  15.720  0.0528  0.1881  2.0881
   6323SM   C4S 8072   4.057   6.535  15.446  0.4227 -0.0108 -0.1729
   6323SM   H4S 8073   4.119   6.448  15.420  0.8178 -0.1860  1.2473
   6323SM   C5S 8074   3.952   6.578  15.369 -1.5081  0.3902  0.1802
   6323SM   H5S 8075   3.887   6.658  15.409 -1.7184  0.4604 -0.2954
   6323SM   C6S 8076   3.896   6.504  15.250  0.5229 -0.6217  0.3866
   6323SM   H6S 8077   3.918   6.569  15.163 -0.0263 -1.6577 -0.5520
   6323SM   H6T 8078   3.786   6.494  15.258  0.3239  1.9552  1.8195
   6323SM   C7S 8079   3.963   6.369  15.222  0.3782  0.1939 -0.9815
   6323SM   H7S 8080   3.945   6.300  15.307  0.1717  0.6278 -0.6690
   6323SM   H7T 8081   4.072   6.390  15.217  0.8138 -1.0053  1.6092
   6323SM   C8S 8082   3.900   6.308  15.095 -0.0209 -0.5959  0.6061
   6323SM   H8S 8083   3.898   6.378  15.009 -0.1593 -0.6466  0.5674
   6323SM   H8T 8084   3.796   6.283  15.126 -0.2130 -2.6050 -1.4310
   6323SM   C9S 8085   3.963   6.176  15.043  0.3969 -0.0196 -0.6519
   6323SM   H9S 8086   3.895   6.136  14.965 -1.0481  0.1566  0.4908
   6323SM   H9T 8087   3.975   6.102  15.125 -0.6964  0.0230 -0.4451
   6323SM  C10S 8088   4.092   6.208  14.979 -0.1025  0.0498  0.1090
   6323SM  H10S 8089   4.161   6.241  15.060  0.3130 -2.5033  0.8901
   6323SM  H10T 8090   4.093   6.286  14.900 -0.3280 -0.8822 -0.8308
   6323SM  C11S 8091   4.165   6.078  14.918  0.1205  0.2192  0.3819
   6323SM  H11S 8092   4.090   6.024  14.857 -1.1516  2.4570 -0.1492
   6323SM  H11T 8093   4.198   6.007  14.997  1.9453 -0.2303 -0.7155
   6323SM  C12S 8094   4.286   6.102  14.828  0.4876  0.4937 -0.2254
   6323SM  H12S 8095   4.358   6.172  14.874 -0.6590  0.1640  2.2657
   6323SM  H12T 8096   4.248   6.159  14.741  2.2657 -3.4451 -3.9374
   6323SM  C13S 8097   4.339   5.972  14.769  0.4781  0.4295  0.1085
   6323SM  H13S 8098   4.247   5.912  14.756  0.4650  0.5469 -0.3527
   6323SM  H13T 8099   4.401   5.917  14.843 -0.2823  0.5519  0.8441
   6323SM  C14S 8100   4.422   5.994  14.641  0.0382  0.3625  0.2952
   6323SM  H14S 8101   4.362   6.053  14.569 -1.6861  0.1516  1.5030
   6323SM  H14T 8102   4.442   5.890  14.608 -0.8585  0.6412 -1.2085
   6323SM  C15S 8103   4.554   6.064  14.672 -0.5856 -0.4371 -0.0502
   6323SM  H15S 8104   4.611   6.019  14.756  0.0083  0.6001  0.1133
   6323SM  H15T 8105   4.536   6.162  14.721 -1.0977 -0.3756 -0.3452
   6323SM  C16S 8106   4.652   6.085  14.552 -0.3752  0.0356 -0.7195
   6323SM  H16S 8107   4.610   6.149  14.471  1.2017  0.6697 -1.0798
   6323SM  H16T 8108   4.687   5.984  14.522  1.4231  0.1407  0.8629
   6323SM  C17S 8109   4.783   6.150  14.598 -0.6567 -0.4650  0.2689
   6323SM  H17S 8110   4.838   6.091  14.675  1.0823 -0.5890 -1.0103
   6323SM  H17T 8111   4.774   6.252  14.643  0.3970  0.4203 -1.4133
   6323SM  C18S 8112   4.872   6.164  14.468  0.2522 -0.4544  0.3366
   6323SM  H18S 8113   4.868   6.077  14.399  0.8839 -0.4761  0.3271
   6323SM  H18T 8114   4.978   6.159  14.501  0.5952 -0.2532 -0.6986
   6323SM  H18U 8115   4.850   6.263  14.421  1.0174  0.0937  1.0965
   6323SM   C1F 8116   4.331   6.851  15.453 -0.5750 -0.1533 -0.4011
   6323SM    OF 8117   4.439   6.800  15.492 -0.0819  0.2210 -0.1617
   6323SM   C2F 8118   4.316   6.984  15.378 -0.1287  1.0462 -0.0501
   6323SM   H2F 8119   4.294   7.057  15.459  0.2165 -0.9660  1.9736
   6323SM   H2G 8120   4.226   6.967  15.315 -0.6676  0.5358  0.8383
   6323SM   C3F 8121   4.440   7.017  15.298  0.5599 -0.6238  0.0855
   6323SM   H3F 8122   4.520   7.058  15.363  0.4773 -0.9710  0.4160
   6323SM   H3G 8123   4.394   7.096  15.235  0.8431 -0.1732  0.4343
   6323SM   C4F 8124   4.486   6.906  15.196 -0.7308 -0.1868 -0.6772
   6323SM   H4F 8125   4.545   6.823  15.240  2.5213  0.9995 -2.4644
   6323SM   H4G 8126   4.556   6.945  15.119 -2.0809  1.3951 -1.1824
   6323SM   C5F 8127   4.375   6.830  15.114 -1.4002 -0.0366 -0.3461
   6323SM   H5F 8128   4.329   6.909  15.051 -0.9247  0.3178 -0.2541
   6323SM   H5G 8129   4.287   6.793  15.171 -2.0208 -0.8639 -1.7765
   6323SM   C6F 8130   4.424   6.712  15.028  0.1989 -0.4819 -0.2041
   6323SM   H6F 8131   4.479   6.647  15.100  1.2214 -0.1033 -0.6123
   6323SM   H6G 8132   4.510   6.747  14.966  1.7414  0.5350  2.2921
   6323SM   C7F 8133   4.323   6.629  14.954  0.0026 -0.0196 -0.1839
   6323SM   H7F 8134   4.256   6.704  14.905 -0.0625  0.0621  0.0290
   6323SM   H7G 8135   4.277   6.559  15.026  1.9146 -0.2044  0.9165
   6323SM   C8F 8136   4.387   6.538  14.845 -1.1021 -0.1477  0.5530
   6323SM   H8F 8137   4.301   6.487  14.796  0.0083  0.0788 -1.7873
   6323SM   H8G 8138   4.455   6.466  14.896 -2.2357 -0.1649  2.0981
   6323SM   C9F 8139   4.466   6.601  14.724  0.0286  0.9222 -0.4733
   6323SM   H9F 8140   4.562   6.647  14.755  1.7340 -1.3389 -2.0510
   6323SM   H9G 8141   4.392   6.664  14.670 -0.3992  1.0676  0.2700
   6323SM  C10F 8142   4.508   6.489  14.628  0.2891 -0.7095 -0.3623
   6323SM  H10F 8143   4.425   6.416  14.624 -0.8050  0.2492  2.2892
   6323SM  H10G 8144   4.595   6.441  14.678  1.0209  0.0381 -0.8985
   6323SM  C11F 8145   4.572   6.548  14.497  0.4030  0.5014  0.0376
   6323SM  H11F 8146   4.670   6.589  14.530 -0.0736  0.0537  2.1162
   6323SM  H11G 8147   4.501   6.627  14.463 -3.8870 -2.6226  0.8366
   6323SM  C12F 8148   4.592   6.446  14.387 -0.8097  0.5081  0.5801
   6323SM  H12F 8149   4.655   6.372  14.441 -1.4076 -0.5477 -0.1386
   6323SM  H12G 8150   4.643   6.495  14.301 -1.5557 -0.4099 -0.4107
   6323SM  C13F 8151   4.468   6.375  14.330 -0.5428 -0.0232  0.4458
   6323SM  H13F 8152   4.386   6.449  14.316  1.3931  2.4497  1.4324
   6323SM  H13G 8153   4.434   6.297  14.401  0.7653  2.5518  4.2292
   6323SM  C14F 8154   4.513   6.309  14.202 -0.0429 -0.4000 -0.3390
   6323SM  H14F 8155   4.574   6.217  14.214 -2.5155 -2.1039 -0.0177
   6323SM  H14G 8156   4.568   6.377  14.134 -0.1967  0.3389  0.2670
   6323SM  C15F 8157   4.394   6.266  14.115 -0.0171  0.4499  0.1789
   6323SM  H15F 8158   4.336   6.359  14.092  0.5094  1.0142  1.0832
   6323SM  H15G 8159   4.332   6.192  14.169 -0.7851 -0.7928 -2.2330
   6323SM  C16F 8160   4.452   6.216  13.977  0.2476  0.0156  0.3096
   6323SM  H16F 8161   4.542   6.154  13.999  1.1665  0.7771 -1.1121
   6323SM  H16G 8162   4.474   6.304  13.913 -0.6119 -1.8709 -2.7693
   6323SM  C17F 8163   4.344   6.145  13.888 -0.3913 -0.6861  0.0248
   6323SM  H17F 8164   4.261   6.209  13.853  1.2261  0.8803 -1.1500
   6323SM  H17G 8165   4.314   6.053  13.942  2.8820 -1.2710  1.1034
   6323SM  C18F 8166   4.410   6.090  13.759 -0.4114  0.0507  0.2612
   6323SM  H18F 8167   4.473   5.999  13.775  0.2329  0.5653  0.7157
   6323SM  H18G 8168   4.481   6.168  13.724 -1.6554  1.2809  0.4261
   6323SM  C19F 8169   4.303   6.049  13.652  0.1787  0.0261 -0.3496
   6323SM  H19F 8170   4.222   6.121  13.628  0.5159  0.3661 -0.4802
   6323SM  H19G 8171   4.243   5.972  13.705  1.3252 -1.3734 -0.9979
   6323SM  C20F 8172   4.365   6.010  13.515 -0.1301  0.2437 -0.0420
   6323SM  H20F 8173   4.454   5.945  13.528  1.7389  2.0609 -2.6508
   6323SM  H20G 8174   4.399   6.108  13.474  0.4534  1.2190  2.5387
   6323SM  C21F 8175   4.270   5.947  13.425 -0.5524  0.5867 -0.4738
   6323SM  H21F 8176   4.190   6.016  13.391 -1.1324  0.1621  0.0081
   6323SM  H21G 8177   4.214   5.863  13.471 -1.4886  1.0769 -0.6866
   6323SM  C22F 8178   4.329   5.898  13.293  0.3328  0.4249  0.0249
   6323SM  H22F 8179   4.419   5.834  13.298  0.7187  1.0231  0.9674
   6323SM  H22G 8180   4.364   5.983  13.231  0.6205  1.5645  1.6848
   6323SM  C23F 8181   4.219   5.830  13.208 -0.3962  0.1278  0.1467
   6323SM  H23F 8182   4.206   5.726  13.244 -1.3829  0.0104 -0.5251
   6323SM  H23G 8183   4.257   5.833  13.103 -1.7665  1.3036 -0.3448
   6323SM  H23H 8184   4.134   5.901  13.213 -0.2038  0.8624 -3.6499
   6423SM     N 8185   4.799   3.904  16.321 -0.1637  0.0738 -0.1734
   6423SM   C15 8186   4.792   3.765  16.379 -0.2487  0.6167  0.4579
   6423SM  H15A 8187   4.855   3.688  16.336 -1.5779 -0.9297  1.2272
   6423SM  H15B 8188   4.691   3.733  16.363  0.6009 -1.4712 -1.2253
   6423SM  H15C 8189   4.817   3.770  16.484  2.8442 -0.8147 -0.0806
   6423SM   C14 8190   4.679   3.976  16.378  0.0223 -0.9516 -0.6794
   6423SM  H14A 8191   4.675   3.935  16.477 -0.5649  3.5006  1.3872
   6423SM  H14B 8192   4.587   3.936  16.337  0.0096 -1.0410 -0.5631
   6423SM  H14C 8193   4.686   4.083  16.368  0.0658 -1.0490 -1.8904
   6423SM   C13 8194   4.920   3.976  16.353 -0.1436 -0.0478  0.6161
   6423SM  H13A 8195   4.943   4.049  16.276 -0.6214 -1.2165 -0.6656
   6423SM  H13B 8196   5.003   3.908  16.365  0.7822  1.1375  1.1464
   6423SM  H13C 8197   4.905   4.020  16.450 -0.1296 -1.1105  1.1069
   6423SM   C12 8198   4.791   3.890  16.169  0.0903 -0.8053 -0.3746
   6423SM  H12A 8199   4.695   3.848  16.141 -0.1928 -2.3604  2.4965
   6423SM  H12B 8200   4.863   3.815  16.142  2.0443  0.9886 -0.4443
   6423SM   C11 8201   4.825   4.013  16.086 -0.0511  0.1329  0.3277
   6423SM  H11A 8202   4.761   4.098  16.118  0.5518  0.8315 -0.2722
   6423SM  H11B 8203   4.775   3.987  15.990  0.8668 -0.5189  0.0176
   6423SM     P 8204   5.052   3.925  15.993 -0.1766  0.2727 -0.2259
   6423SM   O13 8205   5.170   3.990  15.936  0.2895 -0.1426  0.0771
   6423SM   O14 8206   5.076   3.799  16.069 -0.0775  0.1486 -0.1293
   6423SM   O11 8207   4.952   3.886  15.871  0.1110  0.5269 -0.0665
   6423SM   O12 8208   4.967   4.029  16.078 -0.0803 -0.4548  0.1832
   6423SM   C1S 8209   4.926   3.963  15.758  0.1705  0.3928  0.3646
   6423SM   H1S 8210   5.026   3.963  15.709  0.2171 -1.1949  0.4120
   6423SM   H1T 8211   4.902   4.069  15.784  1.1615  0.9404 -0.8326
   6423SM    NF 8212   4.818   3.989  15.533 -0.1798 -0.2232 -0.3397
   6423SM   HNF 8213   4.730   4.031  15.515  1.5766  2.3766 -4.0801
   6423SM   C2S 8214   4.830   3.898  15.651  0.1111 -0.6033 -0.3438
   6423SM   H2S 8215   4.892   3.818  15.605  1.4314 -0.4819  1.1200
   6423SM   C3S 8216   4.706   3.845  15.713 -0.3786  0.1553 -1.3680
   6423SM   H3S 8217   4.649   3.927  15.762 -0.6165 -1.1274  0.6127
   6423SM    O3 8218   4.731   3.747  15.818  0.2146  0.1243 -0.7523
   6423SM   HO3 8219   4.823   3.756  15.841  0.5745 -1.1277 -1.6050
   6423SM   C4S 8220   4.614   3.781  15.615 -0.0690 -1.1788  0.1416
   6423SM   H4S 8221   4.533   3.844  15.574 -0.6042 -2.5989 -1.0528
   6423SM   C5S 8222   4.612   3.654  15.574 -0.6303 -0.1976 -0.0286
   6423SM   H5S 8223   4.693   3.590  15.613 -0.2316  0.6663  0.5854
   6423SM   C6S 8224   4.526   3.587  15.466 -0.9283  0.3573 -0.5754
   6423SM   H6S 8225   4.432   3.645  15.448 -1.7357 -1.3396 -2.0747
   6423SM   H6T 8226   4.492   3.487  15.502 -1.7393  0.2091 -1.7136
   6423SM   C7S 8227   4.604   3.575  15.330  0.1797 -0.1435 -0.0009
   6423SM   H7S 8228   4.697   3.518  15.347 -0.3164 -0.6113  1.2023
   6423SM   H7T 8229   4.633   3.677  15.297 -1.2964 -0.0917 -1.2846
   6423SM   C8S 8230   4.517   3.523  15.224 -0.3749  0.4867  0.9504
   6423SM   H8S 8231   4.421   3.578  15.222 -0.9397 -0.4759  0.6252
   6423SM   H8T 8232   4.491   3.415  15.231  1.4723 -0.2660 -1.8458
   6423SM   C9S 8233   4.584   3.537  15.083  0.4383  0.2664 -0.1999
   6423SM   H9S 8234   4.681   3.482  15.087  2.0139  2.9365  2.1150
   6423SM   H9T 8235   4.611   3.643  15.063 -3.7730  1.6624  0.5106
   6423SM  C10S 8236   4.492   3.478  14.980 -0.3711 -0.5356 -0.1159
   6423SM  H10S 8237   4.391   3.523  14.984 -0.2235 -0.2593  0.5917
   6423SM  H10T 8238   4.482   3.373  15.015  0.3205 -0.5294  0.1329
   6423SM  C11S 8239   4.563   3.485  14.850 -0.1941 -0.1117  0.2846
   6423SM  H11S 8240   4.658   3.429  14.842 -0.5458 -0.9019  1.4754
   6423SM  H11T 8241   4.578   3.595  14.837 -0.2407 -0.1383  0.0075
   6423SM  C12S 8242   4.474   3.445  14.730 -0.4921 -0.3817 -0.3259
   6423SM  H12S 8243   4.375   3.494  14.741 -0.8988 -1.2959  0.2675
   6423SM  H12T 8244   4.466   3.334  14.733 -1.0674 -0.3396  2.4695
   6423SM  C13S 8245   4.555   3.483  14.607  0.3127 -1.1979  0.9326
   6423SM  H13S 8246   4.647   3.422  14.617 -1.1000 -3.4207  1.1180
   6423SM  H13T 8247   4.581   3.591  14.610 -0.9649 -0.8348 -0.3341
   6423SM  C14S 8248   4.479   3.451  14.474  0.2968 -0.4153 -0.8543
   6423SM  H14S 8249   4.429   3.548  14.454  3.5738  1.3177 -1.2756
   6423SM  H14T 8250   4.409   3.369  14.503  0.7549 -0.1664  1.1168
   6423SM  C15S 8251   4.582   3.426  14.366 -0.2199  0.6844 -0.1172
   6423SM  H15S 8252   4.651   3.349  14.406  1.0930  0.9543 -1.6991
   6423SM  H15T 8253   4.646   3.516  14.348 -1.6614  1.6269 -0.7153
   6423SM  C16S 8254   4.516   3.392  14.234  1.3965  0.5119 -0.1305
   6423SM  H16S 8255   4.452   3.480  14.216 -0.2407 -0.3068  1.3737
   6423SM  H16T 8256   4.444   3.310  14.257  0.1404  1.1770 -1.5139
   6423SM  C17S 8257   4.611   3.336  14.127 -0.0298  0.5236 -0.0961
   6423SM  H17S 8258   4.676   3.263  14.180 -1.8971 -2.4350 -1.5934
   6423SM  H17T 8259   4.677   3.418  14.093  1.0293 -0.6974 -1.0932
   6423SM  C18S 8260   4.545   3.280  14.001 -0.0336  0.9912 -0.1861
   6423SM  H18S 8261   4.475   3.197  14.022  1.1356  0.6280  2.7834
   6423SM  H18T 8262   4.623   3.236  13.936 -2.5460 -1.4928 -1.6933
   6423SM  H18U 8263   4.478   3.353  13.950  0.4454 -0.5854 -3.3046
   6423SM   C1F 8264   4.916   4.031  15.453  0.1888  0.4613 -0.5866
   6423SM    OF 8265   5.027   3.976  15.451  0.6580  0.1409 -0.1097
   6423SM   C2F 8266   4.876   4.133  15.344  0.0376  0.0005 -0.0575
   6423SM   H2F 8267   4.884   4.241  15.369  0.4784  0.1801 -0.9558
   6423SM   H2G 8268   4.769   4.112  15.328  0.3690 -0.7541 -1.3722
   6423SM   C3F 8269   4.942   4.097  15.198  0.3435 -0.0665  0.7944
   6423SM   H3F 8270   4.935   3.988  15.178 -1.9030 -0.3883  2.8848
   6423SM   H3G 8271   5.052   4.114  15.208  0.4006  1.0782 -1.1939
   6423SM   C4F 8272   4.874   4.183  15.093 -0.3871 -0.3332  0.4248
   6423SM   H4F 8273   4.874   4.288  15.129 -0.8401 -0.4350  0.7220
   6423SM   H4G 8274   4.770   4.146  15.084 -0.7290  0.9143 -1.1099
   6423SM   C5F 8275   4.948   4.173  14.951 -0.0146  0.2975  0.0211
   6423SM   H5F 8276   4.896   4.255  14.898  1.3017  2.4862  1.8861
   6423SM   H5G 8277   4.924   4.077  14.902 -0.3496  1.7853 -2.9566
   6423SM   C6F 8278   5.101   4.199  14.956  0.9262  0.5818  0.8161
   6423SM   H6F 8279   5.138   4.173  14.855 -1.3948  0.3371 -0.0405
   6423SM   H6G 8280   5.145   4.130  15.031  0.3156  0.9824  1.5560
   6423SM   C7F 8281   5.127   4.352  14.989 -0.4403  0.0731 -0.3392
   6423SM   H7F 8282   5.081   4.372  15.088  0.9512 -0.4221  0.4258
   6423SM   H7G 8283   5.066   4.409  14.915 -1.3159 -1.5081 -0.8693
   6423SM   C8F 8284   5.276   4.391  14.981 -0.7333 -0.4155 -0.7523
   6423SM   H8F 8285   5.286   4.499  14.960  2.1645 -0.1923  1.2583
   6423SM   H8G 8286   5.319   4.337  14.894 -0.0273  2.6149 -2.3963
   6423SM   C9F 8287   5.341   4.368  15.115  0.2129  0.2615 -0.4128
   6423SM   H9F 8288   5.339   4.258  15.129 -1.0315  0.3441  0.2307
   6423SM   H9G 8289   5.285   4.421  15.195 -1.0476 -0.0775 -1.0446
   6423SM  C10F 8290   5.487   4.423  15.117 -0.3750  0.2826  0.3941
   6423SM  H10F 8291   5.509   4.434  15.225  1.2936  0.6240  0.0455
   6423SM  H10G 8292   5.496   4.523  15.070 -0.8112 -0.5939 -1.6501
   6423SM  C11F 8293   5.578   4.316  15.054  0.5317  0.1416  0.2694
   6423SM  H11F 8294   5.563   4.315  14.944 -1.6486 -2.6077  0.4917
   6423SM  H11G 8295   5.552   4.215  15.091 -1.6651  1.3569  2.3339
   6423SM  C12F 8296   5.722   4.364  15.074  0.2295 -0.0543  0.0839
   6423SM  H12F 8297   5.760   4.370  15.178 -0.9328  0.7631  0.4726
   6423SM  H12G 8298   5.730   4.468  15.038  0.8922  0.1164  0.7033
   6423SM  C13F 8299   5.823   4.282  14.992  0.2473  0.3625 -0.0258
   6423SM  H13F 8300   5.920   4.335  14.983 -0.4605  1.6624 -0.2904
   6423SM  H13G 8301   5.789   4.284  14.886  1.3750 -0.6619 -0.4278
   6423SM  C14F 8302   5.860   4.155  15.049 -0.1449  0.0409 -0.1565
   6423SM  H14F 8303   5.772   4.087  15.054  0.6353 -1.1183 -1.4486
   6423SM  H14G 8304   5.898   4.172  15.152 -1.2011 -3.0589  0.8835
   6423SM  C15F 8305   5.968   4.084  14.960  0.0266  0.1874  0.1120
   6423SM  H15F 8306   5.921   4.089  14.860 -1.6847 -0.0698  0.8506
   6423SM  H15G 8307   5.983   3.974  14.971  3.4637  0.4901 -0.5902
   6423SM  C16F 8308   6.110   4.136  14.952 -0.4874 -0.4716  0.0968
   6423SM  H16F 8309   6.143   4.175  15.051  1.4764  2.5491 -1.6287
   6423SM  H16G 8310   6.114   4.227  14.889  1.2617  0.9486  2.1251
   6423SM  C17F 8311   6.215   4.027  14.906 -1.0643  0.2318  0.0737
   6423SM  H17F 8312   6.214   3.953  14.989 -1.9022  0.2189  0.0585
   6423SM  H17G 8313   6.313   4.079  14.916 -0.4149 -0.6276 -1.4919
   6423SM  C18F 8314   6.190   3.959  14.772 -0.1374 -0.0457 -0.1391
   6423SM  H18F 8315   6.189   4.033  14.690  1.4093 -0.1478 -0.2723
   6423SM  H18G 8316   6.089   3.915  14.786 -0.0306 -0.2160  0.1208
   6423SM  C19F 8317   6.286   3.849  14.738 -0.7378  0.0305 -0.2471
   6423SM  H19F 8318   6.251   3.812  14.639  0.4088  0.0632 -0.6908
   6423SM  H19G 8319   6.297   3.764  14.808  2.6353  1.0827  0.6995
   6423SM  C20F 8320   6.426   3.913  14.713 -0.4995 -0.5228  0.0210
   6423SM  H20F 8321   6.492   3.933  14.800  1.9387 -0.2744 -1.8084
   6423SM  H20G 8322   6.419   4.011  14.660  2.6195  0.1957  0.7589
   6423SM  C21F 8323   6.505   3.823  14.613  0.6023  0.1315 -0.6204
   6423SM  H21F 8324   6.458   3.838  14.514  1.2210 -0.9153 -1.0918
   6423SM  H21G 8325   6.504   3.713  14.630  1.3239  0.3029  0.6965
   6423SM  C22F 8326   6.654   3.859  14.603 -0.5456 -0.5065  0.3780
   6423SM  H22F 8327   6.699   3.828  14.700 -1.3630 -1.0125  0.6111
   6423SM  H22G 8328   6.668   3.969  14.595 -0.4380 -0.6073 -1.0395
   6423SM  C23F 8329   6.722   3.786  14.486 -0.1909 -0.0495 -0.1024
   6423SM  H23F 8330   6.708   3.676  14.492 -0.6869  0.0763  1.4643
   6423SM  H23G 8331   6.826   3.825  14.483  0.3860 -1.2089  2.1362
   6423SM  H23H 8332   6.667   3.814  14.393 -1.4700  2.8242  1.4031
   6523SM     N 8333   4.960   5.703  16.079 -0.3847  0.3194 -0.4922
   6523SM   C15 8334   5.102   5.703  16.123  0.5754  0.0472  0.4485
   6523SM  H15A 8335   5.125   5.657  16.218 -1.3303 -1.3526  0.2687
   6523SM  H15B 8336   5.145   5.802  16.118 -0.9038  0.6592 -1.0200
   6523SM  H15C 8337   5.156   5.641  16.053 -1.1278 -0.0117 -0.8575
   6523SM   C14 8338   4.943   5.767  15.948  0.9350 -0.1754 -0.0494
   6523SM  H14A 8339   4.836   5.768  15.933  0.9887 -2.2335 -0.8597
   6523SM  H14B 8340   4.990   5.710  15.869  0.5733  0.3490 -0.6577
   6523SM  H14C 8341   4.981   5.868  15.942 -2.1820  1.1458  0.2453
   6523SM   C13 8342   4.912   5.560  16.061  0.6486 -0.4264 -1.0058
   6523SM  H13A 8343   4.979   5.525  15.984  1.4681 -0.2500 -0.3928
   6523SM  H13B 8344   4.811   5.543  16.027  1.3209  0.6739 -3.8761
   6523SM  H13C 8345   4.925   5.503  16.152 -2.1934  0.9665  0.4245
   6523SM   C12 8346   4.876   5.775  16.181  0.5417  0.1851  0.6621
   6523SM  H12A 8347   4.916   5.875  16.195  0.2171  0.4518 -0.2520
   6523SM  H12B 8348   4.888   5.723  16.275  0.4290 -1.3346 -0.1487
   6523SM   C11 8349   4.721   5.792  16.142  0.0847 -0.1703  0.6253
   6523SM  H11A 8350   4.664   5.828  16.230  0.3883 -2.4272  1.8217
   6523SM  H11B 8351   4.681   5.689  16.126  1.7428 -1.0888  2.0227
   6523SM     P 8352   4.559   5.878  15.946 -0.0272 -0.0536 -0.1559
   6523SM   O13 8353   4.558   5.754  15.864 -0.2548  0.2037  0.1499
   6523SM   O14 8354   4.445   5.894  16.042 -0.3622 -0.1136  0.3778
   6523SM   O11 8355   4.576   6.003  15.850 -0.0043  0.8246  0.1093
   6523SM   O12 8356   4.693   5.877  16.031 -0.3323 -0.9529  0.2442
   6523SM   C1S 8357   4.677   6.005  15.748  0.1364  0.4152  0.1888
   6523SM   H1S 8358   4.754   5.927  15.759  0.3417  0.2611 -1.8730
   6523SM   H1T 8359   4.729   6.102  15.761  0.5504 -0.1346  3.3657
   6523SM    NF 8360   4.721   5.993  15.502  0.5187  0.0309  0.1608
   6523SM   HNF 8361   4.765   6.075  15.468 -1.5448  1.6524  1.1582
   6523SM   C2S 8362   4.617   6.007  15.600 -0.4496 -0.3576 -0.3409
   6523SM   H2S 8363   4.550   5.918  15.602 -0.2285 -0.5598  2.2321
   6523SM   C3S 8364   4.532   6.137  15.586  0.0976  0.0151 -0.4923
   6523SM   H3S 8365   4.604   6.219  15.605 -1.6521  1.2657  1.1333
   6523SM    O3 8366   4.429   6.147  15.686 -0.4603 -0.0849 -0.4895
   6523SM   HO3 8367   4.474   6.097  15.754  0.2384  1.5325  0.2636
   6523SM   C4S 8368   4.467   6.162  15.451 -0.3684  0.1352 -0.0216
   6523SM   H4S 8369   4.415   6.077  15.404 -2.3827  1.6289 -0.6201
   6523SM   C5S 8370   4.463   6.280  15.390 -0.2049 -0.2709  0.1232
   6523SM   H5S 8371   4.500   6.362  15.453  0.7025 -0.1954 -0.4919
   6523SM   C6S 8372   4.401   6.316  15.256  0.5713 -0.7989 -0.2278
   6523SM   H6S 8373   4.380   6.425  15.249 -2.3618 -1.3597 -1.5850
   6523SM   H6T 8374   4.300   6.272  15.244  0.3908 -0.3867 -0.2427
   6523SM   C7S 8375   4.465   6.261  15.127 -0.4087 -0.2205 -0.2203
   6523SM   H7S 8376   4.404   6.299  15.043  0.0145 -2.3498 -1.5550
   6523SM   H7T 8377   4.466   6.150  15.131  0.2493 -0.2004  0.2603
   6523SM   C8S 8378   4.605   6.309  15.112 -0.1355 -0.9578 -0.7734
   6523SM   H8S 8379   4.662   6.261  15.194  0.2626 -0.2891 -0.6473
   6523SM   H8T 8380   4.618   6.418  15.126  0.4998 -1.0968 -0.2227
   6523SM   C9S 8381   4.684   6.273  14.987 -0.4455 -0.1365 -0.2807
   6523SM   H9S 8382   4.630   6.319  14.902 -0.9590  0.8986  0.5896
   6523SM   H9T 8383   4.675   6.162  14.981 -2.3698 -0.0962  1.0561
   6523SM  C10S 8384   4.836   6.303  15.000 -0.2894  0.1307  0.4573
   6523SM  H10S 8385   4.894   6.236  14.933 -1.7108  1.0600 -1.8109
   6523SM  H10T 8386   4.876   6.293  15.103  0.7178 -0.4905  0.0166
   6523SM  C11S 8387   4.882   6.442  14.939 -0.0112 -0.1918 -0.4998
   6523SM  H11S 8388   4.868   6.453  14.830 -1.9115  0.1651 -0.2686
   6523SM  H11T 8389   4.991   6.456  14.951  0.1025 -0.9463 -0.6002
   6523SM  C12S 8390   4.811   6.565  15.003 -0.4378  0.5577 -0.1955
   6523SM  H12S 8391   4.836   6.560  15.111  1.9488  0.5470 -0.6978
   6523SM  H12T 8392   4.703   6.573  14.979 -0.8590 -0.0131  1.3957
   6523SM  C13S 8393   4.875   6.699  14.963  0.4072  0.0464  0.1068
   6523SM  H13S 8394   4.836   6.728  14.863 -1.1847 -1.0445  0.3850
   6523SM  H13T 8395   4.986   6.690  14.951  0.1643 -0.6634 -2.0457
   6523SM  C14S 8396   4.838   6.812  15.055 -0.1476  0.6285 -0.4003
   6523SM  H14S 8397   4.894   6.792  15.149  0.2595 -0.0339 -0.7801
   6523SM  H14T 8398   4.732   6.833  15.081 -0.3200  1.9078 -1.9699
   6523SM  C15S 8399   4.885   6.944  14.986 -0.3167 -0.3571 -0.3516
   6523SM  H15S 8400   4.836   6.952  14.887 -0.9428 -0.0628 -0.0239
   6523SM  H15T 8401   4.994   6.931  14.967 -0.6867 -1.3305 -1.9776
   6523SM  C16S 8402   4.857   7.069  15.068  0.3400 -0.0972  0.5494
   6523SM  H16S 8403   4.747   7.077  15.064  0.3374 -0.5037 -2.0356
   6523SM  H16T 8404   4.896   7.158  15.013  1.5288 -0.5606  0.5928
   6523SM  C17S 8405   4.916   7.081  15.203 -0.0606  0.4304 -0.1304
   6523SM  H17S 8406   5.025   7.096  15.192 -0.0131 -0.4210 -1.0212
   6523SM  H17T 8407   4.914   6.988  15.264 -0.1812  1.3301  1.2800
   6523SM  C18S 8408   4.857   7.189  15.290  0.1805 -0.0140 -0.3188
   6523SM  H18S 8409   4.925   7.207  15.376  1.8798 -1.7140 -1.2304
   6523SM  H18T 8410   4.759   7.155  15.331  0.3242  1.2028  1.1296
   6523SM  H18U 8411   4.848   7.289  15.244  0.0732  0.5476  0.8769
   6523SM   C1F 8412   4.784   5.878  15.478  0.4719  0.5847  0.3871
   6523SM    OF 8413   4.746   5.768  15.519 -0.2869 -0.4841  0.3666
   6523SM   C2F 8414   4.905   5.888  15.387 -0.3170  0.5624 -0.0441
   6523SM   H2F 8415   4.975   5.966  15.425  0.6290 -1.2722  2.1689
   6523SM   H2G 8416   4.872   5.918  15.285  1.2241  4.2328  0.3745
   6523SM   C3F 8417   4.989   5.753  15.377  0.1528  0.0916  0.4411
   6523SM   H3F 8418   4.932   5.668  15.334  1.1076  0.1383 -0.9880
   6523SM   H3G 8419   5.017   5.707  15.475 -0.7204  1.0844  1.1771
   6523SM   C4F 8420   5.125   5.764  15.298 -0.4110 -0.2308  0.4690
   6523SM   H4F 8421   5.192   5.830  15.357 -1.6998  3.1690 -1.5701
   6523SM   H4G 8422   5.098   5.819  15.205 -3.8502  0.0241  1.5019
   6523SM   C5F 8423   5.200   5.639  15.276 -0.3766  0.1737  0.1261
   6523SM   H5F 8424   5.136   5.559  15.232 -0.3658  0.0170  0.3919
   6523SM   H5G 8425   5.235   5.588  15.368 -0.0889 -1.8554 -1.0412
   6523SM   C6F 8426   5.314   5.654  15.168 -0.5877 -0.2752  0.0309
   6523SM   H6F 8427   5.383   5.734  15.202 -0.8662  0.7118 -1.6145
   6523SM   H6G 8428   5.258   5.694  15.080 -2.9547 -0.1357  1.4987
   6523SM   C7F 8429   5.386   5.528  15.127 -0.1398 -0.6597 -1.2947
   6523SM   H7F 8430   5.308   5.452  15.107  0.4580 -1.1624 -1.7637
   6523SM   H7G 8431   5.441   5.485  15.214 -1.3594  1.3362  0.5606
   6523SM   C8F 8432   5.473   5.544  15.002  0.1333  0.1226  0.1324
   6523SM   H8F 8433   5.415   5.578  14.914  0.1836 -1.0589 -0.3818
   6523SM   H8G 8434   5.512   5.443  14.975 -0.2637  0.3884 -1.5055
   6523SM   C9F 8435   5.578   5.649  15.026 -0.4340 -0.1944  0.4363
   6523SM   H9F 8436   5.615   5.659  15.130 -1.9754  0.4270  0.9650
   6523SM   H9G 8437   5.525   5.744  15.001 -0.7667 -0.5559 -0.2625
   6523SM  C10F 8438   5.697   5.647  14.930 -0.0727 -0.5006 -0.5426
   6523SM  H10F 8439   5.721   5.540  14.915  1.2274 -0.5188  1.3874
   6523SM  H10G 8440   5.786   5.699  14.973 -1.5092  2.4337 -0.8156
   6523SM  C11F 8441   5.660   5.715  14.796 -0.4794  0.0132  0.6627
   6523SM  H11F 8442   5.613   5.815  14.807  1.6992  1.5272 -2.4745
   6523SM  H11G 8443   5.581   5.648  14.755 -0.7388  0.8550 -0.2609
   6523SM  C12F 8444   5.768   5.734  14.689  0.0488 -0.2491 -0.1058
   6523SM  H12F 8445   5.852   5.792  14.732  0.0192  0.3937 -0.9022
   6523SM  H12G 8446   5.723   5.777  14.597  0.3462 -0.8459 -0.5407
   6523SM  C13F 8447   5.837   5.603  14.644 -0.5115  0.0149 -0.7304
   6523SM  H13F 8448   5.752   5.534  14.631 -0.8515 -0.4058  2.7729
   6523SM  H13G 8449   5.897   5.563  14.729  0.8173  0.7204 -1.2907
   6523SM  C14F 8450   5.931   5.616  14.531  0.5081 -0.5398  0.1332
   6523SM  H14F 8451   6.011   5.689  14.556  0.3561  0.2899 -1.6315
   6523SM  H14G 8452   5.874   5.661  14.448  1.1627 -0.4886 -0.3007
   6523SM  C15F 8453   5.985   5.481  14.490  0.2732 -0.2827 -0.3190
   6523SM  H15F 8454   5.907   5.403  14.474  0.6104 -0.3548 -1.7032
   6523SM  H15G 8455   6.046   5.451  14.578 -2.8329  1.3262  2.6379
   6523SM  C16F 8456   6.069   5.499  14.365 -0.0423 -0.4487 -0.3506
   6523SM  H16F 8457   6.148   5.574  14.385  1.2303 -2.0146  0.8398
   6523SM  H16G 8458   6.008   5.532  14.279  0.1038  0.6601 -0.0409
   6523SM  C17F 8459   6.149   5.370  14.323  0.2752  0.2852  0.4485
   6523SM  H17F 8460   6.073   5.297  14.287  1.1178 -1.3076  1.7573
   6523SM  H17G 8461   6.196   5.329  14.415  0.9229  0.7865  0.3511
   6523SM  C18F 8462   6.249   5.401  14.218 -0.0429 -0.8887 -0.2710
   6523SM  H18F 8463   6.329   5.324  14.209  2.0429  0.9984  1.2188
   6523SM  H18G 8464   6.300   5.497  14.238 -0.5860 -0.9647  1.6708
   6523SM  C19F 8465   6.191   5.395  14.075 -0.3320  0.2884 -0.8260
   6523SM  H19F 8466   6.099   5.455  14.058  0.2815  1.0645 -1.4166
   6523SM  H19G 8467   6.161   5.288  14.072  0.2228  0.0852  0.5103
   6523SM  C20F 8468   6.290   5.432  13.967  1.0002  0.2170  0.1745
   6523SM  H20F 8469   6.247   5.423  13.865  1.3029  0.5584  0.0088
   6523SM  H20G 8470   6.370   5.355  13.970 -0.0420 -0.8914  0.1042
   6523SM  C21F 8471   6.350   5.565  13.978  0.6395 -0.4749  0.2210
   6523SM  H21F 8472   6.415   5.567  14.069  0.3835  0.3484  0.3973
   6523SM  H21G 8473   6.269   5.637  14.000  1.0479 -0.3194  1.2961
   6523SM  C22F 8474   6.423   5.622  13.858 -0.2187  0.1751  0.3996
   6523SM  H22F 8475   6.467   5.723  13.876  2.5822 -1.2456  2.1876
   6523SM  H22G 8476   6.343   5.646  13.784 -1.1013  1.2196  1.6553
   6523SM  C23F 8477   6.524   5.522  13.795  0.8866  0.0647 -0.6850
   6523SM  H23F 8478   6.474   5.434  13.750  1.1228 -0.2333 -0.3781
   6523SM  H23G 8479   6.608   5.492  13.863  1.6095  1.5801 -0.8612
   6523SM  H23H 8480   6.576   5.571  13.710  0.4442  0.9988 -0.4181
   6623SM     N 8481   4.421   2.045  16.080  0.4604  0.2454 -0.6006
   6623SM   C15 8482   4.369   2.184  16.087 -0.0996 -0.3217 -0.1819
   6623SM  H15A 8483   4.325   2.224  15.997  1.4837  2.9526  0.3239
   6623SM  H15B 8484   4.452   2.248  16.113  1.4116 -2.1009 -0.4390
   6623SM  H15C 8485   4.291   2.194  16.162 -1.3302  1.4404 -1.6005
   6623SM   C14 8486   4.539   2.034  15.991  0.0746 -0.4544  0.1724
   6623SM  H14A 8487   4.610   2.115  16.005  0.4658 -0.7386 -0.1609
   6623SM  H14B 8488   4.496   2.064  15.897  2.6702 -3.5611 -2.2317
   6623SM  H14C 8489   4.593   1.943  15.970  1.1086  0.3447 -0.7306
   6623SM   C13 8490   4.482   2.015  16.215 -0.2544 -0.6198  0.0892
   6623SM  H13A 8491   4.565   2.079  16.242 -2.5033  2.1116  1.1059
   6623SM  H13B 8492   4.526   1.917  16.204  0.8099 -0.1862  0.3821
   6623SM  H13C 8493   4.413   2.010  16.299  0.2095 -1.5812  0.4201
   6623SM   C12 8494   4.310   1.955  16.042 -0.5248  0.3943 -0.0424
   6623SM  H12A 8495   4.270   1.989  15.948  0.6013  1.7538 -0.0612
   6623SM  H12B 8496   4.223   1.956  16.107 -0.4269  2.1482  0.1184
   6623SM   C11 8497   4.355   1.807  16.021 -0.4776 -0.3516  0.6263
   6623SM  H11A 8498   4.419   1.815  15.931 -0.7033 -0.6587  0.4361
   6623SM  H11B 8499   4.279   1.739  15.976  2.2711 -2.9760 -0.3535
   6623SM     P 8500   4.537   1.624  16.088 -0.1161 -0.1008  0.1809
   6623SM   O13 8501   4.649   1.621  16.186 -0.0503 -0.0397 -0.5104
   6623SM   O14 8502   4.453   1.502  16.070 -0.3996  0.0772 -0.5487
   6623SM   O11 8503   4.590   1.658  15.944  0.5774 -0.3406  0.1469
   6623SM   O12 8504   4.433   1.743  16.126  0.3777 -0.3505 -0.3142
   6623SM   C1S 8505   4.692   1.581  15.889 -0.6017  0.2558  0.4784
   6623SM   H1S 8506   4.658   1.476  15.876  0.7888 -0.0715 -0.8729
   6623SM   H1T 8507   4.779   1.581  15.958  0.4152 -1.8764 -0.6713
   6623SM    NF 8508   4.817   1.534  15.664 -0.0344 -0.0334 -0.2445
   6623SM   HNF 8509   4.914   1.550  15.648  0.2812 -1.3303  0.2754
   6623SM   C2S 8510   4.740   1.632  15.741 -0.5822  0.2394 -0.0329
   6623SM   H2S 8511   4.644   1.647  15.687 -0.4389  0.3069 -0.2662
   6623SM   C3S 8512   4.808   1.764  15.761 -0.5923 -0.4911  0.0059
   6623SM   H3S 8513   4.903   1.739  15.813  0.9563  1.1399 -1.8266
   6623SM    O3 8514   4.729   1.856  15.836  0.0768  0.1039 -0.5424
   6623SM   HO3 8515   4.658   1.804  15.876 -0.4874 -0.8935 -2.6817
   6623SM   C4S 8516   4.841   1.824  15.631  0.4931 -0.6604 -0.7120
   6623SM   H4S 8517   4.941   1.799  15.591  0.6301 -0.8447 -0.2521
   6623SM   C5S 8518   4.768   1.899  15.548 -0.6767 -0.2459  0.3462
   6623SM   H5S 8519   4.665   1.927  15.573 -0.4738  1.5742 -0.6803
   6623SM   C6S 8520   4.814   1.938  15.405  0.3178 -0.6297  0.0696
   6623SM   H6S 8521   4.772   2.038  15.383  1.2029 -0.4404 -0.8163
   6623SM   H6T 8522   4.760   1.872  15.333 -0.2105  1.3565 -1.4497
   6623SM   C7S 8523   4.961   1.942  15.370  0.1700  0.4599  0.3649
   6623SM   H7S 8524   5.001   1.840  15.379 -1.4398 -0.1140  1.4519
   6623SM   H7T 8525   5.011   2.000  15.451 -0.8214  0.3122  1.1008
   6623SM   C8S 8526   4.978   1.998  15.231 -0.5506  0.4165 -0.2118
   6623SM   H8S 8527   4.946   2.104  15.224  1.6416  1.2870  1.7249
   6623SM   H8T 8528   4.917   1.944  15.156 -0.2941 -0.5513  0.2671
   6623SM   C9S 8529   5.127   1.983  15.188 -0.5880 -0.1984  0.4309
   6623SM   H9S 8530   5.164   1.881  15.213  1.2821 -0.1868 -1.9563
   6623SM   H9T 8531   5.190   2.054  15.247 -0.3219  1.6656 -1.9289
   6623SM  C10S 8532   5.148   2.019  15.038  0.0855 -0.1989 -0.3190
   6623SM  H10S 8533   5.123   2.126  15.024 -0.8655 -0.0280  2.1673
   6623SM  H10T 8534   5.068   1.964  14.983 -1.1067  0.2735  0.9148
   6623SM  C11S 8535   5.286   1.995  14.980 -0.4868 -0.4623 -0.0060
   6623SM  H11S 8536   5.305   1.890  15.012 -1.6195 -0.8280 -0.4819
   6623SM  H11T 8537   5.362   2.066  15.019 -0.0262 -0.5847 -0.6733
   6623SM  C12S 8538   5.284   1.986  14.826 -0.1500 -0.7792  0.3925
   6623SM  H12S 8539   5.254   2.087  14.790  3.3461 -0.6716 -2.9528
   6623SM  H12T 8540   5.202   1.919  14.793  0.2402 -1.0759  0.0235
   6623SM  C13S 8541   5.420   1.946  14.766  0.3133 -0.0386  0.6663
   6623SM  H13S 8542   5.455   1.849  14.808  1.2168  0.2386  0.5760
   6623SM  H13T 8543   5.493   2.024  14.797 -0.7134  1.7394 -1.1438
   6623SM  C14S 8544   5.414   1.930  14.614  0.5114  0.1231  0.2915
   6623SM  H14S 8545   5.370   2.021  14.568 -0.5975 -0.1110  0.8480
   6623SM  H14T 8546   5.351   1.840  14.596  2.5234 -1.4265  0.6895
   6623SM  C15S 8547   5.549   1.889  14.559 -0.6924  0.3088  0.3678
   6623SM  H15S 8548   5.591   1.814  14.629  0.1807  0.8946  0.4944
   6623SM  H15T 8549   5.626   1.970  14.554  0.7416 -1.0966 -3.2832
   6623SM  C16S 8550   5.523   1.840  14.410 -0.0334  0.4371 -0.0071
   6623SM  H16S 8551   5.476   1.921  14.349  2.0661  0.3321 -1.8961
   6623SM  H16T 8552   5.468   1.744  14.420  2.0632 -0.8778 -0.4090
   6623SM  C17S 8553   5.650   1.800  14.338  0.1461 -0.0437  0.7043
   6623SM  H17S 8554   5.698   1.713  14.388 -0.1490  0.4428  1.8784
   6623SM  H17T 8555   5.723   1.882  14.356  0.9701 -0.6311  0.1314
   6623SM  C18S 8556   5.646   1.773  14.189  0.2568 -1.1099  0.5738
   6623SM  H18S 8557   5.572   1.691  14.175  0.4800 -1.0503 -1.1515
   6623SM  H18T 8558   5.746   1.749  14.147 -0.4281 -2.4802 -0.3492
   6623SM  H18U 8559   5.619   1.868  14.139  0.8287 -0.1812  1.9814
   6623SM   C1F 8560   4.756   1.426  15.612 -0.0845  0.4560 -0.4652
   6623SM    OF 8561   4.636   1.406  15.638 -0.8362  0.0858  0.3847
   6623SM   C2F 8562   4.844   1.336  15.528  0.7050  0.5567 -1.0262
   6623SM   H2F 8563   4.920   1.294  15.597  1.2849  0.1291 -1.9072
   6623SM   H2G 8564   4.885   1.398  15.446 -0.1372  1.3167 -0.8913
   6623SM   C3F 8565   4.757   1.225  15.473  0.1615  0.1966 -0.1682
   6623SM   H3F 8566   4.701   1.253  15.381 -1.4996  1.2228  1.1110
   6623SM   H3G 8567   4.691   1.189  15.555  2.2415 -1.9388  0.6850
   6623SM   C4F 8568   4.832   1.101  15.417  0.9541  0.2406 -0.7924
   6623SM   H4F 8569   4.761   1.026  15.375  1.0772 -0.2999 -0.0782
   6623SM   H4G 8570   4.896   1.053  15.494  1.0796  0.8385 -0.5168
   6623SM   C5F 8571   4.919   1.133  15.295 -0.6061  0.6099 -0.0728
   6623SM   H5F 8572   5.017   1.166  15.335  0.3520  0.3718 -2.0698
   6623SM   H5G 8573   4.874   1.208  15.227  0.7525  2.0026  0.5105
   6623SM   C6F 8574   4.954   1.013  15.210 -0.3630  0.5970 -0.7631
   6623SM   H6F 8575   4.870   0.965  15.155 -0.3775  0.0863 -0.3004
   6623SM   H6G 8576   4.988   0.942  15.288 -2.6615  0.4052  0.1391
   6623SM   C7F 8577   5.060   1.041  15.099  0.1692  0.2701 -0.0250
   6623SM   H7F 8578   5.099   0.949  15.050  2.6114  0.9631  0.4994
   6623SM   H7G 8579   5.150   1.085  15.145 -0.3222  1.4745 -0.1838
   6623SM   C8F 8580   5.021   1.154  14.987  0.1082  0.1562 -0.6251
   6623SM   H8F 8581   5.098   1.153  14.906  1.2883 -0.2586  0.4676
   6623SM   H8G 8582   5.038   1.256  15.026  2.4437  0.1275 -1.4410
   6623SM   C9F 8583   4.886   1.124  14.929 -0.3140 -0.1811 -0.1234
   6623SM   H9F 8584   4.814   1.154  15.008 -0.1489  0.4001 -0.1938
   6623SM   H9G 8585   4.881   1.014  14.914  0.6879 -0.5886  2.1810
   6623SM  C10F 8586   4.857   1.188  14.798  0.3032 -0.0727  0.5076
   6623SM  H10F 8587   4.940   1.171  14.725  0.2186  0.3961  0.2939
   6623SM  H10G 8588   4.850   1.299  14.804 -1.3825  0.0071 -1.6474
   6623SM  C11F 8589   4.734   1.135  14.724  0.1368  0.1299 -0.3394
   6623SM  H11F 8590   4.649   1.199  14.756 -1.0805 -1.1767 -0.8525
   6623SM  H11G 8591   4.716   1.026  14.740 -0.6786  0.5832  2.4764
   6623SM  C12F 8592   4.759   1.164  14.571  0.1388 -0.5992  0.2769
   6623SM  H12F 8593   4.853   1.109  14.545 -0.1329 -0.9139 -0.0493
   6623SM  H12G 8594   4.774   1.274  14.563  0.8230 -0.8088 -2.1251
   6623SM  C13F 8595   4.640   1.132  14.473 -0.6214 -0.7759  0.0835
   6623SM  H13F 8596   4.585   1.229  14.466 -1.2721 -0.7423  3.7676
   6623SM  H13G 8597   4.586   1.053  14.529 -1.4513 -0.6656 -0.5296
   6623SM  C14F 8598   4.682   1.061  14.338 -0.7389 -0.3628 -0.2886
   6623SM  H14F 8599   4.593   1.026  14.282  0.7376 -0.4147 -2.7058
   6623SM  H14G 8600   4.760   0.986  14.363 -0.2363  0.1358 -0.3327
   6623SM  C15F 8601   4.754   1.165  14.240  0.2563  0.1527 -0.1171
   6623SM  H15F 8602   4.830   1.210  14.307 -0.1326 -0.8539  1.0288
   6623SM  H15G 8603   4.687   1.247  14.207  0.0787  0.1375  0.2032
   6623SM  C16F 8604   4.830   1.089  14.131  0.0386 -0.4951 -0.2333
   6623SM  H16F 8605   4.759   1.026  14.073 -1.5582 -0.5048  1.6281
   6623SM  H16G 8606   4.909   1.029  14.180  0.4701  0.7439  0.6341
   6623SM  C17F 8607   4.917   1.178  14.031  0.1924  0.2069 -0.4436
   6623SM  H17F 8608   4.972   1.097  13.977  1.5539  1.6373 -1.2733
   6623SM  H17G 8609   4.990   1.232  14.094 -1.2973  0.4810  1.1178
   6623SM  C18F 8610   4.835   1.257  13.922  0.7694 -0.0875 -0.6496
   6623SM  H18F 8611   4.888   1.350  13.892 -0.0721  0.6355  0.0714
   6623SM  H18G 8612   4.742   1.300  13.965  0.5514  0.9953 -2.1161
   6623SM  C19F 8613   4.806   1.180  13.793  0.0101  0.0517 -0.7231
   6623SM  H19F 8614   4.763   1.080  13.816 -1.4474  0.7987 -0.0353
   6623SM  H19G 8615   4.903   1.170  13.739  0.4957  1.0953 -0.0920
   6623SM  C20F 8616   4.700   1.262  13.706  0.2368  0.3619  0.3777
   6623SM  H20F 8617   4.758   1.352  13.676  0.6370  0.4123  1.2702
   6623SM  H20G 8618   4.614   1.289  13.772 -1.3231  0.4316 -1.5817
   6623SM  C21F 8619   4.649   1.202  13.575  0.1017  0.1959  0.8830
   6623SM  H21F 8620   4.733   1.184  13.504  0.5865 -0.9977  1.7334
   6623SM  H21G 8621   4.589   1.282  13.527  0.0663 -1.1129 -1.3782
   6623SM  C22F 8622   4.560   1.083  13.601 -0.2758 -0.0668 -0.3163
   6623SM  H22F 8623   4.485   1.118  13.676 -0.1953 -1.5665  0.4923
   6623SM  H22G 8624   4.602   0.997  13.657 -0.4239 -0.0380 -0.1589
   6623SM  C23F 8625   4.464   1.057  13.481 -0.0797  0.6379  0.0520
   6623SM  H23F 8626   4.372   0.995  13.492  0.0130 -0.0134 -2.2552
   6623SM  H23G 8627   4.527   0.998  13.411  0.3876  0.7288  0.3921
   6623SM  H23H 8628   4.423   1.155  13.450  2.7659  1.8798 -0.0346
   6723SM     N 8629   2.816   6.887  16.198 -0.1118 -0.1192 -0.0509
   6723SM   C15 8630   2.850   6.747  16.244  1.1571  0.1576  0.4612
   6723SM  H15A 8631   2.783   6.672  16.204  0.2256  0.4916  1.3680
   6723SM  H15B 8632   2.846   6.732  16.351  0.6950  1.0342  0.5708
   6723SM  H15C 8633   2.951   6.722  16.213  1.1599 -0.7899  1.1829
   6723SM   C14 8634   2.673   6.906  16.240 -0.0635 -0.6540  0.5818
   6723SM  H14A 8635   2.664   6.861  16.338 -1.6697  0.5660  1.0599
   6723SM  H14B 8636   2.602   6.850  16.181 -0.9904 -1.0322  1.9860
   6723SM  H14C 8637   2.652   7.012  16.248  1.9202 -0.0364 -1.5493
   6723SM   C13 8638   2.901   6.971  16.290  0.0384 -0.1370 -0.2055
   6723SM  H13A 8639   3.005   6.945  16.281  0.4118  1.8474 -2.7985
   6723SM  H13B 8640   2.873   6.947  16.392 -0.8026 -2.4486 -0.9105
   6723SM  H13C 8641   2.891   7.077  16.271 -0.3161  0.2896  2.0234
   6723SM   C12 8642   2.834   6.906  16.049 -0.2655 -0.2573  0.0420
   6723SM  H12A 8643   2.813   7.012  16.038  2.0549  0.3128  0.6319
   6723SM  H12B 8644   2.757   6.853  15.995  0.9552 -1.8693 -0.1835
   6723SM   C11 8645   2.975   6.887  15.990 -0.2771 -0.1611 -0.2021
   6723SM  H11A 8646   3.029   6.972  16.036  0.2061  0.4778 -1.8652
   6723SM  H11B 8647   2.978   6.906  15.880 -0.4743 -1.6094 -0.4799
   6723SM     P 8648   3.190   6.750  15.995  0.4179  0.3638  0.4053
   6723SM   O13 8649   3.250   6.879  15.954  0.1153 -0.9471 -0.3274
   6723SM   O14 8650   3.247   6.678  16.115  0.1995 -0.0383  0.5533
   6723SM   O11 8651   3.196   6.654  15.871  0.0817 -0.0917 -0.1195
   6723SM   O12 8652   3.028   6.761  16.023 -0.1071 -0.2835 -0.1584
   6723SM   C1S 8653   3.136   6.683  15.747  0.2200  0.1566  0.0607
   6723SM   H1S 8654   3.053   6.755  15.763 -1.0024 -1.7001  2.8944
   6723SM   H1T 8655   3.107   6.581  15.713  3.5626 -1.3044  1.2028
   6723SM    NF 8656   3.151   6.750  15.512 -0.0142 -0.7118 -0.3118
   6723SM   HNF 8657   3.156   6.665  15.460 -0.1259 -1.4792  0.8859
   6723SM   C2S 8658   3.226   6.746  15.634  0.5002  0.1066  0.1976
   6723SM   H2S 8659   3.250   6.848  15.669  0.7635  0.3190 -0.5848
   6723SM   C3S 8660   3.367   6.678  15.625  0.2496  0.0935 -0.0130
   6723SM   H3S 8661   3.370   6.567  15.626 -0.6752 -0.0014  3.2877
   6723SM    O3 8662   3.450   6.700  15.744 -0.4354  0.3464  0.1102
   6723SM   HO3 8663   3.379   6.735  15.798 -0.2993  0.1597  0.4148
   6723SM   C4S 8664   3.452   6.732  15.508 -0.2963  0.4627  0.2469
   6723SM   H4S 8665   3.492   6.833  15.525  1.0523 -0.0310  0.1503
   6723SM   C5S 8666   3.468   6.664  15.392  0.8431 -0.0042  0.2081
   6723SM   H5S 8667   3.428   6.563  15.377 -1.4246  1.0395 -1.2832
   6723SM   C6S 8668   3.542   6.725  15.277  0.0868  0.0871 -0.1302
   6723SM   H6S 8669   3.468   6.776  15.211 -0.0688  0.5368  0.3802
   6723SM   H6T 8670   3.592   6.651  15.211  3.0059  1.4509  0.3901
   6723SM   C7S 8671   3.647   6.833  15.309  0.4270 -0.3064 -0.5201
   6723SM   H7S 8672   3.719   6.793  15.384  0.8512  1.7690  0.2521
   6723SM   H7T 8673   3.593   6.919  15.355  1.3642 -1.0768  2.2225
   6723SM   C8S 8674   3.731   6.881  15.191  0.1532  0.2873  0.2791
   6723SM   H8S 8675   3.656   6.906  15.113 -0.1142 -2.0757 -0.3002
   6723SM   H8T 8676   3.786   6.789  15.162 -0.1245 -0.0322  0.7395
   6723SM   C9S 8677   3.839   6.988  15.217 -0.5504  0.1704  0.2551
   6723SM   H9S 8678   3.910   6.950  15.293 -1.0338 -1.6286 -0.1439
   6723SM   H9T 8679   3.785   7.069  15.271  0.8198  1.8577 -0.7911
   6723SM  C10S 8680   3.908   7.026  15.086  0.2679 -0.1515  0.1214
   6723SM  H10S 8681   3.832   7.076  15.022 -1.0216  0.7830  2.2753
   6723SM  H10T 8682   3.946   6.937  15.032 -0.6127  0.7893 -2.1774
   6723SM  C11S 8683   4.016   7.129  15.107 -0.4407 -0.6932  0.1292
   6723SM  H11S 8684   4.090   7.086  15.177 -0.2305  0.2955  0.5376
   6723SM  H11T 8685   3.969   7.216  15.158  1.0944 -0.8262  1.8567
   6723SM  C12S 8686   4.072   7.170  14.966  0.3297  0.4361  0.6296
   6723SM  H12S 8687   3.993   7.203  14.894 -0.0526  1.9513  1.6921
   6723SM  H12T 8688   4.110   7.076  14.922  1.2751  0.1446  2.0131
   6723SM  C13S 8689   4.164   7.286  14.967 -0.0865 -0.5392 -0.2268
   6723SM  H13S 8690   4.256   7.264  15.025  1.0103  0.6112 -1.4509
   6723SM  H13T 8691   4.119   7.367  15.029 -3.4080 -2.5099  0.1802
   6723SM  C14S 8692   4.209   7.340  14.839  0.0538  0.0122 -0.1042
   6723SM  H14S 8693   4.284   7.420  14.857 -0.3501  0.6730 -1.2725
   6723SM  H14T 8694   4.126   7.392  14.786  0.7807 -0.8510 -2.1523
   6723SM  C15S 8695   4.269   7.240  14.739 -0.1588 -0.0291  0.3979
   6723SM  H15S 8696   4.295   7.286  14.641 -1.4358 -1.8336 -0.8523
   6723SM  H15T 8697   4.195   7.164  14.707  0.0111  0.6689 -1.8159
   6723SM  C16S 8698   4.395   7.171  14.797  0.1688  0.7023 -0.4285
   6723SM  H16S 8699   4.377   7.119  14.893 -0.4343  0.8131 -0.4761
   6723SM  H16T 8700   4.462   7.255  14.827  0.4878 -0.3686  2.0708
   6723SM  C17S 8701   4.452   7.079  14.679  0.2521  0.5108 -1.0109
   6723SM  H17S 8702   4.478   7.128  14.583 -0.2279 -0.0981 -1.4652
   6723SM  H17T 8703   4.369   7.012  14.649 -0.3573  0.2173  1.1528
   6723SM  C18S 8704   4.558   6.975  14.714 -0.0810 -0.9054 -0.0063
   6723SM  H18S 8705   4.615   7.013  14.802 -0.3897 -0.5335  0.0338
   6723SM  H18T 8706   4.619   6.959  14.623  2.2388 -1.7755  1.6058
   6723SM  H18U 8707   4.524   6.875  14.748 -0.5069  0.4094  3.8621
   6723SM   C1F 8708   3.056   6.837  15.493 -0.3644 -0.6023  0.6044
   6723SM    OF 8709   3.026   6.924  15.574 -0.6495  0.0603 -0.4487
   6723SM   C2F 8710   2.990   6.834  15.355  0.8990 -0.4841 -0.1891
   6723SM   H2F 8711   3.055   6.780  15.283 -0.7211 -0.5076 -1.7043
   6723SM   H2G 8712   2.977   6.939  15.323  0.3821 -0.1690  1.0011
   6723SM   C3F 8713   2.854   6.760  15.361  0.4508  0.0379 -0.4989
   6723SM   H3F 8714   2.792   6.801  15.443  0.0747 -0.4140 -0.5557
   6723SM   H3G 8715   2.874   6.652  15.377  1.5705  0.2426 -0.4291
   6723SM   C4F 8716   2.777   6.764  15.230  0.2260 -0.3171 -1.0665
   6723SM   H4F 8717   2.751   6.870  15.208 -2.1521 -0.5083  0.3917
   6723SM   H4G 8718   2.691   6.694  15.246  0.8078 -1.1134 -1.3863
   6723SM   C5F 8719   2.842   6.704  15.106  0.0611 -0.2261 -0.3335
   6723SM   H5F 8720   2.860   6.597  15.131 -2.0709 -0.5440  0.0396
   6723SM   H5G 8721   2.937   6.758  15.087  0.7339 -1.5581 -0.8588
   6723SM   C6F 8722   2.762   6.733  14.979 -0.1683 -0.0944  0.2407
   6723SM   H6F 8723   2.780   6.840  14.953  3.1486 -0.4695  0.5197
   6723SM   H6G 8724   2.656   6.711  15.000  0.1424 -0.8393  1.0710
   6723SM   C7F 8725   2.803   6.648  14.862  0.0048  0.2699 -0.0584
   6723SM   H7F 8726   2.838   6.550  14.901  1.6908  0.8476 -0.0030
   6723SM   H7G 8727   2.900   6.674  14.815  1.0884  0.3388  2.0773
   6723SM   C8F 8728   2.696   6.619  14.756  0.6541 -0.4102 -0.2349
   6723SM   H8F 8729   2.601   6.590  14.806  0.8032  0.3881  0.5295
   6723SM   H8G 8730   2.734   6.538  14.689  0.3451 -0.5455 -0.2488
   6723SM   C9F 8731   2.689   6.744  14.661 -0.2002 -0.3203 -0.4333
   6723SM   H9F 8732   2.792   6.760  14.623 -0.0956  0.0807  0.0030
   6723SM   H9G 8733   2.669   6.831  14.728  0.7951 -0.0504 -0.4792
   6723SM  C10F 8734   2.603   6.729  14.534 -0.1254 -0.6969  0.6607
   6723SM  H10F 8735   2.510   6.669  14.545 -0.5578 -0.9189 -2.9362
   6723SM  H10G 8736   2.664   6.670  14.463  0.0716 -0.7260  0.8517
   6723SM  C11F 8737   2.574   6.868  14.470 -0.1548  0.0905 -0.3185
   6723SM  H11F 8738   2.509   6.916  14.545  1.7661 -1.2500  2.3948
   6723SM  H11G 8739   2.516   6.843  14.379  0.1248 -1.5550 -0.0816
   6723SM  C12F 8740   2.690   6.967  14.439 -0.1156  0.8145  0.1996
   6723SM  H12F 8741   2.750   6.977  14.532 -0.8796 -0.0784  0.8040
   6723SM  H12G 8742   2.649   7.069  14.422 -2.3658  0.4563  2.8430
   6723SM  C13F 8743   2.782   6.914  14.334 -0.6243 -0.0938 -0.6485
   6723SM  H13F 8744   2.805   6.806  14.349 -0.2109 -0.0479 -0.9603
   6723SM  H13G 8745   2.879   6.967  14.339 -0.5011 -0.4040  0.7807
   6723SM  C14F 8746   2.726   6.915  14.191  0.0295  0.6778  0.5472
   6723SM  H14F 8747   2.723   7.018  14.150  0.5886  1.4805  2.3999
   6723SM  H14G 8748   2.620   6.883  14.196 -0.4979  2.0845 -0.8335
   6723SM  C15F 8749   2.799   6.817  14.096 -0.6424 -0.6940  0.4530
   6723SM  H15F 8750   2.794   6.709  14.122 -1.1758 -0.9646 -0.7294
   6723SM  H15G 8751   2.908   6.837  14.084 -1.2939  2.0196 -1.8591
   6723SM  C16F 8752   2.750   6.844  13.955 -0.3907 -0.7607 -0.7788
   6723SM  H16F 8753   2.776   6.950  13.934  0.9094 -0.9353 -0.1702
   6723SM  H16G 8754   2.640   6.833  13.951 -0.9052  1.6951  2.6257
   6723SM  C17F 8755   2.811   6.750  13.844 -0.5950  0.4179 -0.2596
   6723SM  H17F 8756   2.794   6.641  13.854 -0.2492  0.2414 -1.4066
   6723SM  H17G 8757   2.919   6.775  13.852 -1.0923  3.6330 -1.8793
   6723SM  C18F 8758   2.739   6.786  13.711 -0.0247  0.1144  0.6294
   6723SM  H18F 8759   2.628   6.791  13.716 -0.4084 -1.6121 -2.9445
   6723SM  H18G 8760   2.760   6.712  13.631  0.0945  0.0492  0.7218
   6723SM  C19F 8761   2.789   6.915  13.644  0.1267  0.0536  0.0722
   6723SM  H19F 8762   2.898   6.898  13.629  0.9441  2.4732  2.3765
   6723SM  H19G 8763   2.793   7.005  13.710  0.1553 -0.0757  0.2489
   6723SM  C20F 8764   2.718   6.967  13.520  0.2358 -0.4372 -0.3741
   6723SM  H20F 8765   2.614   7.002  13.534  0.3540  0.0750 -0.7633
   6723SM  H20G 8766   2.719   6.884  13.446  0.7917 -0.3379 -0.4861
   6723SM  C21F 8767   2.795   7.083  13.459 -0.0313 -0.3528  0.4937
   6723SM  H21F 8768   2.903   7.057  13.462  0.0249 -0.7843 -2.3749
   6723SM  H21G 8769   2.780   7.173  13.521 -0.2304 -0.4067  0.5229
   6723SM  C22F 8770   2.754   7.102  13.309  0.0458 -0.5454 -0.2075
   6723SM  H22F 8771   2.644   7.095  13.298 -0.0869 -1.1449  1.3513
   6723SM  H22G 8772   2.794   7.022  13.242 -1.1527 -1.2838 -0.0727
   6723SM  C23F 8773   2.805   7.243  13.272  0.6282 -0.4030  0.0124
   6723SM  H23F 8774   2.745   7.323  13.320  1.1943 -0.4212  0.7773
   6723SM  H23G 8775   2.811   7.255  13.161 -0.6933 -0.7784 -0.1168
   6723SM  H23H 8776   2.907   7.269  13.309  0.5599  2.0724 -1.3483
   6823SM     N 8777   3.448   0.046  15.775 -0.3143  1.0157  0.5958
   6823SM   C15 8778   3.395  -0.005  15.639  0.2956  0.4773 -0.5395
   6823SM  H15A 8779   3.471  -0.044  15.573  0.9240  0.6829  0.0382
   6823SM  H15B 8780   3.324   0.060  15.590 -2.6593 -1.1932  1.2349
   6823SM  H15C 8781   3.331  -0.087  15.669 -0.1577  1.0305  0.0309
   6823SM   C14 8782   3.332   0.092  15.860 -0.4478 -0.0437  0.4391
   6823SM  H14A 8783   3.275   0.167  15.805 -0.0523 -0.4364 -0.5158
   6823SM  H14B 8784   3.379   0.133  15.948 -0.9094 -0.3041  0.8119
   6823SM  H14C 8785   3.271   0.007  15.885 -0.1572 -0.5817 -0.6339
   6823SM   C13 8786   3.513  -0.077  15.845 -0.9134  0.2004  0.3188
   6823SM  H13A 8787   3.572  -0.040  15.927 -1.6715  1.4104  0.3465
   6823SM  H13B 8788   3.589  -0.124  15.785  1.0552 -0.5682  3.1945
   6823SM  H13C 8789   3.437  -0.150  15.871  0.0723 -1.4721 -1.2554
   6823SM   C12 8790   3.543   0.162  15.754  0.0067  0.3134 -0.0296
   6823SM  H12A 8791   3.484   0.237  15.705 -1.5393 -0.3991  0.6633
   6823SM  H12B 8792   3.625   0.143  15.686  1.1345  3.4464  0.2670
   6823SM   C11 8793   3.602   0.239  15.875  0.3255 -0.4707  0.5319
   6823SM  H11A 8794   3.681   0.310  15.841 -1.7275  1.2298 -0.9497
   6823SM  H11B 8795   3.651   0.168  15.946  1.0419 -1.1859 -0.6380
   6823SM     P 8796   3.437   0.445  15.893 -0.6544 -0.2488 -0.0428
   6823SM   O13 8797   3.295   0.421  15.868 -0.2570 -0.1119  0.1019
   6823SM   O14 8798   3.462   0.547  15.996 -0.0714  0.4637  0.1708
   6823SM   O11 8799   3.504   0.483  15.755  0.0307 -0.0969  0.2808
   6823SM   O12 8800   3.494   0.310  15.938  0.0749 -0.1715  0.6371
   6823SM   C1S 8801   3.625   0.559  15.753 -0.9144 -0.7719  0.4062
   6823SM   H1S 8802   3.716   0.512  15.797 -0.5838  1.0289  1.8089
   6823SM   H1T 8803   3.615   0.655  15.809  1.5438 -0.2709  0.1392
   6823SM    NF 8804   3.795   0.659  15.593 -0.6616 -0.2575 -0.5645
   6823SM   HNF 8805   3.801   0.757  15.578 -2.4463 -0.0965 -0.4435
   6823SM   C2S 8806   3.661   0.604  15.607  0.1079  0.3959  0.2998
   6823SM   H2S 8807   3.675   0.510  15.549  0.5800  0.7078 -0.1078
   6823SM   C3S 8808   3.548   0.693  15.552  0.4331 -0.8261  0.0053
   6823SM   H3S 8809   3.556   0.793  15.601 -2.0796 -0.1646 -0.7432
   6823SM    O3 8810   3.416   0.646  15.590  0.0581 -0.2207  0.3251
   6823SM   HO3 8811   3.431   0.579  15.656 -1.2533 -1.5806 -0.6931
   6823SM   C4S 8812   3.539   0.717  15.406 -0.4504 -0.7652  0.2769
   6823SM   H4S 8813   3.528   0.620  15.355 -1.3764 -0.0156 -0.9948
   6823SM   C5S 8814   3.548   0.836  15.339 -0.4888  0.9262  0.1410
   6823SM   H5S 8815   3.577   0.930  15.388  2.8566 -0.1087  0.3992
   6823SM   C6S 8816   3.531   0.851  15.188 -0.4960 -0.5094  0.0681
   6823SM   H6S 8817   3.623   0.887  15.137 -1.6044  0.6060 -1.2377
   6823SM   H6T 8818   3.460   0.936  15.182 -1.2137 -1.0744  0.4073
   6823SM   C7S 8819   3.478   0.734  15.103  0.7298 -0.0169  0.5126
   6823SM   H7S 8820   3.373   0.706  15.123 -0.1045  2.9136  0.7086
   6823SM   H7T 8821   3.538   0.643  15.120 -0.1724 -0.7154  0.0400
   6823SM   C8S 8822   3.475   0.784  14.954 -0.9859 -0.1757  0.0467
   6823SM   H8S 8823   3.573   0.814  14.911  0.1417 -2.3609  0.9390
   6823SM   H8T 8824   3.404   0.870  14.951  1.1290  1.6271 -2.1968
   6823SM   C9S 8825   3.428   0.675  14.847  0.3831 -0.7794 -0.8569
   6823SM   H9S 8826   3.335   0.633  14.891  0.8028 -0.5784  0.2485
   6823SM   H9T 8827   3.500   0.590  14.840 -1.1961 -2.3324  0.7473
   6823SM  C10S 8828   3.379   0.735  14.713  0.4534  0.0749  0.7915
   6823SM  H10S 8829   3.457   0.735  14.634  0.0171 -2.0858  0.2975
   6823SM  H10T 8830   3.340   0.839  14.713  0.9102  0.2535  1.6281
   6823SM  C11S 8831   3.268   0.640  14.660  0.5659 -0.2231 -0.6474
   6823SM  H11S 8832   3.230   0.686  14.566  0.3529  2.8719  0.8397
   6823SM  H11T 8833   3.192   0.634  14.741  1.4327  1.0294  0.2975
   6823SM  C12S 8834   3.315   0.492  14.644 -0.1482  0.0425 -0.3445
   6823SM  H12S 8835   3.232   0.422  14.621 -0.5988  0.7756 -0.9428
   6823SM  H12T 8836   3.378   0.446  14.724 -0.4716 -3.2859 -1.8076
   6823SM  C13S 8837   3.415   0.481  14.524  0.1349 -0.4423 -0.0484
   6823SM  H13S 8838   3.445   0.375  14.519  0.2568 -0.3680 -1.1753
   6823SM  H13T 8839   3.513   0.531  14.542  1.2768 -2.5483 -0.0995
   6823SM  C14S 8840   3.365   0.527  14.387 -0.2159 -0.5832  0.4462
   6823SM  H14S 8841   3.367   0.638  14.388 -1.5999 -0.5145  2.5859
   6823SM  H14T 8842   3.259   0.497  14.372  0.1447 -0.7866 -2.0206
   6823SM  C15S 8843   3.450   0.502  14.263 -0.3641  0.1146 -1.0126
   6823SM  H15S 8844   3.448   0.393  14.241 -0.8297 -0.1729  0.3682
   6823SM  H15T 8845   3.554   0.536  14.280 -0.4746 -0.5529  1.2909
   6823SM  C16S 8846   3.399   0.579  14.140 -0.0958  0.3199 -0.0045
   6823SM  H16S 8847   3.368   0.682  14.170 -2.5945  0.1092 -1.5144
   6823SM  H16T 8848   3.302   0.530  14.117 -0.4448  0.0759  1.8221
   6823SM  C17S 8849   3.504   0.581  14.024  0.1125  0.3735  0.0611
   6823SM  H17S 8850   3.599   0.615  14.071 -0.3465 -0.3940  1.6202
   6823SM  H17T 8851   3.486   0.657  13.946  2.1246  0.7905 -0.0537
   6823SM  C18S 8852   3.519   0.440  13.963 -0.2733 -0.0883  0.3492
   6823SM  H18S 8853   3.602   0.443  13.889 -0.5148  1.5863  0.1121
   6823SM  H18T 8854   3.428   0.402  13.912  0.0856  0.4180 -0.6783
   6823SM  H18U 8855   3.547   0.359  14.034  1.1972 -1.4048 -1.6343
   6823SM   C1F 8856   3.906   0.593  15.618 -0.6853 -0.0805 -0.3346
   6823SM    OF 8857   3.902   0.472  15.620  0.6126  0.6645  0.0683
   6823SM   C2F 8858   4.027   0.680  15.649 -0.1651 -0.0229  0.4301
   6823SM   H2F 8859   4.076   0.642  15.741  1.8105  0.9913 -0.1504
   6823SM   H2G 8860   3.996   0.780  15.686 -0.2461  0.7293 -1.5681
   6823SM   C3F 8861   4.116   0.695  15.531  0.2734 -1.1195 -0.0316
   6823SM   H3F 8862   4.169   0.597  15.520 -0.2622 -1.3261 -0.8456
   6823SM   H3G 8863   4.197   0.768  15.550  0.5810 -1.9489  2.2687
   6823SM   C4F 8864   4.039   0.730  15.398 -0.4406  0.0924 -1.1475
   6823SM   H4F 8865   3.975   0.820  15.407  0.5683  0.6484  1.5978
   6823SM   H4G 8866   3.976   0.645  15.365  0.0236 -0.6339 -0.2055
   6823SM   C5F 8867   4.143   0.755  15.290 -0.1320 -0.0475  0.0651
   6823SM   H5F 8868   4.135   0.667  15.223 -1.1646  1.6255 -2.1954
   6823SM   H5G 8869   4.248   0.749  15.325 -0.5705 -1.8052  1.1974
   6823SM   C6F 8870   4.098   0.873  15.207  0.8113 -0.1085  0.5431
   6823SM   H6F 8871   4.134   0.974  15.235  1.4574 -0.5801  1.4667
   6823SM   H6G 8872   3.988   0.871  15.191  1.0147  0.8585 -1.2602
   6823SM   C7F 8873   4.160   0.858  15.067 -0.5432  0.0365  0.1489
   6823SM   H7F 8874   4.136   0.757  15.026 -1.2626 -0.0572  0.7869
   6823SM   H7G 8875   4.270   0.858  15.088 -0.2013  0.2273 -1.4741
   6823SM   C8F 8876   4.102   0.965  14.966 -0.1359  0.2444 -1.6926
   6823SM   H8F 8877   4.095   1.066  15.010 -0.5948 -0.4321 -0.1206
   6823SM   H8G 8878   3.998   0.933  14.943  0.5042 -2.4943 -1.1610
   6823SM   C9F 8879   4.186   0.966  14.843  0.4608 -0.5047 -0.6838
   6823SM   H9F 8880   4.230   0.871  14.804  0.4133 -0.9552  0.3333
   6823SM   H9G 8881   4.273   1.027  14.876  1.8262 -2.3295 -0.7008
   6823SM  C10F 8882   4.124   1.058  14.730 -0.3926  0.2713  0.7101
   6823SM  H10F 8883   4.100   1.157  14.773  1.2599  2.3740 -2.7526
   6823SM  H10G 8884   4.029   1.016  14.690  0.4458 -0.3761 -0.6709
   6823SM  C11F 8885   4.226   1.081  14.620  0.4170  0.4348  0.9422
   6823SM  H11F 8886   4.241   0.989  14.560  0.8562  1.6156 -0.8463
   6823SM  H11G 8887   4.323   1.106  14.669  0.7403  1.8156 -0.3113
   6823SM  C12F 8888   4.183   1.182  14.512  0.3426 -0.2660  0.5574
   6823SM  H12F 8889   4.204   1.283  14.553 -0.6317  0.8685 -1.5905
   6823SM  H12G 8890   4.077   1.166  14.483  0.0447 -0.2917  1.6261
   6823SM  C13F 8891   4.258   1.171  14.380  0.3261 -0.7038  0.1891
   6823SM  H13F 8892   4.237   1.071  14.335 -2.1602  0.3989 -1.3138
   6823SM  H13G 8893   4.365   1.189  14.403 -0.2042  1.3806  1.2520
   6823SM  C14F 8894   4.218   1.281  14.277 -0.3466 -0.1819  0.4183
   6823SM  H14F 8895   4.225   1.383  14.320  0.5299 -0.5159  1.0873
   6823SM  H14G 8896   4.110   1.265  14.256 -0.3348 -0.5957  0.6717
   6823SM  C15F 8897   4.297   1.265  14.149  0.3232  0.0143 -0.2294
   6823SM  H15F 8898   4.249   1.172  14.113 -2.1960  1.3771 -0.5601
   6823SM  H15G 8899   4.406   1.261  14.175 -0.4045  0.2820  3.4821
   6823SM  C16F 8900   4.268   1.369  14.046 -0.3334  0.7246 -0.0327
   6823SM  H16F 8901   4.266   1.464  14.103 -2.2488 -0.8507  2.7609
   6823SM  H16G 8902   4.168   1.346  14.003  0.3471 -0.0693 -1.2653
   6823SM  C17F 8903   4.365   1.371  13.921 -0.3277  0.1701 -0.1181
   6823SM  H17F 8904   4.365   1.274  13.867 -1.8308  1.2668 -2.1872
   6823SM  H17G 8905   4.472   1.385  13.949  0.3625 -3.3392 -0.4548
   6823SM  C18F 8906   4.323   1.479  13.824 -0.1311 -1.0979 -1.2634
   6823SM  H18F 8907   4.340   1.578  13.871  2.3933 -1.5596 -1.0465
   6823SM  H18G 8908   4.213   1.465  13.818 -0.4307 -1.2906  2.4064
   6823SM  C19F 8909   4.399   1.481  13.693 -0.9924  0.4010 -0.4110
   6823SM  H19F 8910   4.395   1.379  13.647  0.3923  0.1716 -0.0595
   6823SM  H19G 8911   4.502   1.504  13.726 -1.1267 -0.1927  0.4503
   6823SM  C20F 8912   4.360   1.592  13.599  0.4799 -0.9978  0.4307
   6823SM  H20F 8913   4.381   1.689  13.651  0.5561 -0.8619  0.1497
   6823SM  H20G 8914   4.251   1.590  13.578  0.5175  0.9245 -0.1906
   6823SM  C21F 8915   4.432   1.606  13.462  0.3482  0.3340  0.1205
   6823SM  H21F 8916   4.542   1.596  13.462  0.4954  1.6754 -1.2913
   6823SM  H21G 8917   4.417   1.713  13.438  1.3640  0.9147  1.9324
   6823SM  C22F 8918   4.366   1.525  13.348 -0.2358 -0.2380 -0.5151
   6823SM  H22F 8919   4.260   1.553  13.333  0.0853  1.1359 -0.3458
   6823SM  H22G 8920   4.370   1.417  13.374  3.0992  0.0653  0.7070
   6823SM  C23F 8921   4.429   1.540  13.209  0.5713 -0.5109 -0.0652
   6823SM  H23F 8922   4.429   1.650  13.192 -2.5911 -0.2467  0.9898
   6823SM  H23G 8923   4.373   1.482  13.133  1.0441  2.2019 -2.6729
   6823SM  H23H 8924   4.536   1.511  13.206 -0.1652 -3.5155  0.2607
   6923SM     N 8925   6.434   2.342  16.100 -0.1779  0.2231 -0.1356
   6923SM   C15 8926   6.452   2.217  16.019  0.0730  0.4678  0.0513
   6923SM  H15A 8927   6.373   2.145  16.038 -0.4283  1.2460  1.0632
   6923SM  H15B 8928   6.551   2.174  16.025 -0.3354 -0.6020 -0.4974
   6923SM  H15C 8929   6.428   2.252  15.920  0.2562  2.3729  0.6407
   6923SM   C14 8930   6.435   2.299  16.246  0.8421  0.2037 -0.1107
   6923SM  H14A 8931   6.520   2.240  16.277  0.1607 -1.4384 -1.1633
   6923SM  H14B 8932   6.350   2.235  16.265 -0.1918  0.7106 -2.6348
   6923SM  H14C 8933   6.439   2.385  16.310 -1.5932 -0.0429  0.4705
   6923SM   C13 8934   6.553   2.423  16.070 -0.3264 -0.1547  0.4079
   6923SM  H13A 8935   6.533   2.470  15.975 -0.9949 -1.9138 -0.3721
   6923SM  H13B 8936   6.643   2.364  16.069 -0.6701 -0.8625  3.1918
   6923SM  H13C 8937   6.571   2.507  16.136 -0.6311  1.3431 -1.3278
   6923SM   C12 8938   6.303   2.427  16.065 -0.2795 -0.8231  0.1062
   6923SM  H12A 8939   6.295   2.515  16.127  0.5414 -0.4851 -0.2547
   6923SM  H12B 8940   6.212   2.371  16.081 -2.0611  1.6944 -0.5430
   6923SM   C11 8941   6.287   2.489  15.913 -0.7929 -0.6798 -0.6416
   6923SM  H11A 8942   6.191   2.544  15.905  0.4499  1.5857 -0.9870
   6923SM  H11B 8943   6.281   2.413  15.833 -0.6358 -1.1597 -0.2073
   6923SM     P 8944   6.369   2.727  15.934 -0.0134 -0.3325 -0.1790
   6923SM   O13 8945   6.296   2.719  16.063 -0.3556 -0.3454 -0.5437
   6923SM   O14 8946   6.500   2.800  15.939  0.5483 -0.6087  0.9218
   6923SM   O11 8947   6.266   2.780  15.825 -0.2328 -0.2917 -0.8721
   6923SM   O12 8948   6.399   2.577  15.882 -0.3815  0.1693 -0.1360
   6923SM   C1S 8949   6.317   2.837  15.705  0.1932  1.1078 -0.0497
   6923SM   H1S 8950   6.373   2.760  15.647 -0.7028 -0.0634  0.5815
   6923SM   H1T 8951   6.377   2.926  15.732  1.3437  0.0467  1.0557
   6923SM    NF 8952   6.250   2.926  15.483  0.2897 -0.0474  0.0466
   6923SM   HNF 8953   6.270   3.020  15.457 -0.9555  0.1804 -0.1260
   6923SM   C2S 8954   6.203   2.889  15.618  0.3049 -0.7782  0.3676
   6923SM   H2S 8955   6.128   2.809  15.607  1.3435 -2.0147  1.8388
   6923SM   C3S 8956   6.127   3.003  15.694 -0.7089  0.5880  0.9374
   6923SM   H3S 8957   6.199   3.087  15.701 -0.6207  0.3934  5.9304
   6923SM    O3 8958   6.071   2.971  15.820  0.4939  0.2484  0.4628
   6923SM   HO3 8959   6.125   2.899  15.855  0.8381 -0.4138 -1.3107
   6923SM   C4S 8960   6.015   3.055  15.603  0.2016 -0.3278 -0.0225
   6923SM   H4S 8961   6.040   3.144  15.544  0.2466 -1.1068 -1.2119
   6923SM   C5S 8962   5.898   2.993  15.576 -0.4562 -0.3796  0.0580
   6923SM   H5S 8963   5.886   2.889  15.609  3.1985 -1.2590 -0.9618
   6923SM   C6S 8964   5.809   3.048  15.474 -1.2139  0.3505 -0.0968
   6923SM   H6S 8965   5.837   3.148  15.434  0.0166 -0.2609 -0.8418
   6923SM   H6T 8966   5.704   3.053  15.509 -0.7498  1.7896  1.1922
   6923SM   C7S 8967   5.807   2.948  15.360  0.3554 -0.2425  0.1461
   6923SM   H7S 8968   5.778   2.845  15.390  2.0825 -0.3033  1.7963
   6923SM   H7T 8969   5.901   2.944  15.302  0.6618 -0.5834  0.6633
   6923SM   C8S 8970   5.699   3.004  15.258  0.2148  0.2206  0.3797
   6923SM   H8S 8971   5.728   3.110  15.239  1.9199  0.3719  3.2593
   6923SM   H8T 8972   5.599   2.998  15.305  0.0163  0.7249  0.0349
   6923SM   C9S 8973   5.689   2.931  15.126 -0.2017  0.0620  0.4873
   6923SM   H9S 8974   5.632   2.837  15.144 -1.3958  0.9226  1.3128
   6923SM   H9T 8975   5.786   2.906  15.078 -0.6792 -0.8087 -0.0561
   6923SM  C10S 8976   5.619   3.016  15.023 -0.5173 -0.8031  0.7455
   6923SM  H10S 8977   5.660   3.119  15.014 -0.5207 -0.8205  0.5181
   6923SM  H10T 8978   5.509   3.014  15.038 -0.3204 -1.2680  2.3420
   6923SM  C11S 8979   5.633   2.962  14.879 -0.1807  0.2484  0.0196
   6923SM  H11S 8980   5.615   2.853  14.871  0.1861  0.2653 -1.1680
   6923SM  H11T 8981   5.730   2.995  14.836 -1.6428  2.6300 -1.7462
   6923SM  C12S 8982   5.551   3.046  14.782  0.4052  0.0718 -0.4490
   6923SM  H12S 8983   5.576   3.154  14.782 -1.5728  0.5787  0.6605
   6923SM  H12T 8984   5.446   3.050  14.817  0.6054  1.0455  0.0732
   6923SM  C13S 8985   5.534   2.987  14.642 -0.2486 -0.1518  0.1326
   6923SM  H13S 8986   5.479   2.891  14.636  0.9383 -0.8336 -0.0894
   6923SM  H13T 8987   5.636   2.970  14.602 -0.4397 -2.4355  0.4948
   6923SM  C14S 8988   5.471   3.078  14.534 -0.3884  0.0971  0.1232
   6923SM  H14S 8989   5.533   3.170  14.527 -0.9154  0.7662  2.9749
   6923SM  H14T 8990   5.369   3.114  14.558 -0.0737  0.8283  0.4071
   6923SM  C15S 8991   5.462   3.011  14.396  0.0905 -0.3016 -0.0323
   6923SM  H15S 8992   5.391   2.927  14.408 -0.5075  0.3850  1.6397
   6923SM  H15T 8993   5.565   2.976  14.371  0.7955 -0.2591  2.5067
   6923SM  C16S 8994   5.413   3.105  14.285  0.1467 -0.2256 -0.1272
   6923SM  H16S 8995   5.486   3.184  14.256  2.0780 -2.1079 -0.5930
   6923SM  H16T 8996   5.313   3.145  14.316  0.3986 -1.6572  2.8489
   6923SM  C17S 8997   5.398   3.028  14.154 -0.0026  0.7640 -0.5421
   6923SM  H17S 8998   5.326   2.947  14.177  1.5157 -1.2248 -2.3321
   6923SM  H17T 8999   5.494   2.974  14.138  0.7153  1.1651  1.9845
   6923SM  C18S 9000   5.344   3.106  14.040  0.1899 -0.5405  0.0277
   6923SM  H18S 9001   5.255   3.167  14.065  1.4025  1.8876 -1.2348
   6923SM  H18T 9002   5.312   3.035  13.961 -1.3756 -0.1908  0.3003
   6923SM  H18U 9003   5.424   3.167  13.994 -0.9747  0.9411 -0.1407
   6923SM   C1F 9004   6.271   2.828  15.397 -0.4026  0.4237  0.3477
   6923SM    OF 9005   6.261   2.712  15.438 -0.1510  0.4518  0.8145
   6923SM   C2F 9006   6.329   2.862  15.266  0.0989  0.2105 -0.4934
   6923SM   H2F 9007   6.439   2.862  15.280 -0.0319 -0.7073  0.6487
   6923SM   H2G 9008   6.280   2.953  15.224  0.8814  0.6782 -0.4122
   6923SM   C3F 9009   6.281   2.749  15.167 -0.2039 -0.3209  0.2001
   6923SM   H3F 9010   6.171   2.760  15.174 -0.2149  0.2238 -0.6548
   6923SM   H3G 9011   6.314   2.647  15.197  0.6012  0.1732  1.0437
   6923SM   C4F 9012   6.335   2.780  15.026 -0.2724  0.8327  0.3527
   6923SM   H4F 9013   6.444   2.759  15.014  0.1839  2.4281  1.3817
   6923SM   H4G 9014   6.346   2.888  15.006  1.5109  1.1170  2.5415
   6923SM   C5F 9015   6.251   2.706  14.920  0.2996 -0.7891  0.0486
   6923SM   H5F 9016   6.227   2.603  14.954 -3.5025  0.3839  1.4380
   6923SM   H5G 9017   6.312   2.710  14.827 -0.8840  2.4000 -0.7114
   6923SM   C6F 9018   6.117   2.785  14.888 -0.3455  0.5027  0.4803
   6923SM   H6F 9019   6.142   2.886  14.849  0.4606 -0.9357 -3.1583
   6923SM   H6G 9020   6.058   2.796  14.982  1.2767  0.1661  1.5831
   6923SM   C7F 9021   6.037   2.718  14.779  0.0156 -0.0324 -0.3538
   6923SM   H7F 9022   6.000   2.617  14.806  0.6342 -0.2152 -0.1812
   6923SM   H7G 9023   6.102   2.722  14.688 -0.9591 -1.2276 -1.1262
   6923SM   C8F 9024   5.905   2.799  14.754  0.0433  0.3728  0.8162
   6923SM   H8F 9025   5.939   2.898  14.719 -1.5997 -0.1153 -2.5515
   6923SM   H8G 9026   5.850   2.799  14.850  1.3370 -0.8721  1.6025
   6923SM   C9F 9027   5.819   2.740  14.642 -0.6975 -0.0535  0.5530
   6923SM   H9F 9028   5.714   2.768  14.663 -1.4097 -1.5872 -0.7169
   6923SM   H9G 9029   5.809   2.630  14.637  0.1063 -0.1232  0.2549
   6923SM  C10F 9030   5.850   2.787  14.496 -0.2586 -0.1143  0.3349
   6923SM  H10F 9031   5.959   2.780  14.479 -0.4264 -0.5664 -0.6143
   6923SM  H10G 9032   5.823   2.892  14.469 -2.1302 -0.2763  1.4085
   6923SM  C11F 9033   5.781   2.700  14.383 -0.6486 -0.9036 -0.4986
   6923SM  H11F 9034   5.671   2.689  14.397 -0.6016  1.4183  3.4274
   6923SM  H11G 9035   5.823   2.599  14.407 -0.0357 -0.6941 -0.6791
   6923SM  C12F 9036   5.819   2.748  14.238 -0.3347 -0.0304 -1.0698
   6923SM  H12F 9037   5.930   2.739  14.230 -0.3540 -1.2190 -0.2721
   6923SM  H12G 9038   5.793   2.856  14.237 -1.9856 -0.2755  2.3012
   6923SM  C13F 9039   5.747   2.671  14.133  0.1921  0.2515  0.1309
   6923SM  H13F 9040   5.637   2.669  14.149  0.1230  1.1602 -0.1312
   6923SM  H13G 9041   5.780   2.565  14.141  0.7677  0.2774 -1.5016
   6923SM  C14F 9042   5.775   2.713  13.988 -0.3331 -0.0782  0.3062
   6923SM  H14F 9043   5.885   2.708  13.968 -0.5900 -0.5272 -1.0810
   6923SM  H14G 9044   5.736   2.813  13.962 -1.5242 -0.4912  0.4639
   6923SM  C15F 9045   5.706   2.618  13.890  0.3538 -0.2715  0.5072
   6923SM  H15F 9046   5.700   2.678  13.797  0.4324 -0.6215  0.2761
   6923SM  H15G 9047   5.599   2.614  13.920  0.1741 -0.6551 -0.1836
   6923SM  C16F 9048   5.780   2.483  13.868 -0.2377 -0.4131  0.1921
   6923SM  H16F 9049   5.791   2.427  13.963 -0.2971 -1.2568 -0.2887
   6923SM  H16G 9050   5.881   2.515  13.835 -0.7579  0.5125 -0.5473
   6923SM  C17F 9051   5.708   2.388  13.769  0.0303  0.4839 -0.3345
   6923SM  H17F 9052   5.686   2.437  13.672 -0.6033 -1.8523 -1.4620
   6923SM  H17G 9053   5.612   2.343  13.804  0.2930 -0.8884 -1.2688
   6923SM  C18F 9054   5.809   2.269  13.743  0.6151  0.3000 -0.5645
   6923SM  H18F 9055   5.804   2.195  13.825 -2.8351  0.9647 -0.0262
   6923SM  H18G 9056   5.911   2.313  13.734 -0.3020  2.2852 -2.1452
   6923SM  C19F 9057   5.772   2.200  13.611 -0.0023 -0.7140 -0.2926
   6923SM  H19F 9058   5.789   2.270  13.526  0.9240  0.9614  1.2057
   6923SM  H19G 9059   5.662   2.186  13.620  0.2360 -2.7289 -0.2617
   6923SM  C20F 9060   5.832   2.064  13.587  0.1127  0.8005  0.4042
   6923SM  H20F 9061   5.840   1.999  13.677  2.3477  0.1729 -0.1905
   6923SM  H20G 9062   5.938   2.064  13.555 -0.1200 -0.1896 -0.4311
   6923SM  C21F 9063   5.755   1.974  13.483 -0.6044 -0.3665 -0.2223
   6923SM  H21F 9064   5.644   1.975  13.487 -0.6456 -2.8501  0.9774
   6923SM  H21G 9065   5.786   1.869  13.497 -1.1685 -0.5481 -0.3151
   6923SM  C22F 9066   5.807   2.025  13.348  0.4628  0.5239  0.1916
   6923SM  H22F 9067   5.912   1.994  13.333 -0.5047 -2.3278 -1.4552
   6923SM  H22G 9068   5.803   2.136  13.342 -2.6433  0.5363  0.8493
   6923SM  C23F 9069   5.730   1.970  13.221 -0.0284 -0.1148  0.3467
   6923SM  H23F 9070   5.752   2.029  13.129 -0.6744  1.7255  1.3321
   6923SM  H23G 9071   5.620   1.976  13.229 -0.1869  0.2058 -1.6042
   6923SM  H23H 9072   5.766   1.866  13.207 -1.4949 -0.7049  0.8398
   7023SM     N 9073   6.604   1.570  16.314 -0.1858 -0.5711 -0.3411
   7023SM   C15 9074   6.698   1.683  16.344 -0.1211  0.7276  0.5723
   7023SM  H15A 9075   6.766   1.710  16.264  0.7146 -0.1065  0.9932
   7023SM  H15B 9076   6.750   1.654  16.433  3.1928  1.3619 -0.9824
   7023SM  H15C 9077   6.640   1.772  16.366  0.0934  0.3119  3.0430
   7023SM   C14 9078   6.671   1.442  16.296 -0.2651  0.3273  0.2119
   7023SM  H14A 9079   6.731   1.406  16.379  0.4728 -3.4937 -1.7824
   7023SM  H14B 9080   6.744   1.442  16.217 -0.8299 -2.0939 -0.3924
   7023SM  H14C 9081   6.605   1.363  16.266  2.0440 -0.5082 -3.2060
   7023SM   C13 9082   6.505   1.556  16.427 -0.1830  0.2239  0.2024
   7023SM  H13A 9083   6.448   1.645  16.448  0.1755  0.9148 -1.5871
   7023SM  H13B 9084   6.553   1.530  16.520 -1.2286 -0.0973  0.6765
   7023SM  H13C 9085   6.440   1.470  16.416  0.7897 -0.8042  2.0352
   7023SM   C12 9086   6.520   1.602  16.195  0.2513 -0.1930 -0.1808
   7023SM  H12A 9087   6.445   1.674  16.225  0.5631 -0.0818  0.3425
   7023SM  H12B 9088   6.468   1.513  16.162  0.6463 -0.2497 -0.6672
   7023SM   C11 9089   6.586   1.639  16.066 -0.3295  0.5035  0.4728
   7023SM  H11A 9090   6.654   1.726  16.082 -0.0213  0.0487  1.8078
   7023SM  H11B 9091   6.506   1.675  15.999  1.3984  1.4503 -1.2030
   7023SM     P 9092   6.602   1.440  15.891  0.1602 -0.0276  0.4121
   7023SM   O13 9093   6.713   1.353  15.845  0.2721 -0.0167  1.1493
   7023SM   O14 9094   6.478   1.386  15.951  0.1418  0.2796  0.6336
   7023SM   O11 9095   6.559   1.532  15.773 -0.1195 -0.2571  0.1379
   7023SM   O12 9096   6.664   1.540  15.999  0.6691  0.5777 -0.0250
   7023SM   C1S 9097   6.642   1.629  15.700  0.3553 -0.0367  0.1593
   7023SM   H1S 9098   6.749   1.630  15.732  0.9006  2.2238 -1.5147
   7023SM   H1T 9099   6.616   1.734  15.725  0.8620 -0.8410  5.2994
   7023SM    NF 9100   6.742   1.695  15.480  0.5395  0.0727  0.2660
   7023SM   HNF 9101   6.705   1.757  15.411  0.6823  0.1270  0.2375
   7023SM   C2S 9102   6.648   1.598  15.546  0.0691  0.0669  0.2832
   7023SM   H2S 9103   6.676   1.491  15.536 -2.1845 -0.4933 -0.7409
   7023SM   C3S 9104   6.510   1.614  15.484  0.4459 -0.1272 -0.2972
   7023SM   H3S 9105   6.469   1.717  15.490 -0.3067 -0.4910  1.3399
   7023SM    O3 9106   6.407   1.534  15.550 -0.3124  0.0931  0.7200
   7023SM   HO3 9107   6.459   1.514  15.628  1.4668  1.3053 -0.0969
   7023SM   C4S 9108   6.521   1.588  15.330  0.0671 -0.6020 -0.2736
   7023SM   H4S 9109   6.553   1.672  15.266 -1.6340 -1.1426 -1.9209
   7023SM   C5S 9110   6.494   1.469  15.270 -0.5268 -0.2725  0.7892
   7023SM   H5S 9111   6.459   1.378  15.320 -1.0406  0.1953  1.2898
   7023SM   C6S 9112   6.509   1.430  15.117 -0.1079 -0.4692  0.0398
   7023SM   H6S 9113   6.534   1.516  15.051  0.7125  0.3861  1.4025
   7023SM   H6T 9114   6.415   1.386  15.078  0.7535 -3.5633  1.1543
   7023SM   C7S 9115   6.618   1.324  15.087  0.7709  0.3090 -0.0741
   7023SM   H7S 9116   6.588   1.237  15.150  0.6045  0.0149 -0.5550
   7023SM   H7T 9117   6.714   1.360  15.130  1.7936 -2.8639  0.5622
   7023SM   C8S 9118   6.642   1.277  14.948 -0.6102 -1.3116  0.1282
   7023SM   H8S 9119   6.649   1.360  14.874  1.5841 -1.9769 -0.5150
   7023SM   H8T 9120   6.562   1.212  14.908 -0.0186 -1.0091 -1.6426
   7023SM   C9S 9121   6.767   1.190  14.931  0.1497 -0.1819  0.6241
   7023SM   H9S 9122   6.768   1.108  15.006  0.2400 -0.4058  0.3790
   7023SM   H9T 9123   6.867   1.238  14.936 -0.4882  1.4212 -1.0235
   7023SM  C10S 9124   6.757   1.125  14.791 -0.3628  0.5782 -0.7328
   7023SM  H10S 9125   6.734   1.204  14.717 -2.1850  0.6610 -0.1161
   7023SM  H10T 9126   6.671   1.055  14.792 -0.5270  0.6724 -3.0945
   7023SM  C11S 9127   6.881   1.047  14.751  0.1417 -0.4388 -0.2101
   7023SM  H11S 9128   6.877   0.970  14.830  2.0472 -0.8732 -0.5104
   7023SM  H11T 9129   6.969   1.111  14.771  2.4069 -3.3367 -0.2734
   7023SM  C12S 9130   6.896   0.986  14.612 -0.4939  0.0047  0.0000
   7023SM  H12S 9131   6.941   1.063  14.546  2.2788 -1.8489 -0.4604
   7023SM  H12T 9132   6.790   0.971  14.579 -0.0634  0.6099 -1.8018
   7023SM  C13S 9133   6.992   0.863  14.615  0.5899  0.1306  0.0313
   7023SM  H13S 9134   6.939   0.770  14.645 -1.3209  0.5974 -1.6526
   7023SM  H13T 9135   7.070   0.891  14.689 -0.1422  0.1430  0.8223
   7023SM  C14S 9136   7.063   0.840  14.483 -0.8329  0.4918  0.1883
   7023SM  H14S 9137   7.114   0.933  14.451 -0.4892  0.9899  2.0686
   7023SM  H14T 9138   6.984   0.819  14.408 -1.3669  0.4431  0.7528
   7023SM  C15S 9139   7.162   0.720  14.490  0.4993 -0.8546  0.0526
   7023SM  H15S 9140   7.107   0.631  14.528  1.1116 -0.8109  1.0663
   7023SM  H15T 9141   7.238   0.732  14.570 -0.1738  0.9278  0.4575
   7023SM  C16S 9142   7.224   0.690  14.349 -0.1373  0.2475  0.0544
   7023SM  H16S 9143   7.268   0.781  14.302 -0.2325  0.5025  0.4528
   7023SM  H16T 9144   7.140   0.671  14.279  0.5797 -0.7881 -0.5527
   7023SM  C17S 9145   7.326   0.576  14.350  1.4711 -0.4928  0.0733
   7023SM  H17S 9146   7.266   0.486  14.373 -0.6938  0.9155  0.2357
   7023SM  H17T 9147   7.401   0.597  14.429  0.2531 -0.0044  1.1295
   7023SM  C18S 9148   7.408   0.563  14.220 -0.1632 -0.5063 -0.9149
   7023SM  H18S 9149   7.479   0.648  14.212 -0.9090  0.1820 -0.3823
   7023SM  H18T 9150   7.349   0.576  14.127 -0.8340 -1.4500 -0.6374
   7023SM  H18U 9151   7.461   0.466  14.237  1.0447  0.5362  1.9321
   7023SM   C1F 9152   6.871   1.686  15.499 -0.2635 -0.1910  0.1190
   7023SM    OF 9153   6.914   1.608  15.583 -0.2010  0.4774  0.0947
   7023SM   C2F 9154   6.953   1.786  15.424  0.6185  1.2765 -0.4470
   7023SM   H2F 9155   6.925   1.886  15.464 -1.9051 -0.3885  2.4525
   7023SM   H2G 9156   6.926   1.772  15.317 -0.2925 -0.0998 -0.0733
   7023SM   C3F 9157   7.102   1.759  15.433 -0.2161  0.1535  0.4447
   7023SM   H3F 9158   7.133   1.656  15.405  0.6167  0.4194  0.3632
   7023SM   H3G 9159   7.117   1.767  15.543  1.2814  0.6985  0.2301
   7023SM   C4F 9160   7.189   1.865  15.358 -0.6371 -0.4105 -0.4277
   7023SM   H4F 9161   7.293   1.868  15.397 -0.9772  1.2809  0.4396
   7023SM   H4G 9162   7.136   1.960  15.381  0.6076 -0.1075  1.3644
   7023SM   C5F 9163   7.179   1.851  15.205 -0.2101  0.6686 -0.3301
   7023SM   H5F 9164   7.078   1.820  15.171 -1.1259  0.7328  2.1462
   7023SM   H5G 9165   7.244   1.763  15.184  0.4533  1.2787 -0.8673
   7023SM   C6F 9166   7.245   1.963  15.131  0.3626 -0.0090 -0.1838
   7023SM   H6F 9167   7.356   1.958  15.122  0.3970  0.1611  0.1374
   7023SM   H6G 9168   7.207   2.054  15.183  0.3437  0.0488 -0.2986
   7023SM   C7F 9169   7.202   1.991  14.984  0.2502 -0.0611 -0.0253
   7023SM   H7F 9170   7.249   2.085  14.949  2.2726  0.1548  2.9559
   7023SM   H7G 9171   7.091   1.995  14.986  0.0945 -1.2159 -2.4980
   7023SM   C8F 9172   7.239   1.882  14.880 -0.4877 -0.4129 -0.3594
   7023SM   H8F 9173   7.197   1.793  14.930 -1.6008 -0.5455 -1.4730
   7023SM   H8G 9174   7.347   1.870  14.858 -0.2835 -1.0650  0.9168
   7023SM   C9F 9175   7.178   1.899  14.743 -0.7051  0.4382 -0.7169
   7023SM   H9F 9176   7.067   1.901  14.754 -0.5456 -1.0834  1.9663
   7023SM   H9G 9177   7.200   1.808  14.684  1.0959  1.4547 -1.6911
   7023SM  C10F 9178   7.231   2.029  14.670  0.0826  0.9629 -0.0891
   7023SM  H10F 9179   7.342   2.030  14.663  0.2107  2.1868  1.4522
   7023SM  H10G 9180   7.196   2.120  14.724 -0.8363  2.1298 -2.5033
   7023SM  C11F 9181   7.186   2.042  14.521  0.0194 -0.1211 -0.0118
   7023SM  H11F 9182   7.257   1.991  14.452  1.3076  0.7603  0.6293
   7023SM  H11G 9183   7.196   2.148  14.489  2.6244 -0.4952 -0.7027
   7023SM  C12F 9184   7.043   2.001  14.489 -0.0741 -0.2092 -0.6053
   7023SM  H12F 9185   6.980   2.062  14.559 -0.5800  0.5431 -1.6832
   7023SM  H12G 9186   7.026   1.893  14.507  1.5792 -0.2646  0.8434
   7023SM  C13F 9187   6.989   2.036  14.341  0.4031  0.0248  0.0482
   7023SM  H13F 9188   7.069   2.007  14.270  1.3019 -2.2843  1.8548
   7023SM  H13G 9189   6.972   2.146  14.339  1.3611  0.1757 -0.5647
   7023SM  C14F 9190   6.864   1.943  14.300 -0.3723 -0.3015 -0.3006
   7023SM  H14F 9191   6.790   1.954  14.382 -0.4658  0.2005 -0.4509
   7023SM  H14G 9192   6.900   1.838  14.308 -2.3637 -0.9131  4.3294
   7023SM  C15F 9193   6.803   1.973  14.165 -0.6736  0.0809  0.2515
   7023SM  H15F 9194   6.881   1.944  14.091  0.1008 -0.1200  1.1168
   7023SM  H15G 9195   6.764   2.076  14.153 -1.2135 -0.3772 -2.4003
   7023SM  C16F 9196   6.697   1.873  14.126  0.5027 -0.1264 -0.0941
   7023SM  H16F 9197   6.744   1.774  14.143  1.3889  0.3968  0.5606
   7023SM  H16G 9198   6.689   1.893  14.017  2.2894 -2.1921 -0.6845
   7023SM  C17F 9199   6.561   1.894  14.193  0.1016  0.2061  0.8779
   7023SM  H17F 9200   6.560   1.997  14.236 -0.2770  0.9858 -0.9274
   7023SM  H17G 9201   6.554   1.825  14.280  0.5158  0.2383  0.9383
   7023SM  C18F 9202   6.444   1.885  14.092 -0.2535  0.0112 -0.0478
   7023SM  H18F 9203   6.425   1.779  14.066 -0.5056 -0.2738  1.1933
   7023SM  H18G 9204   6.480   1.942  14.004  0.6640  0.6022  0.6788
   7023SM  C19F 9205   6.309   1.937  14.142 -0.2629 -0.1361  0.3682
   7023SM  H19F 9206   6.306   2.048  14.129  1.8791  0.0221  0.8775
   7023SM  H19G 9207   6.292   1.915  14.249  0.0010  0.2172  0.4843
   7023SM  C20F 9208   6.192   1.868  14.062 -0.0894  0.2991 -0.2740
   7023SM  H20F 9209   6.180   1.767  14.108  0.0713  1.0468  1.4806
   7023SM  H20G 9210   6.209   1.858  13.953 -2.0495  1.3884 -0.7042
   7023SM  C21F 9211   6.066   1.952  14.063  0.5481 -1.0092 -0.1492
   7023SM  H21F 9212   5.986   1.900  14.005 -1.9689  2.3010  0.0199
   7023SM  H21G 9213   6.068   2.047  14.006 -1.0407 -0.3237  0.8431
   7023SM  C22F 9214   6.009   1.986  14.207 -0.2207 -0.4479 -0.3076
   7023SM  H22F 9215   6.078   2.044  14.272 -1.2702  0.4555  0.0286
   7023SM  H22G 9216   5.984   1.891  14.261 -0.5653 -1.6583 -2.4865
   7023SM  C23F 9217   5.881   2.072  14.187 -0.3951 -0.1237  0.2564
   7023SM  H23F 9218   5.904   2.159  14.123  1.9792 -0.2337  0.8584
   7023SM  H23G 9219   5.859   2.109  14.289  1.5255  4.6157 -0.7847
   7023SM  H23H 9220   5.808   2.004  14.138  0.5488 -0.3572 -0.8788
   7123SM     N 9221   5.414   0.507  16.125  0.1068  0.3766  0.0605
   7123SM   C15 9222   5.469   0.638  16.060  0.0347  0.3909  0.2649
   7123SM  H15A 9223   5.519   0.621  15.966  1.3218  1.2493  0.7667
   7123SM  H15B 9224   5.536   0.676  16.136  2.1648  0.2775 -1.4539
   7123SM  H15C 9225   5.391   0.710  16.040 -2.7746 -1.6343  2.9293
   7123SM   C14 9226   5.342   0.544  16.248 -0.2754 -0.6621 -0.4175
   7123SM  H14A 9227   5.258   0.606  16.220 -0.3239 -0.8633 -0.7171
   7123SM  H14B 9228   5.410   0.596  16.314  1.4338 -0.8572 -1.9364
   7123SM  H14C 9229   5.307   0.461  16.306  1.2906 -0.7106  0.5200
   7123SM   C13 9230   5.314   0.455  16.020 -0.6603  0.5528 -0.5224
   7123SM  H13A 9231   5.313   0.348  16.008  0.5283  0.2900  1.2854
   7123SM  H13B 9232   5.335   0.506  15.927 -1.0985 -2.0531 -2.1486
   7123SM  H13C 9233   5.210   0.472  16.044 -0.7434 -1.1629  0.4686
   7123SM   C12 9234   5.523   0.413  16.161 -0.4447  0.2114  0.5720
   7123SM  H12A 9235   5.480   0.328  16.211 -2.5209 -0.3291 -1.9140
   7123SM  H12B 9236   5.589   0.458  16.234 -0.2232  1.4444 -0.3443
   7123SM   C11 9237   5.614   0.365  16.037  0.3901  0.5275 -0.2420
   7123SM  H11A 9238   5.547   0.315  15.963  0.5804  0.0777 -0.1127
   7123SM  H11B 9239   5.677   0.279  16.068 -1.6266 -0.9651 -0.0718
   7123SM     P 9240   5.837   0.515  16.019  0.3793  0.0281  0.3494
   7123SM   O13 9241   5.882   0.640  15.956  0.1252 -0.1685  0.0490
   7123SM   O14 9242   5.849   0.520  16.168 -0.4730  0.1275 -0.2413
   7123SM   O11 9243   5.908   0.392  15.962  0.1152  0.4409 -0.2577
   7123SM   O12 9244   5.682   0.477  15.987  0.0636 -0.1362  0.4602
   7123SM   C1S 9245   5.870   0.327  15.831 -0.0862 -0.8617 -0.1001
   7123SM   H1S 9246   5.761   0.343  15.823 -0.1307  0.0984  1.7926
   7123SM   H1T 9247   5.898   0.219  15.835  1.6336 -0.4540 -0.2288
   7123SM    NF 9248   5.882   0.333  15.597 -0.8734 -0.2141 -0.4647
   7123SM   HNF 9249   5.921   0.262  15.538  0.2947  0.3309 -0.3768
   7123SM   C2S 9250   5.950   0.388  15.712  0.1367 -0.5645 -0.2214
   7123SM   H2S 9251   5.919   0.495  15.714 -1.3633 -0.9806 -0.1395
   7123SM   C3S 9252   6.105   0.367  15.739  0.3798 -0.4308  0.0782
   7123SM   H3S 9253   6.130   0.259  15.733 -0.0051 -0.4973 -0.3638
   7123SM    O3 9254   6.155   0.417  15.863 -0.0817  0.2872  0.6574
   7123SM   HO3 9255   6.088   0.431  15.930  1.1142 -2.0679  2.5161
   7123SM   C4S 9256   6.173   0.442  15.626 -0.1388 -0.3185  0.2109
   7123SM   H4S 9257   6.173   0.552  15.626 -1.4666 -0.3018 -0.5512
   7123SM   C5S 9258   6.239   0.372  15.525 -0.8111 -0.7897 -0.5691
   7123SM   H5S 9259   6.238   0.262  15.519  1.2872 -0.8405 -0.4814
   7123SM   C6S 9260   6.297   0.434  15.408  0.3192 -0.2754  0.6931
   7123SM   H6S 9261   6.407   0.421  15.400  0.0571 -3.1607  0.7743
   7123SM   H6T 9262   6.286   0.545  15.402  0.1793 -0.3737 -1.9347
   7123SM   C7S 9263   6.216   0.379  15.288  0.4996 -0.1515  0.8292
   7123SM   H7S 9264   6.113   0.409  15.314  0.0656 -0.4136 -0.4853
   7123SM   H7T 9265   6.231   0.269  15.283  0.9867 -0.0920  0.9272
   7123SM   C8S 9266   6.256   0.438  15.153  0.6471  0.5499  0.6812
   7123SM   H8S 9267   6.357   0.395  15.140 -0.2619 -1.6585  0.3893
   7123SM   H8T 9268   6.253   0.549  15.159  0.1941  0.6608 -1.0546
   7123SM   C9S 9269   6.169   0.393  15.033 -0.3705  0.5582 -0.5269
   7123SM   H9S 9270   6.186   0.457  14.943 -0.9077  0.3858 -0.7588
   7123SM   H9T 9271   6.060   0.402  15.053 -0.3107 -0.8812  0.6175
   7123SM  C10S 9272   6.200   0.253  14.975 -1.1033  0.0165 -0.0769
   7123SM  H10S 9273   6.169   0.171  15.044  0.1346  2.2811  3.4263
   7123SM  H10T 9274   6.308   0.235  14.956 -1.0925  0.2775 -0.2625
   7123SM  C11S 9275   6.128   0.244  14.839  0.1950 -0.9150 -0.3923
   7123SM  H11S 9276   6.183   0.288  14.753  1.3199 -3.1375 -0.9138
   7123SM  H11T 9277   6.027   0.289  14.843 -0.7251 -2.2506 -4.3586
   7123SM  C12S 9278   6.121   0.090  14.808 -0.2917 -0.0148  0.0650
   7123SM  H12S 9279   6.076   0.032  14.891 -0.0335 -0.7437 -0.2912
   7123SM  H12T 9280   6.226   0.053  14.810 -0.4451 -0.5788 -1.3008
   7123SM  C13S 9281   6.070   0.060  14.667  0.0546  0.0439 -0.3091
   7123SM  H13S 9282   6.136   0.119  14.600  0.1689  1.7475  1.2307
   7123SM  H13T 9283   5.965   0.088  14.644  0.1893 -0.2410 -1.3277
   7123SM  C14S 9284   6.083  -0.086  14.625 -0.0781 -0.5345  0.0284
   7123SM  H14S 9285   6.002  -0.149  14.668 -1.7044  0.6502 -1.1644
   7123SM  H14T 9286   6.180  -0.118  14.669 -1.3423 -1.8593  2.0406
   7123SM  C15S 9287   6.090  -0.117  14.473  0.2569 -0.2234  1.2157
   7123SM  H15S 9288   6.181  -0.068  14.432 -0.4077  0.6539  0.7460
   7123SM  H15T 9289   6.003  -0.072  14.420 -0.1392  2.6227  3.9285
   7123SM  C16S 9290   6.102  -0.270  14.436  0.4732 -0.1333  0.3949
   7123SM  H16S 9291   6.004  -0.321  14.447  0.9311 -1.5588 -1.5636
   7123SM  H16T 9292   6.163  -0.312  14.520 -0.0357 -0.8723  0.4060
   7123SM  C17S 9293   6.138  -0.303  14.287 -0.3746 -0.4097  0.3347
   7123SM  H17S 9294   6.227  -0.246  14.251  0.3733 -2.5103 -1.3378
   7123SM  H17T 9295   6.054  -0.271  14.222  0.5375  0.9223 -0.2401
   7123SM  C18S 9296   6.166  -0.446  14.250 -0.7746  0.5836  0.0758
   7123SM  H18S 9297   6.266  -0.489  14.276 -1.0100 -0.5049 -0.7551
   7123SM  H18T 9298   6.157  -0.444  14.140  0.9860  3.2128 -0.1018
   7123SM  H18U 9299   6.094  -0.526  14.278 -0.0446  0.4549  1.7695
   7123SM   C1F 9300   5.765   0.372  15.547  0.2802 -0.2180  0.4911
   7123SM    OF 9301   5.708   0.475  15.582 -0.1581 -0.3056 -0.1173
   7123SM   C2F 9302   5.692   0.275  15.457 -0.9212  0.0825  0.0321
   7123SM   H2F 9303   5.584   0.279  15.482 -0.9969  0.8248 -0.4121
   7123SM   H2G 9304   5.726   0.170  15.472 -1.5338 -0.0716  0.3427
   7123SM   C3F 9305   5.697   0.304  15.306 -0.9896  0.1621  0.2140
   7123SM   H3F 9306   5.654   0.405  15.288  2.9929  1.7967 -1.0534
   7123SM   H3G 9307   5.637   0.222  15.261 -1.2864 -0.0721  1.0086
   7123SM   C4F 9308   5.833   0.300  15.247 -1.0124 -0.2800  0.1718
   7123SM   H4F 9309   5.900   0.368  15.305 -1.3622 -1.2115  1.7178
   7123SM   H4G 9310   5.844   0.351  15.149  2.1145 -1.3037 -0.1444
   7123SM   C5F 9311   5.899   0.161  15.239 -0.0533 -0.1541 -0.2244
   7123SM   H5F 9312   5.899   0.107  15.336  0.5757 -2.2778 -1.3675
   7123SM   H5G 9313   6.001   0.162  15.197 -0.7545 -0.3521 -2.0226
   7123SM   C6F 9314   5.818   0.060  15.147  0.4039  0.6277  0.5230
   7123SM   H6F 9315   5.802   0.110  15.049 -1.7715 -1.3900 -0.2501
   7123SM   H6G 9316   5.726   0.031  15.203  2.0857  0.6102  3.4473
   7123SM   C7F 9317   5.901  -0.067  15.128 -0.5536  0.7847 -0.8856
   7123SM   H7F 9318   5.886  -0.123  15.223 -1.5425  1.8912 -0.3722
   7123SM   H7G 9319   6.010  -0.056  15.116 -0.6211  1.4471 -0.9241
   7123SM   C8F 9320   5.842  -0.149  15.010  0.1610 -0.0203 -0.1239
   7123SM   H8F 9321   5.873  -0.113  14.910  0.0070 -2.7434 -1.2428
   7123SM   H8G 9322   5.731  -0.148  15.022  0.1195 -2.4768  0.2949
   7123SM   C9F 9323   5.893  -0.294  15.016  0.4002 -0.5868  0.2167
   7123SM   H9F 9324   5.864  -0.338  15.114 -1.9189  1.0250  0.3205
   7123SM   H9G 9325   6.004  -0.298  15.008  0.2636 -0.8715 -2.6508
   7123SM  C10F 9326   5.838  -0.396  14.915  0.5129  0.0794  0.1817
   7123SM  H10F 9327   5.904  -0.485  14.924  0.2203 -0.6665 -3.5407
   7123SM  H10G 9328   5.842  -0.352  14.813 -0.3560 -1.4487 -0.5490
   7123SM  C11F 9329   5.688  -0.438  14.937 -0.1646 -0.0561 -0.3850
   7123SM  H11F 9330   5.624  -0.349  14.915 -0.5376 -0.9685 -3.4316
   7123SM  H11G 9331   5.675  -0.483  15.038 -1.3993 -1.1323 -1.0091
   7123SM  C12F 9332   5.638  -0.545  14.839 -0.4706 -0.4672  0.9117
   7123SM  H12F 9333   5.713  -0.625  14.824 -0.9343 -0.5988 -0.8761
   7123SM  H12G 9334   5.624  -0.500  14.738  0.0136 -1.3051  0.4674
   7123SM  C13F 9335   5.496  -0.608  14.873 -0.3696 -0.8931 -0.0030
   7123SM  H13F 9336   5.483  -0.621  14.982  0.2292 -1.5909 -0.0043
   7123SM  H13G 9337   5.497  -0.709  14.825 -2.1693 -0.2592 -1.5255
   7123SM  C14F 9338   5.389  -0.515  14.827  0.1091  0.2562 -0.5309
   7123SM  H14F 9339   5.404  -0.492  14.719 -0.5590  2.5549 -0.1869
   7123SM  H14G 9340   5.399  -0.418  14.882 -1.5612  0.1270  0.0508
   7123SM  C15F 9341   5.249  -0.572  14.855 -0.1804 -0.3813 -0.0414
   7123SM  H15F 9342   5.236  -0.591  14.963  1.7027 -3.0946 -0.1814
   7123SM  H15G 9343   5.230  -0.665  14.797 -0.1397  0.2278 -1.0654
   7123SM  C16F 9344   5.144  -0.478  14.806  0.4435 -0.4461 -0.5632
   7123SM  H16F 9345   5.161  -0.427  14.709 -1.7015  0.7524 -0.3679
   7123SM  H16G 9346   5.133  -0.394  14.879  1.3249  0.3958 -1.3647
   7123SM  C17F 9347   5.010  -0.551  14.804  0.4340 -0.3754  0.1411
   7123SM  H17F 9348   4.991  -0.584  14.908  0.6855 -0.1134  0.2719
   7123SM  H17G 9349   5.024  -0.644  14.745 -0.5906 -0.8606  0.6463
   7123SM  C18F 9350   4.884  -0.476  14.755 -0.1622  0.3278  0.2558
   7123SM  H18F 9351   4.914  -0.417  14.665 -0.4978  1.3485  0.7915
   7123SM  H18G 9352   4.842  -0.401  14.826  1.1032 -0.7034  2.1515
   7123SM  C19F 9353   4.778  -0.569  14.694 -0.1854 -0.1428 -0.3182
   7123SM  H19F 9354   4.728  -0.615  14.781 -0.3820 -1.2846 -1.0123
   7123SM  H19G 9355   4.832  -0.649  14.638  1.4434 -0.4416  1.5858
   7123SM  C20F 9356   4.669  -0.511  14.602  0.4335  0.4523  0.3163
   7123SM  H20F 9357   4.686  -0.405  14.573 -1.7698  0.6441 -0.4301
   7123SM  H20G 9358   4.573  -0.530  14.653 -0.5922 -2.1636 -2.3021
   7123SM  C21F 9359   4.657  -0.583  14.465 -0.9300 -0.3233 -0.0528
   7123SM  H21F 9360   4.633  -0.691  14.476 -0.1952 -0.3749  1.2539
   7123SM  H21G 9361   4.758  -0.580  14.417 -0.2215  3.5926  1.3097
   7123SM  C22F 9362   4.552  -0.533  14.365  0.3247 -0.6034  0.0871
   7123SM  H22F 9363   4.568  -0.425  14.348  0.3254 -0.5160  0.6107
   7123SM  H22G 9364   4.447  -0.540  14.402 -1.2876 -1.3998 -4.0799
   7123SM  C23F 9365   4.549  -0.602  14.229 -0.3190 -0.0825  0.0726
   7123SM  H23F 9366   4.650  -0.596  14.182 -0.2913 -2.5087 -0.3301
   7123SM  H23G 9367   4.478  -0.557  14.156 -0.1969  0.2827  0.1750
   7123SM  H23H 9368   4.529  -0.710  14.244  0.6531 -0.2724  0.0600
   7223SM     N 9369   7.411   2.906  15.825  0.1813 -0.4227  0.0731
   7223SM   C15 9370   7.551   2.929  15.883 -0.1701 -0.4512 -0.6221
   7223SM  H15A 9371   7.604   2.843  15.921  3.3179  0.8200 -2.2205
   7223SM  H15B 9372   7.537   3.005  15.958 -0.1384  0.1099 -1.1780
   7223SM  H15C 9373   7.621   2.977  15.816  1.2963  1.7020  2.2372
   7223SM   C14 9374   7.321   2.860  15.943 -0.1739 -1.1946  1.4598
   7223SM  H14A 9375   7.238   2.804  15.902  0.5563 -0.4568 -1.2039
   7223SM  H14B 9376   7.285   2.949  15.992  0.7030 -0.2417  0.4169
   7223SM  H14C 9377   7.372   2.790  16.009 -0.9749 -1.7816  1.4815
   7223SM   C13 9378   7.362   3.043  15.784 -0.6070  0.1605  0.6438
   7223SM  H13A 9379   7.258   3.034  15.757 -0.5514 -0.9555  0.7409
   7223SM  H13B 9380   7.421   3.080  15.701 -0.5523 -1.4964 -0.0972
   7223SM  H13C 9381   7.364   3.114  15.865  0.4540 -0.6811  1.3865
   7223SM   C12 9382   7.409   2.804  15.712  0.3802 -0.2408  0.4999
   7223SM  H12A 9383   7.458   2.718  15.754 -1.7835 -0.9435  1.7439
   7223SM  H12B 9384   7.471   2.830  15.628 -1.8881 -1.6888 -1.7976
   7223SM   C11 9385   7.276   2.758  15.656  0.1774  0.3108  0.1822
   7223SM  H11A 9386   7.290   2.708  15.558 -1.2658  2.3137 -1.1221
   7223SM  H11B 9387   7.224   2.849  15.620 -2.3248 -1.5312 -1.1514
   7223SM     P 9388   7.048   2.674  15.704  0.3008 -0.4484  0.1153
   7223SM   O13 9389   6.983   2.562  15.770  0.7358 -0.1923 -0.4089
   7223SM   O14 9390   6.994   2.806  15.740 -0.2288 -0.8516  0.2439
   7223SM   O11 9391   7.045   2.656  15.544  0.1364 -0.1595 -0.6965
   7223SM   O12 9392   7.201   2.674  15.741  0.5536 -0.6663 -0.4843
   7223SM   C1S 9393   6.922   2.632  15.481 -0.6548  0.2094 -0.4304
   7223SM   H1S 9394   6.865   2.727  15.478 -1.2607 -0.0754  1.0101
   7223SM   H1T 9395   6.873   2.544  15.528 -0.0956  0.1476  0.0564
   7223SM    NF 9396   6.855   2.606  15.237  0.3197 -0.9143 -0.1586
   7223SM   HNF 9397   6.789   2.534  15.219  0.5299 -1.0582 -0.3664
   7223SM   C2S 9398   6.961   2.583  15.335  0.3529  0.0766 -0.4793
   7223SM   H2S 9399   7.049   2.640  15.297 -1.2365  3.7804  0.9950
   7223SM   C3S 9400   6.996   2.432  15.337  0.1323 -0.0706  0.1366
   7223SM   H3S 9401   6.903   2.376  15.359 -0.3634  1.1085  1.1493
   7223SM    O3 9402   7.094   2.391  15.434  0.6527 -0.9508  0.5764
   7223SM   HO3 9403   7.134   2.473  15.463  0.7289 -0.9744  0.5384
   7223SM   C4S 9404   7.053   2.398  15.206  0.9407 -0.1712  0.1016
   7223SM   H4S 9405   7.130   2.469  15.174  0.4323  0.8604  1.0887
   7223SM   C5S 9406   7.001   2.311  15.124 -0.1623  1.0020 -0.2297
   7223SM   H5S 9407   6.907   2.263  15.154  0.6989  0.3385  1.5758
   7223SM   C6S 9408   7.048   2.298  14.980  0.1168  0.6616 -0.3004
   7223SM   H6S 9409   7.026   2.191  14.960  0.6536  0.2368  1.1889
   7223SM   H6T 9410   7.159   2.311  14.980  0.5790 -2.4275 -0.7035
   7223SM   C7S 9411   6.986   2.400  14.888  0.0411  0.2855 -0.2300
   7223SM   H7S 9412   7.031   2.497  14.917  1.2214  0.6634 -2.9716
   7223SM   H7T 9413   6.875   2.402  14.898  0.1445 -1.2684  1.8591
   7223SM   C8S 9414   7.036   2.380  14.742  0.7148  0.0967  0.2189
   7223SM   H8S 9415   6.996   2.279  14.717  2.1608 -0.1203 -1.4138
   7223SM   H8T 9416   7.147   2.378  14.741  0.8484  3.1615 -0.4603
   7223SM   C9S 9417   6.969   2.484  14.641  0.0564  0.4030  0.4454
   7223SM   H9S 9418   6.993   2.591  14.662 -0.0711  0.4568  0.3180
   7223SM   H9T 9419   6.858   2.481  14.642  0.0561  0.4278  0.5239
   7223SM  C10S 9420   7.007   2.441  14.491 -0.0201  0.1229  0.4206
   7223SM  H10S 9421   7.006   2.330  14.492  0.0494  0.1173  0.0262
   7223SM  H10T 9422   7.115   2.462  14.476 -0.6269  4.1787  0.4612
   7223SM  C11S 9423   6.922   2.500  14.381  0.6258 -0.4289  0.0401
   7223SM  H11S 9424   6.964   2.602  14.364 -0.0677 -0.2513 -0.6998
   7223SM  H11T 9425   6.813   2.514  14.393  0.4315 -0.5361 -1.3570
   7223SM  C12S 9426   6.925   2.419  14.248  0.5056  0.2607  0.7580
   7223SM  H12S 9427   6.880   2.494  14.179  1.8689  1.8139  1.4782
   7223SM  H12T 9428   6.850   2.338  14.256 -0.7427  1.3497  0.5049
   7223SM  C13S 9429   7.058   2.359  14.199 -0.0212  0.0679 -0.1591
   7223SM  H13S 9430   7.099   2.296  14.281 -0.5359  0.7673  0.6425
   7223SM  H13T 9431   7.132   2.440  14.179  1.0879 -1.0826 -0.8950
   7223SM  C14S 9432   7.042   2.274  14.071 -0.1058  0.1669 -0.7190
   7223SM  H14S 9433   6.991   2.343  14.000 -1.8871 -0.0526  0.2756
   7223SM  H14T 9434   6.970   2.192  14.090 -1.8987  1.2700 -2.3859
   7223SM  C15S 9435   7.175   2.228  14.010 -0.2656  0.1414  0.0110
   7223SM  H15S 9436   7.238   2.166  14.077 -0.0037  3.1956  2.8653
   7223SM  H15T 9437   7.240   2.316  13.994  1.2104 -0.6692  1.2795
   7223SM  C16S 9438   7.144   2.142  13.890  0.3977 -0.5140  0.0624
   7223SM  H16S 9439   7.067   2.180  13.819  1.4331 -1.7643 -1.8282
   7223SM  H16T 9440   7.089   2.058  13.938  0.3564  0.2671  1.4240
   7223SM  C17S 9441   7.265   2.095  13.814 -0.6917 -0.5580 -0.1087
   7223SM  H17S 9442   7.288   1.990  13.842 -0.7369 -0.5551 -0.0598
   7223SM  H17T 9443   7.348   2.164  13.840 -0.0509 -1.1075 -0.6524
   7223SM  C18S 9444   7.262   2.115  13.659  0.4225 -0.0479  0.2412
   7223SM  H18S 9445   7.354   2.080  13.608 -0.6479  1.2662 -2.7708
   7223SM  H18T 9446   7.267   2.224  13.640  0.0063  0.2044  1.5015
   7223SM  H18U 9447   7.170   2.065  13.622 -0.9112  1.2649  1.6692
   7223SM   C1F 9448   6.816   2.729  15.205  0.9281  0.0828  0.4717
   7223SM    OF 9449   6.868   2.823  15.264  0.0180 -0.1120 -0.6088
   7223SM   C2F 9450   6.727   2.753  15.090  0.1420  0.1377 -0.4074
   7223SM   H2F 9451   6.656   2.836  15.112 -2.2849 -1.5765 -1.2703
   7223SM   H2G 9452   6.652   2.672  15.074 -1.2901  1.5186 -1.0312
   7223SM   C3F 9453   6.800   2.795  14.958  0.5754  0.7304 -0.3868
   7223SM   H3F 9454   6.897   2.743  14.944 -0.9538 -2.3539 -0.4929
   7223SM   H3G 9455   6.825   2.903  14.959 -0.9362  1.1137  1.4786
   7223SM   C4F 9456   6.702   2.768  14.847  0.0324  0.3878 -0.0196
   7223SM   H4F 9457   6.597   2.798  14.865  0.5275  2.7242 -0.6135
   7223SM   H4G 9458   6.699   2.660  14.825  1.1562  0.4301 -0.4512
   7223SM   C5F 9459   6.754   2.840  14.718  0.1674 -0.4241  0.5131
   7223SM   H5F 9460   6.861   2.822  14.693  0.6786  0.9493  1.5359
   7223SM   H5G 9461   6.745   2.951  14.719  1.6307 -0.2602 -0.8318
   7223SM   C6F 9462   6.682   2.795  14.586  0.3077 -0.1252  0.7411
   7223SM   H6F 9463   6.574   2.816  14.598  0.1822 -0.0864 -0.3853
   7223SM   H6G 9464   6.688   2.685  14.572 -0.9484 -0.1116 -0.0009
   7223SM   C7F 9465   6.730   2.869  14.454  0.2049 -0.3617 -0.6940
   7223SM   H7F 9466   6.824   2.827  14.413  1.9844  2.5268  0.1473
   7223SM   H7G 9467   6.739   2.977  14.481  0.0882 -0.3469 -0.7130
   7223SM   C8F 9468   6.630   2.861  14.335  0.0943  0.0044  0.3253
   7223SM   H8F 9469   6.535   2.910  14.367 -0.0935  0.2109 -0.5016
   7223SM   H8G 9470   6.618   2.755  14.302  1.5744 -0.0009 -0.2908
   7223SM   C9F 9471   6.680   2.932  14.216  0.4270  0.4837  0.4318
   7223SM   H9F 9472   6.694   3.038  14.246  2.0883 -0.4591  3.4515
   7223SM   H9G 9473   6.597   2.931  14.142  1.1770  0.0964 -0.4257
   7223SM  C10F 9474   6.797   2.885  14.151 -0.1618 -0.0322 -0.6575
   7223SM  H10F 9475   6.787   2.775  14.146 -0.9238  0.0152 -0.3136
   7223SM  H10G 9476   6.888   2.916  14.208 -0.6220 -1.6067  1.0334
   7223SM  C11F 9477   6.809   2.939  14.003 -0.5470 -0.4522 -0.2517
   7223SM  H11F 9478   6.761   2.867  13.933 -0.8904 -0.1561 -0.3211
   7223SM  H11G 9479   6.919   2.940  13.985 -0.4515  0.1750  0.3191
   7223SM  C12F 9480   6.774   3.082  13.967 -0.4748  0.6975  0.1412
   7223SM  H12F 9481   6.801   3.137  14.059 -1.5424  2.0264 -0.3018
   7223SM  H12G 9482   6.666   3.108  13.960 -1.1647 -2.2033 -1.7273
   7223SM  C13F 9483   6.855   3.146  13.851  0.2916  0.3202  0.7152
   7223SM  H13F 9484   6.955   3.167  13.895  1.3207  0.7374 -1.6489
   7223SM  H13G 9485   6.803   3.238  13.819  1.1554  0.4265 -0.4626
   7223SM  C14F 9486   6.859   3.050  13.736 -0.4364  0.4920  0.1376
   7223SM  H14F 9487   6.756   3.020  13.707 -0.0910  0.1295 -0.7459
   7223SM  H14G 9488   6.924   2.962  13.754 -0.5541  0.2715 -0.4644
   7223SM  C15F 9489   6.921   3.118  13.608  0.4091  0.0082 -0.4021
   7223SM  H15F 9490   7.006   3.179  13.646  0.5249  0.1824 -0.9334
   7223SM  H15G 9491   6.843   3.186  13.567  0.3329  1.6187  2.1526
   7223SM  C16F 9492   6.961   3.022  13.495 -0.5128 -0.2632 -0.5909
   7223SM  H16F 9493   7.007   2.925  13.524  0.6616  0.5279  0.2934
   7223SM  H16G 9494   7.041   3.077  13.441 -1.2237  0.5616 -0.8164
   7223SM  C17F 9495   6.859   2.993  13.385  0.5044 -0.2064  0.5047
   7223SM  H17F 9496   6.823   3.091  13.347 -1.8502 -1.1711  0.0746
   7223SM  H17G 9497   6.766   2.944  13.424 -0.2283  0.3308 -0.5314
   7223SM  C18F 9498   6.904   2.912  13.260 -0.2546 -0.1493  0.0113
   7223SM  H18F 9499   7.002   2.865  13.286 -0.3465 -0.9031 -0.9262
   7223SM  H18G 9500   6.940   2.988  13.187  1.9614  0.6267  1.7892
   7223SM  C19F 9501   6.810   2.813  13.194 -0.3380  0.0341  0.8815
   7223SM  H19F 9502   6.716   2.860  13.160 -0.4758 -1.5545 -1.1265
   7223SM  H19G 9503   6.778   2.727  13.257 -2.0015 -0.5021 -0.6069
   7223SM  C20F 9504   6.878   2.757  13.068  0.2894 -0.2791 -0.0212
   7223SM  H20F 9505   6.973   2.715  13.107 -0.7018 -1.5225  1.1911
   7223SM  H20G 9506   6.907   2.839  12.999  1.8211 -0.5453  0.2665
   7223SM  C21F 9507   6.802   2.635  13.024  0.0744 -0.3348  0.5844
   7223SM  H21F 9508   6.695   2.666  13.025 -0.2065 -1.2045 -0.4409
   7223SM  H21G 9509   6.819   2.555  13.100  0.9372  0.5949  1.3997
   7223SM  C22F 9510   6.845   2.593  12.878  0.0144 -0.3386 -0.1807
   7223SM  H22F 9511   6.956   2.584  12.872 -0.1547 -2.2659 -1.0910
   7223SM  H22G 9512   6.813   2.671  12.805  0.6630 -0.1709 -0.2919
   7223SM  C23F 9513   6.789   2.464  12.842 -0.4506 -0.4571  0.7276
   7223SM  H23F 9514   6.834   2.392  12.913 -0.2050  0.8232  1.9205
   7223SM  H23G 9515   6.819   2.446  12.737  1.8092  2.1985  0.8049
   7223SM  H23H 9516   6.678   2.465  12.855 -0.9470  0.9819 -2.6524
   7323SM     N 9517   6.110   0.833  16.166  0.0794 -0.1348  0.1232
   7323SM   C15 9518   5.971   0.888  16.165  0.2805  0.2861  0.9826
   7323SM  H15A 9519   5.903   0.848  16.092 -2.0256  1.3404  2.4600
   7323SM  H15B 9520   5.979   0.990  16.131 -0.9775 -0.5866 -2.3239
   7323SM  H15C 9521   5.922   0.882  16.261 -5.0860 -1.2803 -1.4763
   7323SM   C14 9522   6.107   0.693  16.218  0.4452  0.4613 -0.0188
   7323SM  H14A 9523   6.036   0.694  16.299 -0.6755 -1.7321 -0.9062
   7323SM  H14B 9524   6.201   0.656  16.257  1.3753  1.8387 -0.8541
   7323SM  H14C 9525   6.070   0.628  16.141  0.1215  0.6003  0.0201
   7323SM   C13 9526   6.146   0.832  16.019  0.1065  0.3953  0.0014
   7323SM  H13A 9527   6.250   0.804  16.008  0.0008  0.6490 -1.9993
   7323SM  H13B 9528   6.133   0.929  15.974  0.2314  0.9121  1.0500
   7323SM  H13C 9529   6.082   0.768  15.961  1.7858 -2.2985  0.8953
   7323SM   C12 9530   6.205   0.907  16.258 -0.1028 -0.4018 -0.6072
   7323SM  H12A 9531   6.304   0.864  16.249  0.4425  0.6257  0.2051
   7323SM  H12B 9532   6.187   0.884  16.362 -1.4686 -0.1968 -0.7883
   7323SM   C11 9533   6.220   1.062  16.227  0.5868  0.2215  0.0740
   7323SM  H11A 9534   6.241   1.071  16.118 -3.5708  1.5706 -0.7915
   7323SM  H11B 9535   6.298   1.099  16.296  2.3714 -2.6417 -0.2431
   7323SM     P 9536   6.048   1.240  16.159 -0.1559 -0.0303 -0.3127
   7323SM   O13 9537   5.906   1.259  16.184 -0.0650 -0.1820 -0.2835
   7323SM   O14 9538   6.123   1.374  16.151  0.1713  0.1343 -0.0600
   7323SM   O11 9539   6.051   1.169  16.021  0.5343 -0.3114  0.4141
   7323SM   O12 9540   6.106   1.132  16.268 -0.3207 -0.6197  0.3121
   7323SM   C1S 9541   6.104   1.247  15.910 -0.4247 -0.0651  0.5218
   7323SM   H1S 9542   6.215   1.255  15.910 -0.5176  2.9653 -1.8697
   7323SM   H1T 9543   6.070   1.352  15.905 -1.5113 -0.4870 -2.4774
   7323SM    NF 9544   6.151   1.232  15.659  0.0968 -0.3394 -0.1965
   7323SM   HNF 9545   6.118   1.302  15.595  0.1842  0.6462  0.8160
   7323SM   C2S 9546   6.059   1.191  15.766 -0.3192 -0.4439  0.0547
   7323SM   H2S 9547   6.062   1.080  15.772 -0.7483 -0.4834 -0.3811
   7323SM   C3S 9548   5.912   1.229  15.745 -0.4450  0.2208 -0.4598
   7323SM   H3S 9549   5.904   1.338  15.724  0.2021  0.2593 -0.5517
   7323SM    O3 9550   5.830   1.223  15.865 -0.0551  0.4030  0.3364
   7323SM   HO3 9551   5.892   1.200  15.935  1.5235  2.3610 -0.3612
   7323SM   C4S 9552   5.862   1.140  15.636  0.3882 -0.1233 -0.3172
   7323SM   H4S 9553   5.861   1.033  15.663 -0.2346 -0.2059 -0.6581
   7323SM   C5S 9554   5.797   1.170  15.518  1.1327  0.0534  0.4019
   7323SM   H5S 9555   5.773   1.275  15.497  2.6294  0.7294  1.8017
   7323SM   C6S 9556   5.755   1.061  15.416  0.2444  0.5920  0.2700
   7323SM   H6S 9557   5.644   1.051  15.420  0.2765 -1.2615 -1.9178
   7323SM   H6T 9558   5.796   0.965  15.453 -1.7615 -0.7009 -0.7008
   7323SM   C7S 9559   5.792   1.076  15.272  0.3341  0.1494 -0.4261
   7323SM   H7S 9560   5.773   1.183  15.251  1.2908  0.3746 -0.1903
   7323SM   H7T 9561   5.732   1.014  15.201  0.9588 -1.2548  0.2254
   7323SM   C8S 9562   5.941   1.040  15.248 -0.2844 -0.1927  0.2093
   7323SM   H8S 9563   5.958   0.932  15.263 -1.1873 -0.4092 -0.2416
   7323SM   H8T 9564   5.999   1.094  15.326 -0.4844 -0.0529  0.2640
   7323SM   C9S 9565   6.008   1.081  15.119 -0.2558 -1.0017  0.4712
   7323SM   H9S 9566   6.107   1.036  15.096 -0.1144 -0.8895  0.8529
   7323SM   H9T 9567   6.021   1.192  15.118 -0.1474 -1.0142  0.4498
   7323SM  C10S 9568   5.934   1.043  14.992  0.0881 -0.1989 -0.2359
   7323SM  H10S 9569   5.825   1.064  15.002 -0.3519 -1.4766 -1.8237
   7323SM  H10T 9570   5.949   0.934  14.982 -0.5727 -0.5187  1.8163
   7323SM  C11S 9571   5.985   1.128  14.876 -0.4867 -0.4072  0.7013
   7323SM  H11S 9572   6.096   1.118  14.874 -0.4725 -0.5009  1.4073
   7323SM  H11T 9573   5.948   1.233  14.876 -1.3392 -0.7037  0.4632
   7323SM  C12S 9574   5.947   1.064  14.738 -0.3768 -1.0407 -1.0525
   7323SM  H12S 9575   5.846   1.106  14.720 -0.3648 -1.2150 -1.5202
   7323SM  H12T 9576   5.950   0.954  14.755  1.8933 -0.8250  0.3786
   7323SM  C13S 9577   6.046   1.099  14.626  0.0734 -0.2666  0.0082
   7323SM  H13S 9578   6.150   1.072  14.652  0.5558  0.3475 -1.2083
   7323SM  H13T 9579   6.027   1.205  14.601  0.4754  0.0196  0.8978
   7323SM  C14S 9580   6.019   1.015  14.496 -0.0565 -1.2657  0.5962
   7323SM  H14S 9581   6.099   1.037  14.421 -1.4658  2.1805 -0.1002
   7323SM  H14T 9582   5.929   1.051  14.443  0.2431 -2.2388 -0.6218
   7323SM  C15S 9583   6.001   0.867  14.519  0.0421 -0.1033 -0.3061
   7323SM  H15S 9584   5.980   0.813  14.424  1.5026 -0.0485 -0.6747
   7323SM  H15T 9585   5.903   0.855  14.571 -0.7562 -1.1448 -1.9823
   7323SM  C16S 9586   6.123   0.806  14.590  0.0747 -0.1941 -0.7762
   7323SM  H16S 9587   6.136   0.847  14.692 -1.4022 -0.1541 -0.5872
   7323SM  H16T 9588   6.204   0.835  14.520 -0.7375  0.8548 -1.3132
   7323SM  C17S 9589   6.091   0.654  14.601 -0.3130  1.3936 -0.2595
   7323SM  H17S 9590   6.181   0.600  14.640 -1.0731  0.5729  0.3967
   7323SM  H17T 9591   6.082   0.618  14.496 -0.7423 -1.5021  0.6745
   7323SM  C18S 9592   5.981   0.614  14.702 -0.3180  0.0776  0.0779
   7323SM  H18S 9593   5.971   0.504  14.706 -1.1016  0.1714  1.1923
   7323SM  H18T 9594   5.884   0.662  14.676 -0.1006  0.1441 -0.6503
   7323SM  H18U 9595   6.012   0.645  14.804  1.6056 -0.2701 -0.3689
   7323SM   C1F 9596   6.279   1.181  15.658  0.7415 -0.2625 -0.6453
   7323SM    OF 9597   6.323   1.100  15.737  0.4179  0.1386 -0.6368
   7323SM   C2F 9598   6.367   1.211  15.545 -0.1500 -0.0824 -0.1893
   7323SM   H2F 9599   6.460   1.252  15.589 -1.4073  1.0440  1.5479
   7323SM   H2G 9600   6.324   1.290  15.480  0.7155  0.1567 -0.4737
   7323SM   C3F 9601   6.395   1.096  15.452  0.2246 -0.1477  0.1341
   7323SM   H3F 9602   6.428   1.012  15.516 -0.9220  0.5418  1.7032
   7323SM   H3G 9603   6.473   1.128  15.381 -0.3625  1.0192 -0.0015
   7323SM   C4F 9604   6.274   1.046  15.362  0.3235 -0.5060 -0.0715
   7323SM   H4F 9605   6.240   1.130  15.297  0.6762 -1.4925 -1.5773
   7323SM   H4G 9606   6.192   1.016  15.432 -0.0093 -0.1547 -0.3070
   7323SM   C5F 9607   6.317   0.930  15.276  0.5879 -0.2472 -0.0294
   7323SM   H5F 9608   6.229   0.890  15.222 -0.2857  0.1010  1.0787
   7323SM   H5G 9609   6.351   0.840  15.331  0.2039 -0.8927 -0.8237
   7323SM   C6F 9610   6.440   0.963  15.189  0.2113 -0.1088 -0.0715
   7323SM   H6F 9611   6.524   0.990  15.256  0.2925 -0.6799  0.0641
   7323SM   H6G 9612   6.416   1.058  15.137  3.0099  0.2802 -0.7667
   7323SM   C7F 9613   6.477   0.848  15.102 -0.4975 -0.0015  0.6977
   7323SM   H7F 9614   6.504   0.756  15.159 -1.7418 -0.2418  0.9147
   7323SM   H7G 9615   6.568   0.882  15.047 -0.3179 -3.0364 -1.1214
   7323SM   C8F 9616   6.374   0.797  14.995 -0.2377 -0.0557 -0.1556
   7323SM   H8F 9617   6.289   0.870  14.992 -1.6119 -1.5787  0.2219
   7323SM   H8G 9618   6.333   0.699  15.027  1.1978 -1.6674 -2.8496
   7323SM   C9F 9619   6.413   0.796  14.842  0.3656 -0.4300 -0.5028
   7323SM   H9F 9620   6.435   0.899  14.808 -0.4893 -0.0488  0.0859
   7323SM   H9G 9621   6.320   0.765  14.790 -1.6180  0.4141  2.2817
   7323SM  C10F 9622   6.535   0.715  14.795 -0.1123  0.3924 -0.7165
   7323SM  H10F 9623   6.549   0.624  14.856  1.8300  0.3561 -1.1802
   7323SM  H10G 9624   6.625   0.772  14.824 -0.7237  0.9656  0.1083
   7323SM  C11F 9625   6.537   0.676  14.650 -0.1543  0.1302 -0.2667
   7323SM  H11F 9626   6.499   0.760  14.588  0.4811 -0.6351 -1.7346
   7323SM  H11G 9627   6.462   0.597  14.634  0.1886 -1.0304  3.0219
   7323SM  C12F 9628   6.672   0.627  14.597  0.3662  0.0432 -0.3919
   7323SM  H12F 9629   6.744   0.704  14.631  0.0822  0.3806 -0.5407
   7323SM  H12G 9630   6.672   0.614  14.486  0.1839  0.0529 -0.3925
   7323SM  C13F 9631   6.714   0.500  14.664 -0.0976 -0.1958  0.2380
   7323SM  H13F 9632   6.639   0.431  14.619 -0.8284  0.0280  1.0883
   7323SM  H13G 9633   6.704   0.495  14.774  1.0318 -0.5512  0.3367
   7323SM  C14F 9634   6.855   0.451  14.619  0.5526 -0.5439 -0.3757
   7323SM  H14F 9635   6.925   0.525  14.664  1.7417 -3.2498  2.6688
   7323SM  H14G 9636   6.875   0.443  14.510  1.9897 -1.3450 -0.0818
   7323SM  C15F 9637   6.879   0.318  14.681 -0.3526 -0.3345  0.3029
   7323SM  H15F 9638   6.791   0.251  14.676  0.6285 -1.7007  0.4615
   7323SM  H15G 9639   6.912   0.330  14.787 -0.7863 -0.8274  0.4975
   7323SM  C16F 9640   6.982   0.231  14.609  0.7898  0.0098 -0.3805
   7323SM  H16F 9641   6.950   0.215  14.504 -0.5377  1.0645 -0.1632
   7323SM  H16G 9642   6.990   0.131  14.656 -1.5471 -0.3936 -0.7628
   7323SM  C17F 9643   7.129   0.283  14.607 -0.1292  0.3195 -0.6124
   7323SM  H17F 9644   7.175   0.298  14.707 -0.7305  1.0400 -0.4411
   7323SM  H17G 9645   7.122   0.386  14.567  0.9840  0.7328  0.2074
   7323SM  C18F 9646   7.232   0.204  14.523  0.5293 -0.3086  0.3249
   7323SM  H18F 9647   7.322   0.265  14.499 -1.1738  1.9649 -0.5445
   7323SM  H18G 9648   7.182   0.174  14.429 -1.6515  0.5242  1.1532
   7323SM  C19F 9649   7.273   0.069  14.592 -0.3239 -0.1239 -0.6908
   7323SM  H19F 9650   7.176   0.024  14.622  0.6593 -1.0589  1.2410
   7323SM  H19G 9651   7.316   0.092  14.692 -0.4531 -0.1385 -0.6318
   7323SM  C20F 9652   7.357  -0.022  14.505 -0.4148 -0.5373 -0.2556
   7323SM  H20F 9653   7.462  -0.026  14.542 -0.2167 -3.0902 -0.8839
   7323SM  H20G 9654   7.350   0.022  14.404 -3.5916 -0.6391 -0.2027
   7323SM  C21F 9655   7.305  -0.168  14.505  0.0672 -0.0265 -0.4109
   7323SM  H21F 9656   7.194  -0.167  14.502 -0.0528  0.7808  1.9701
   7323SM  H21G 9657   7.331  -0.199  14.608 -1.3095 -1.2274 -0.3973
   7323SM  C22F 9658   7.376  -0.254  14.401 -0.1737 -0.4486 -0.6260
   7323SM  H22F 9659   7.484  -0.246  14.427 -0.5824  1.8528  0.7055
   7323SM  H22G 9660   7.367  -0.201  14.304  2.5761 -0.9157 -1.2391
   7323SM  C23F 9661   7.331  -0.396  14.382 -0.2558 -0.5977  0.4522
   7323SM  H23F 9662   7.312  -0.438  14.483 -0.0043  1.7804  1.5587
   7323SM  H23G 9663   7.405  -0.462  14.332  2.0319  1.2716  1.1857
   7323SM  H23H 9664   7.234  -0.404  14.328  0.4696 -3.2708 -0.6112
   7423SM     N 9665   0.790   4.612  15.801  1.0720 -0.0752  0.2236
   7423SM   C15 9666   0.877   4.685  15.899 -0.2193 -0.6183 -0.2102
   7423SM  H15A 9667   0.934   4.760  15.846  0.3146  0.1114  1.3364
   7423SM  H15B 9668   0.943   4.617  15.950  1.7482  0.6624 -0.9688
   7423SM  H15C 9669   0.820   4.732  15.978 -0.0074 -2.6509  1.2455
   7423SM   C14 9670   0.704   4.518  15.881  0.1344 -0.1796 -0.2868
   7423SM  H14A 9671   0.616   4.482  15.829 -0.0551  0.1883 -0.2234
   7423SM  H14B 9672   0.677   4.554  15.979 -0.6527 -0.8913 -0.2264
   7423SM  H14C 9673   0.770   4.436  15.904  1.4650  1.2469  1.2105
   7423SM   C13 9674   0.705   4.714  15.741 -0.1147  0.0218 -0.2257
   7423SM  H13A 9675   0.649   4.765  15.818 -1.5905 -2.4689  0.4660
   7423SM  H13B 9676   0.630   4.672  15.675 -0.6517 -0.7992  0.8775
   7423SM  H13C 9677   0.764   4.785  15.685 -0.2563  0.9969  0.8381
   7423SM   C12 9678   0.866   4.533  15.696 -0.1227  0.1553  0.4062
   7423SM  H12A 9679   0.927   4.605  15.642  0.4932  1.4711  2.7203
   7423SM  H12B 9680   0.792   4.488  15.631 -0.4843 -0.1565  1.0260
   7423SM   C11 9681   0.956   4.418  15.741  0.4517  0.4225  0.5652
   7423SM  H11A 9682   1.035   4.446  15.814  1.5385  1.3923 -0.9189
   7423SM  H11B 9683   1.009   4.393  15.647  1.6913 -0.0344  1.3666
   7423SM     P 9684   0.850   4.179  15.697  0.2249 -0.1196  0.1953
   7423SM   O13 9685   0.969   4.099  15.686 -0.2749 -0.5175 -0.0600
   7423SM   O14 9686   0.723   4.112  15.742  0.3392  0.5359 -0.6508
   7423SM   O11 9687   0.823   4.235  15.556 -0.0825 -0.2423 -0.0546
   7423SM   O12 9688   0.870   4.311  15.783  0.1123  0.4772  0.1364
   7423SM   C1S 9689   0.885   4.214  15.434 -0.4046 -0.2783  0.8220
   7423SM   H1S 9690   0.937   4.116  15.434 -1.1810 -0.7058 -0.2817
   7423SM   H1T 9691   0.949   4.300  15.404  0.0691 -1.5249 -1.9992
   7423SM    NF 9692   0.826   4.104  15.224 -0.2188  0.0260  0.0255
   7423SM   HNF 9693   0.851   4.153  15.141 -0.3633 -0.5944 -0.3901
   7423SM   C2S 9694   0.775   4.188  15.330  0.0526 -0.1704 -0.1632
   7423SM   H2S 9695   0.695   4.133  15.384 -0.3980  1.7167  1.1850
   7423SM   C3S 9696   0.704   4.318  15.291 -0.1395 -0.0465  0.8709
   7423SM   H3S 9697   0.775   4.384  15.238 -0.5975 -0.8251 -0.7948
   7423SM    O3 9698   0.670   4.391  15.406  0.4541  0.4474  0.5820
   7423SM   HO3 9699   0.716   4.348  15.479 -0.1011 -0.2699  0.5238
   7423SM   C4S 9700   0.580   4.299  15.199 -0.1376 -0.1074  0.2243
   7423SM   H4S 9701   0.493   4.245  15.240 -0.5890  1.2682  1.1743
   7423SM   C5S 9702   0.571   4.353  15.079 -0.1054  0.0700  0.9118
   7423SM   H5S 9703   0.661   4.405  15.043 -1.4690  1.5819 -0.4379
   7423SM   C6S 9704   0.451   4.359  14.984 -1.1857  0.0981  0.1824
   7423SM   H6S 9705   0.409   4.462  14.993  0.4773  0.8939 -0.7057
   7423SM   H6T 9706   0.385   4.286  15.035  0.9189 -0.3988  2.3161
   7423SM   C7S 9707   0.470   4.330  14.838  0.7010  0.3790  0.9195
   7423SM   H7S 9708   0.479   4.219  14.829 -0.9791  0.2714  0.0895
   7423SM   H7T 9709   0.554   4.385  14.790  0.8711 -0.3838  0.3104
   7423SM   C8S 9710   0.340   4.361  14.759  0.4392  0.5481  0.0480
   7423SM   H8S 9711   0.293   4.462  14.772 -3.1296 -1.0523  1.0563
   7423SM   H8T 9712   0.261   4.303  14.812 -0.0156 -0.2263 -1.4432
   7423SM   C9S 9713   0.336   4.314  14.611  0.6019  0.2950  0.2467
   7423SM   H9S 9714   0.379   4.213  14.595  0.5436  0.5582 -1.6995
   7423SM   H9T 9715   0.400   4.387  14.557  0.4924 -0.4973 -0.9809
   7423SM  C10S 9716   0.202   4.323  14.533 -1.1361 -0.2763 -0.4390
   7423SM  H10S 9717   0.167   4.427  14.552  2.2963  0.4698  3.0667
   7423SM  H10T 9718   0.138   4.246  14.581 -0.6543 -0.1785  0.3893
   7423SM  C11S 9719   0.203   4.319  14.382  0.1108  0.4719  0.0454
   7423SM  H11S 9720   0.245   4.412  14.340  1.2504  0.8973  1.9849
   7423SM  H11T 9721   0.097   4.311  14.349 -0.1081 -1.2870  1.0183
   7423SM  C12S 9722   0.276   4.193  14.326  0.5401  0.1483  0.0291
   7423SM  H12S 9723   0.267   4.111  14.401 -0.8981 -0.0532 -0.3230
   7423SM  H12T 9724   0.379   4.234  14.324  0.1573  1.1324 -0.2513
   7423SM  C13S 9725   0.224   4.140  14.195 -0.8651  0.1914  0.2032
   7423SM  H13S 9726   0.235   4.218  14.116 -2.4012  0.0232 -0.2076
   7423SM  H13T 9727   0.115   4.120  14.204 -1.3262  1.9543 -0.9628
   7423SM  C14S 9728   0.307   4.019  14.154 -0.3417  0.5680 -0.0455
   7423SM  H14S 9729   0.276   3.931  14.214  0.3574 -0.4327 -1.1127
   7423SM  H14T 9730   0.416   4.034  14.170  0.0369 -1.8967  0.0943
   7423SM  C15S 9731   0.281   3.977  14.015  0.3540  0.9582 -0.3309
   7423SM  H15S 9732   0.173   3.989  13.991  0.2323 -1.5186 -1.3341
   7423SM  H15T 9733   0.295   3.867  14.015 -0.0983  0.8354  2.2759
   7423SM  C16S 9734   0.375   4.048  13.917 -0.1140  0.2570  0.4727
   7423SM  H16S 9735   0.484   4.036  13.936 -0.1257  0.0833  0.4338
   7423SM  H16T 9736   0.372   4.158  13.933  1.4489  0.0093  3.0884
   7423SM  C17S 9737   0.352   4.008  13.774  0.2135  0.1799  0.3420
   7423SM  H17S 9738   0.272   4.072  13.730  0.6121  0.6898  0.3495
   7423SM  H17T 9739   0.299   3.910  13.777 -0.6877  0.5616 -1.4341
   7423SM  C18S 9740   0.479   3.998  13.688 -0.1628  0.1478  0.7444
   7423SM  H18S 9741   0.455   3.991  13.580 -3.2452  3.0524  1.1145
   7423SM  H18T 9742   0.527   3.902  13.720 -0.6622 -1.0607 -1.8891
   7423SM  H18U 9743   0.552   4.079  13.709 -1.2310  0.6651  2.7698
   7423SM   C1F 9744   0.857   3.974  15.246  0.3096  0.2753  0.3022
   7423SM    OF 9745   0.820   3.909  15.344 -0.0839  0.2013  0.8232
   7423SM   C2F 9746   0.955   3.920  15.148  0.3585  0.2781 -0.4606
   7423SM   H2F 9747   1.053   3.918  15.201  0.9170 -2.8360 -1.3910
   7423SM   H2G 9748   0.957   3.971  15.050  0.9443 -0.3744 -0.8025
   7423SM   C3F 9749   0.930   3.769  15.110  0.2041 -0.7458 -0.0329
   7423SM   H3F 9750   0.827   3.752  15.071  0.7146 -1.4489 -1.1105
   7423SM   H3G 9751   0.942   3.697  15.193  0.5004 -0.3275  0.2913
   7423SM   C4F 9752   1.028   3.723  14.996 -0.2171 -0.0253 -0.8136
   7423SM   H4F 9753   1.126   3.741  15.044 -0.6042 -1.7989  0.7856
   7423SM   H4G 9754   1.006   3.790  14.910 -1.1459 -1.0031 -1.3656
   7423SM   C5F 9755   1.005   3.576  14.952 -1.0653 -0.0931  0.2549
   7423SM   H5F 9756   0.899   3.568  14.921 -0.9990  2.2729 -0.8781
   7423SM   H5G 9757   1.028   3.518  15.043 -0.2479  0.2562  0.2792
   7423SM   C6F 9758   1.085   3.535  14.824 -0.2492 -0.5975 -0.3196
   7423SM   H6F 9759   1.096   3.425  14.813  0.3630 -0.5877  0.1334
   7423SM   H6G 9760   1.188   3.575  14.840  0.4400 -2.1639 -0.5603
   7423SM   C7F 9761   1.032   3.604  14.698 -0.6739 -0.8991 -0.1836
   7423SM   H7F 9762   1.022   3.714  14.709 -1.7921 -0.9175 -0.8393
   7423SM   H7G 9763   0.926   3.571  14.692 -1.0710  0.3852 -0.5228
   7423SM   C8F 9764   1.090   3.548  14.564  0.3395  0.7550 -0.7134
   7423SM   H8F 9765   1.065   3.440  14.566 -1.8170  1.1989 -1.3686
   7423SM   H8G 9766   1.200   3.566  14.567  0.2440  1.3217 -0.5439
   7423SM   C9F 9767   1.024   3.618  14.439  0.2213  0.2469 -0.1961
   7423SM   H9F 9768   0.915   3.632  14.459  0.5256  1.0417  1.0408
   7423SM   H9G 9769   1.043   3.549  14.354  3.0068 -0.1086  0.6346
   7423SM  C10F 9770   1.078   3.754  14.392 -0.2656 -0.1798  0.1494
   7423SM  H10F 9771   1.053   3.831  14.468 -0.0438  0.0661 -0.0242
   7423SM  H10G 9772   1.018   3.768  14.299 -0.8371  0.5899  0.6176
   7423SM  C11F 9773   1.226   3.758  14.348  0.3214  0.0377  0.4961
   7423SM  H11F 9774   1.238   3.674  14.276 -0.1325  0.1959  0.2241
   7423SM  H11G 9775   1.297   3.741  14.432 -1.1401 -0.8712  1.6015
   7423SM  C12F 9776   1.260   3.889  14.272 -0.1316  0.3851  0.0890
   7423SM  H12F 9777   1.256   3.978  14.340 -3.9325 -0.1605  0.8155
   7423SM  H12G 9778   1.188   3.903  14.189  1.6335  1.0102 -1.4027
   7423SM  C13F 9779   1.406   3.888  14.211 -0.3134  0.7856 -0.3251
   7423SM  H13F 9780   1.412   3.794  14.152  0.5844  0.5136  0.1798
   7423SM  H13G 9781   1.484   3.886  14.291  1.0301 -0.1185 -1.6122
   7423SM  C14F 9782   1.445   4.005  14.124 -0.6551 -0.5805 -0.0155
   7423SM  H14F 9783   1.552   3.989  14.102  0.0955  1.2237  1.9352
   7423SM  H14G 9784   1.434   4.095  14.189 -1.5237 -1.3251  0.8882
   7423SM  C15F 9785   1.364   4.008  13.994 -0.5713 -0.2833 -0.0458
   7423SM  H15F 9786   1.255   3.988  14.001 -0.4283 -1.1553 -0.0892
   7423SM  H15G 9787   1.411   3.932  13.928  0.1648  1.0135 -1.0392
   7423SM  C16F 9788   1.378   4.143  13.917 -0.4419 -0.0680  0.2217
   7423SM  H16F 9789   1.484   4.162  13.889 -0.8805  1.6533 -0.4256
   7423SM  H16G 9790   1.331   4.223  13.978  0.9484  0.0718  1.1576
   7423SM  C17F 9791   1.303   4.143  13.787  0.2700  0.5074  0.4736
   7423SM  H17F 9792   1.197   4.115  13.804  0.5320 -1.5483 -0.8346
   7423SM  H17G 9793   1.345   4.057  13.730  0.2087  0.8700 -0.1312
   7423SM  C18F 9794   1.311   4.274  13.703 -0.0915  0.3479  0.3297
   7423SM  H18F 9795   1.416   4.288  13.669 -0.2369  0.6999  0.0058
   7423SM  H18G 9796   1.276   4.351  13.775 -0.6430  0.1771  0.2521
   7423SM  C19F 9797   1.220   4.274  13.580  0.0419 -0.2296 -0.3542
   7423SM  H19F 9798   1.202   4.377  13.542 -0.6753 -0.2662 -0.1292
   7423SM  H19G 9799   1.121   4.240  13.615  0.8991 -0.8368  1.5982
   7423SM  C20F 9800   1.289   4.199  13.464  0.1687 -0.0883 -0.0846
   7423SM  H20F 9801   1.295   4.093  13.499  0.9052  0.7718  2.6153
   7423SM  H20G 9802   1.394   4.232  13.453  0.1708  1.2666  2.9975
   7423SM  C21F 9803   1.211   4.215  13.338  0.3401  0.5510  0.2307
   7423SM  H21F 9804   1.214   4.323  13.314  0.9015  0.9052  1.7395
   7423SM  H21G 9805   1.103   4.195  13.356 -0.1542  1.8921 -1.0530
   7423SM  C22F 9806   1.267   4.139  13.213 -0.2080 -0.0024  0.1131
   7423SM  H22F 9807   1.276   4.032  13.240 -1.2004  0.4165  2.3358
   7423SM  H22G 9808   1.370   4.167  13.183 -0.9200  1.9951 -0.6505
   7423SM  C23F 9809   1.159   4.154  13.098 -0.8588 -0.3208 -0.1608
   7423SM  H23F 9810   1.065   4.102  13.125 -1.6126  1.0239 -0.0944
   7423SM  H23G 9811   1.200   4.093  13.015  1.4592  0.0568  0.6429
   7423SM  H23H 9812   1.125   4.258  13.078 -0.0322  0.2381  1.2363
   7523SM     N 9813   8.156   7.011  16.287 -0.8016  0.5135 -0.4287
   7523SM   C15 9814   8.296   6.959  16.312  0.4345 -0.5326  0.4855
   7523SM  H15A 9815   8.314   6.875  16.246  0.7472 -2.1612  2.5495
   7523SM  H15B 9816   8.314   6.934  16.415  0.5920  1.0445  0.8620
   7523SM  H15C 9817   8.362   7.040  16.284 -1.4392  0.5013 -1.3034
   7523SM   C14 9818   8.065   6.893  16.311  0.0586 -0.4428 -0.7036
   7523SM  H14A 9819   7.962   6.918  16.292 -0.5065 -1.8009  0.3634
   7523SM  H14B 9820   8.063   6.855  16.412 -2.2449  0.5871 -0.2921
   7523SM  H14C 9821   8.099   6.819  16.240  1.8183  0.5387 -0.9403
   7523SM   C13 9822   8.129   7.114  16.388  0.2110 -1.1956 -1.1456
   7523SM  H13A 9823   8.030   7.154  16.373  0.2458 -0.6066  0.0732
   7523SM  H13B 9824   8.200   7.195  16.376  0.2755 -1.2835 -1.3694
   7523SM  H13C 9825   8.136   7.064  16.483  0.2560 -0.5565 -0.8075
   7523SM   C12 9826   8.152   7.058  16.144  0.2918 -0.7426 -0.2305
   7523SM  H12A 9827   8.196   7.156  16.149 -0.4243 -0.3660 -0.9538
   7523SM  H12B 9828   8.049   7.086  16.125  0.5253 -0.4806 -1.1740
   7523SM   C11 9829   8.195   6.980  16.024 -0.2402 -0.3328  0.3765
   7523SM  H11A 9830   8.295   6.936  16.042  0.0373  1.0301  2.5836
   7523SM  H11B 9831   8.203   7.054  15.942  1.7028  0.2464  1.0326
   7523SM     P 9832   7.965   6.904  15.925 -0.4320  0.2759  0.0711
   7523SM   O13 9833   7.860   6.805  15.959 -0.1514  0.0124  0.2523
   7523SM   O14 9834   7.940   7.049  15.928 -0.0810 -0.1107 -0.4346
   7523SM   O11 9835   8.014   6.873  15.777  0.3476 -0.5892  0.1534
   7523SM   O12 9836   8.104   6.875  16.004  0.4717  0.4640  0.2942
   7523SM   C1S 9837   8.082   6.751  15.759 -0.3453 -0.1086 -0.0058
   7523SM   H1S 9838   8.031   6.672  15.818 -0.9457  1.2907  1.4272
   7523SM   H1T 9839   8.186   6.761  15.798 -0.5367  1.9351  0.0985
   7523SM    NF 9840   8.132   6.579  15.589  0.1388 -0.0663 -0.2041
   7523SM   HNF 9841   8.222   6.545  15.564  0.0768  0.6119 -1.4273
   7523SM   C2S 9842   8.101   6.718  15.609 -0.3110 -0.2875  0.4471
   7523SM   H2S 9843   8.009   6.752  15.555  0.8277 -0.1762 -1.5060
   7523SM   C3S 9844   8.207   6.814  15.551 -0.2047 -0.2711 -0.1173
   7523SM   H3S 9845   8.302   6.822  15.608 -0.0084  0.0900 -0.4822
   7523SM    O3 9846   8.168   6.951  15.549 -1.0088 -0.2252 -0.1344
   7523SM   HO3 9847   8.093   6.953  15.610 -0.6016 -1.1429  0.4212
   7523SM   C4S 9848   8.227   6.777  15.408 -0.2900 -0.4010  0.3501
   7523SM   H4S 9849   8.151   6.803  15.332  0.0777 -1.4483 -0.4026
   7523SM   C5S 9850   8.336   6.721  15.353  0.0467  0.1856  0.4285
   7523SM   H5S 9851   8.422   6.692  15.415  1.6469  2.1271 -0.7582
   7523SM   C6S 9852   8.351   6.675  15.212 -0.6248 -0.5398 -0.4678
   7523SM   H6S 9853   8.384   6.768  15.161 -2.9427  0.2915 -0.5648
   7523SM   H6T 9854   8.261   6.642  15.156 -0.3150 -2.4327  0.0717
   7523SM   C7S 9855   8.476   6.587  15.193  0.1669 -0.0833 -0.2680
   7523SM   H7S 9856   8.471   6.499  15.261 -0.8560  1.6208  2.0256
   7523SM   H7T 9857   8.557   6.648  15.237 -0.8919  1.2005 -0.0280
   7523SM   C8S 9858   8.511   6.540  15.050  0.0737  0.7727 -0.2185
   7523SM   H8S 9859   8.525   6.629  14.985  0.1607  1.3848  0.6203
   7523SM   H8T 9860   8.429   6.474  15.015 -0.7323  1.0768  1.0371
   7523SM   C9S 9861   8.637   6.458  15.042  0.5922  0.4140  0.0453
   7523SM   H9S 9862   8.637   6.383  15.125 -1.8415  1.0245  0.6561
   7523SM   H9T 9863   8.728   6.521  15.050  1.3671 -0.0340 -3.4896
   7523SM  C10S 9864   8.641   6.391  14.902  0.1044 -0.4551 -0.3727
   7523SM  H10S 9865   8.653   6.471  14.826 -0.9801 -0.1972 -0.2898
   7523SM  H10T 9866   8.543   6.341  14.883  1.2441 -2.8597 -0.3213
   7523SM  C11S 9867   8.751   6.282  14.870 -0.4503 -0.3861 -0.1619
   7523SM  H11S 9868   8.751   6.208  14.954  0.7659  0.9211  1.0377
   7523SM  H11T 9869   8.844   6.342  14.863 -0.5814  0.0356  1.3360
   7523SM  C12S 9870   8.733   6.211  14.735  0.2928  0.1443 -0.1265
   7523SM  H12S 9871   8.745   6.289  14.657  1.4134 -1.4256 -1.5986
   7523SM  H12T 9872   8.630   6.170  14.730  0.2332 -0.1726  2.2913
   7523SM  C13S 9873   8.833   6.100  14.697 -0.1310  0.3788 -0.8424
   7523SM  H13S 9874   8.841   6.022  14.776  0.9891  0.2721 -1.0427
   7523SM  H13T 9875   8.932   6.145  14.677 -0.8460  1.8676 -1.1811
   7523SM  C14S 9876   8.796   6.022  14.562 -0.8109  0.1880  0.0734
   7523SM  H14S 9877   8.690   5.987  14.565 -0.7939  0.1442  0.1834
   7523SM  H14T 9878   8.853   5.928  14.550 -1.7496 -0.4545  0.4684
   7523SM  C15S 9879   8.810   6.107  14.434 -0.2779 -0.3927 -0.2388
   7523SM  H15S 9880   8.751   6.201  14.433 -1.7226 -1.2622  0.3320
   7523SM  H15T 9881   8.766   6.045  14.352 -0.5784  0.4588 -0.7330
   7523SM  C16S 9882   8.958   6.139  14.385  0.4912  0.3091  0.3719
   7523SM  H16S 9883   9.027   6.054  14.401 -0.6240 -0.7668 -0.4153
   7523SM  H16T 9884   8.996   6.217  14.455 -0.1405 -1.1136  2.3971
   7523SM  C17S 9885   8.956   6.196  14.242  0.9982 -0.6061  0.4906
   7523SM  H17S 9886   8.906   6.125  14.173  0.6557  0.4065 -0.3270
   7523SM  H17T 9887   9.057   6.209  14.198 -0.3409  1.5611 -2.2110
   7523SM  C18S 9888   8.890   6.332  14.234  0.1370 -0.9138  0.2012
   7523SM  H18S 9889   8.933   6.384  14.322  0.6194 -0.1171 -0.4878
   7523SM  H18T 9890   8.780   6.334  14.246  0.1715  1.0992  0.4764
   7523SM  H18U 9891   8.916   6.387  14.140  0.9458  0.6343  1.2862
   7523SM   C1F 9892   8.036   6.493  15.597 -0.5461 -0.0135  0.0758
   7523SM    OF 9893   7.930   6.544  15.636  0.1716  0.5274  0.5798
   7523SM   C2F 9894   8.051   6.348  15.558 -1.0568  0.3753 -0.0774
   7523SM   H2F 9895   8.061   6.280  15.646 -0.4377  0.3987 -0.1223
   7523SM   H2G 9896   8.136   6.336  15.487 -0.1465  0.4303  0.9763
   7523SM   C3F 9897   7.922   6.290  15.492  0.0345  0.0953  0.0148
   7523SM   H3F 9898   7.884   6.356  15.411 -1.6486  1.0621  1.5056
   7523SM   H3G 9899   7.843   6.311  15.568 -1.7997  2.3395 -2.3303
   7523SM   C4F 9900   7.942   6.142  15.448  0.1448  0.1869 -0.7065
   7523SM   H4F 9901   7.984   6.078  15.529 -2.0111  0.3214  0.6259
   7523SM   H4G 9902   8.017   6.151  15.367 -0.1036  2.5954 -0.7361
   7523SM   C5F 9903   7.816   6.070  15.399  0.2002  0.0916  0.1743
   7523SM   H5F 9904   7.739   6.091  15.476  0.5397  1.9383  0.0564
   7523SM   H5G 9905   7.835   5.962  15.413 -1.2140 -0.2180 -0.1255
   7523SM   C6F 9906   7.773   6.112  15.254  0.7575  0.1240  0.2169
   7523SM   H6F 9907   7.860   6.102  15.187  0.2671  3.6582 -1.1303
   7523SM   H6G 9908   7.756   6.221  15.257  1.6866  0.2921 -0.4931
   7523SM   C7F 9909   7.650   6.036  15.199  0.3192  0.6907 -0.1795
   7523SM   H7F 9910   7.553   6.086  15.222 -0.4548 -0.7093 -0.2850
   7523SM   H7G 9911   7.653   5.933  15.239  2.0025  0.9591  0.5008
   7523SM   C8F 9912   7.666   6.014  15.044  0.1373  0.2166  0.5165
   7523SM   H8F 9913   7.764   5.970  15.018 -1.2498 -2.1539 -1.1066
   7523SM   H8G 9914   7.652   6.113  14.994 -2.5339 -0.2545  0.1819
   7523SM   C9F 9915   7.542   5.918  15.010  0.4480  0.1392 -0.0234
   7523SM   H9F 9916   7.452   5.962  15.059 -0.8313 -2.1866 -0.1486
   7523SM   H9G 9917   7.561   5.823  15.066 -1.0782  0.9077  1.9404
   7523SM  C10F 9918   7.523   5.900  14.862  0.4919  0.0120 -0.3770
   7523SM  H10F 9919   7.594   5.825  14.821  0.1833  1.3026 -3.6250
   7523SM  H10G 9920   7.532   5.995  14.805 -3.6123 -0.2216 -1.7742
   7523SM  C11F 9921   7.383   5.847  14.833  0.5079  0.0016  0.3726
   7523SM  H11F 9922   7.324   5.918  14.894  3.1508  2.0707  0.6987
   7523SM  H11G 9923   7.366   5.740  14.860 -0.4422 -0.0959 -0.5760
   7523SM  C12F 9924   7.345   5.871  14.685  0.4732 -0.3865  0.3591
   7523SM  H12F 9925   7.384   5.968  14.646 -1.6596 -0.0029 -1.0176
   7523SM  H12G 9926   7.235   5.888  14.681  0.7262  1.1823 -1.6328
   7523SM  C13F 9927   7.400   5.774  14.584  0.7434 -0.4481 -0.3528
   7523SM  H13F 9928   7.393   5.670  14.624 -0.6531 -0.5054 -0.6901
   7523SM  H13G 9929   7.502   5.813  14.567  1.0842  0.2923  2.7474
   7523SM  C14F 9930   7.310   5.770  14.458 -0.1792  0.0411  1.3891
   7523SM  H14F 9931   7.209   5.727  14.476 -0.6244  0.0814 -0.6748
   7523SM  H14G 9932   7.359   5.707  14.381  1.4325  0.5863  1.9411
   7523SM  C15F 9933   7.285   5.911  14.388 -0.0751 -0.4332 -0.8032
   7523SM  H15F 9934   7.374   5.978  14.389 -0.6461  0.3954 -2.1516
   7523SM  H15G 9935   7.212   5.963  14.454 -1.2038 -2.6409 -0.2265
   7523SM  C16F 9936   7.227   5.900  14.251 -0.1205  0.3408  0.9676
   7523SM  H16F 9937   7.169   5.807  14.269  0.7952 -0.3087  0.6436
   7523SM  H16G 9938   7.311   5.868  14.186 -2.1079 -1.2834 -0.9778
   7523SM  C17F 9939   7.139   6.017  14.195 -0.7669 -0.1673  0.5951
   7523SM  H17F 9940   7.179   6.107  14.248 -2.1230  0.3344  0.8197
   7523SM  H17G 9941   7.032   6.007  14.223 -0.8479  0.3040  0.4677
   7523SM  C18F 9942   7.165   6.037  14.044  0.0528 -0.5187 -0.2872
   7523SM  H18F 9943   7.124   5.940  14.008  0.8889 -0.6415 -0.9325
   7523SM  H18G 9944   7.275   6.039  14.029  0.4871  1.8737  2.3499
   7523SM  C19F 9945   7.092   6.159  13.981  0.2371  0.4307  0.2276
   7523SM  H19F 9946   7.140   6.251  14.021 -1.1782  1.7157 -0.9025
   7523SM  H19G 9947   6.988   6.152  14.020  0.2524 -0.8415  0.0889
   7523SM  C20F 9948   7.086   6.155  13.829 -0.6727  0.1693  0.7246
   7523SM  H20F 9949   7.022   6.074  13.790  0.3876  0.2714 -1.3516
   7523SM  H20G 9950   7.181   6.127  13.778 -1.7189 -0.5914 -0.8842
   7523SM  C21F 9951   7.039   6.292  13.783  0.1382  0.4645  0.3370
   7523SM  H21F 9952   7.104   6.377  13.812  0.4439  0.1022  0.7520
   7523SM  H21G 9953   6.938   6.297  13.828 -0.1121  0.7031 -0.2507
   7523SM  C22F 9954   7.023   6.309  13.635 -0.1019 -0.4453  0.4306
   7523SM  H22F 9955   6.962   6.225  13.595  0.7448 -0.7773 -0.1889
   7523SM  H22G 9956   7.123   6.295  13.588  0.1117 -0.6896  0.9425
   7523SM  C23F 9957   6.988   6.451  13.598 -0.5985  0.1421  0.1959
   7523SM  H23F 9958   6.974   6.455  13.488 -0.3197  3.9766  0.1586
   7523SM  H23G 9959   7.067   6.520  13.634 -1.8876  0.2282  3.1816
   7523SM  H23H 9960   6.898   6.476  13.659 -1.5732 -1.3237 -0.5985
   7623SM     N 9961   0.305   5.056  16.111 -0.5398  0.3817  0.5990
   7623SM   C15 9962   0.169   5.074  16.176 -0.1651 -0.4359  0.6240
   7623SM  H15A 9963   0.160   5.012  16.264 -2.3474 -1.0891 -0.0064
   7623SM  H15B 9964   0.092   5.034  16.112 -0.8752 -0.8254  1.6829
   7623SM  H15C 9965   0.141   5.177  16.188 -0.1700 -0.4086  0.3637
   7623SM   C14 9966   0.414   5.108  16.196 -0.4789 -0.5828 -0.2051
   7623SM  H14A 9967   0.507   5.126  16.145 -0.2843 -1.8927 -0.3470
   7623SM  H14B 9968   0.433   5.037  16.275 -2.8725  0.2953  1.2650
   7623SM  H14C 9969   0.386   5.200  16.245  0.8382 -0.8748  1.1614
   7623SM   C13 9970   0.331   4.908  16.089 -0.0493  0.7950  0.0790
   7623SM  H13A 9971   0.311   4.855  16.181  1.1914  2.3065  1.2774
   7623SM  H13B 9972   0.434   4.902  16.056 -1.2008  0.0733 -3.9115
   7623SM  H13C 9973   0.271   4.877  16.005 -0.0982  2.0352 -0.3605
   7623SM   C12 9974   0.318   5.124  15.972  0.3521 -0.5480 -0.0557
   7623SM  H12A 9975   0.324   5.232  15.981  2.0573 -0.6071 -0.1993
   7623SM  H12B 9976   0.231   5.106  15.911  0.0362 -0.3459  0.3299
   7623SM   C11 9977   0.434   5.084  15.875  0.5817 -0.6392  0.3005
   7623SM  H11A 9978   0.422   5.139  15.779 -0.6739 -0.8504  0.3309
   7623SM  H11B 9979   0.425   4.975  15.857 -0.0970 -0.5562  0.1192
   7623SM     P 9980   0.592   5.283  15.935  0.1966  0.0540  0.1023
   7623SM   O13 9981   0.479   5.359  16.000 -0.2820 -0.0814 -0.1543
   7623SM   O14 9982   0.725   5.306  15.984  0.0856 -0.4308  0.2353
   7623SM   O11 9983   0.583   5.308  15.782  0.2463 -0.1804  0.3950
   7623SM   O12 9984   0.563   5.127  15.933  0.4060  0.4181  0.1353
   7623SM   C1S 9985   0.689   5.261  15.693 -0.1287  0.5148 -0.4735
   7623SM   H1S 9986   0.745   5.175  15.734  1.4375  1.0308 -1.4567
   7623SM   H1T 9987   0.769   5.337  15.673  0.4452 -0.1396 -0.6889
   7623SM    NF 9988   0.744   5.158  15.476  0.0225 -0.3468  0.1153
   7623SM   HNF 9989   0.786   5.218  15.409  1.3249 -0.1405  1.0659
   7623SM   C2S 9990   0.635   5.217  15.552 -0.0875 -0.8553 -0.9908
   7623SM   H2S 9991   0.565   5.136  15.580 -0.7943 -0.1985 -0.8347
   7623SM   C3S 9992   0.556   5.331  15.483  0.3458  0.1079  0.1535
   7623SM   H3S 9993   0.626   5.417  15.475  1.1392 -0.4496  0.9609
   7623SM    O3 9994   0.439   5.383  15.556 -0.6678 -0.5892  0.2782
   7623SM   HO3 9995   0.458   5.377  15.649 -2.1391  0.3080  0.6744
   7623SM   C4S 9996   0.523   5.269  15.345 -0.5957 -0.6359 -0.3317
   7623SM   H4S 9997   0.607   5.276  15.275 -0.7891  1.8964 -0.4382
   7623SM   C5S 9998   0.414   5.206  15.293  0.6030  0.2524  0.0531
   7623SM   H5S 9999   0.327   5.185  15.358 -0.8104 -0.7633 -2.0626
   7623SM   C6S10000   0.412   5.144  15.156 -1.6090 -0.4526 -0.3237
   7623SM   H6S10001   0.507   5.162  15.102 -0.9283  0.2234  1.0556
   7623SM   H6T10002   0.344   5.190  15.080  0.0161  1.0283 -0.9507
   7623SM   C7S10003   0.392   4.991  15.168  0.0279  0.1228  0.0205
   7623SM   H7S10004   0.288   4.967  15.198 -0.1337  0.5683 -0.1683
   7623SM   H7T10005   0.461   4.958  15.248 -0.5688 -0.4623  0.2996
   7623SM   C8S10006   0.423   4.913  15.034  0.2821 -0.3181 -0.4056
   7623SM   H8S10007   0.451   4.806  15.048 -0.6989 -0.7865 -1.8466
   7623SM   H8T10008   0.513   4.969  15.000 -0.4738  0.1424 -1.7092
   7623SM   C9S10009   0.313   4.948  14.926  0.7392 -0.1204 -0.1688
   7623SM   H9S10010   0.337   5.053  14.898 -2.4309  0.8141  0.2154
   7623SM   H9T10011   0.211   4.954  14.971  0.2561 -0.1172 -1.2258
   7623SM  C10S10012   0.319   4.861  14.801 -0.4802  0.4570  0.1914
   7623SM  H10S10013   0.275   4.763  14.830 -0.1843  0.5185  0.8736
   7623SM  H10T10014   0.427   4.853  14.778 -0.5553 -0.8344  0.1781
   7623SM  C11S10015   0.228   4.922  14.688  0.5311  0.0657  0.5401
   7623SM  H11S10016   0.134   4.958  14.736  1.2269  3.6463 -0.4938
   7623SM  H11T10017   0.209   4.842  14.614 -1.4378 -0.6320  1.7165
   7623SM  C12S10018   0.287   5.048  14.615 -0.1770  0.1198 -0.5342
   7623SM  H12S10019   0.388   5.016  14.583  1.0211  1.4030  1.7296
   7623SM  H12T10020   0.284   5.135  14.685 -4.1772 -0.0140 -0.3056
   7623SM  C13S10021   0.199   5.093  14.497 -0.1826 -0.5196 -1.0374
   7623SM  H13S10022   0.100   5.127  14.534  0.7256 -0.7081  1.8052
   7623SM  H13T10023   0.179   5.006  14.431 -1.2416 -1.9726  1.0763
   7623SM  C14S10024   0.266   5.211  14.425  0.2515  0.1709  0.4444
   7623SM  H14S10025   0.366   5.182  14.388 -0.2824  0.1603 -1.0951
   7623SM  H14T10026   0.284   5.277  14.512 -0.5964 -3.4234  3.6167
   7623SM  C15S10027   0.181   5.280  14.319  0.0252  0.1320  0.0011
   7623SM  H15S10028   0.089   5.322  14.364 -0.7069  0.6314 -1.8599
   7623SM  H15T10029   0.138   5.209  14.245  0.9606 -2.2993  1.6878
   7623SM  C16S10030   0.255   5.401  14.245 -0.2455 -0.0946  0.3797
   7623SM  H16S10031   0.347   5.358  14.201 -0.9016 -1.1639  0.0296
   7623SM  H16T10032   0.302   5.465  14.323  0.1376  0.4054 -0.2485
   7623SM  C17S10033   0.175   5.482  14.140  0.2200 -0.5739  0.3389
   7623SM  H17S10034   0.152   5.402  14.066  1.0635  0.1524 -0.7261
   7623SM  H17T10035   0.242   5.555  14.091  0.6429 -1.9825 -1.2649
   7623SM  C18S10036   0.045   5.541  14.196 -0.0422 -0.4501  0.2633
   7623SM  H18S10037   0.064   5.619  14.272  0.4144  0.1289 -0.4387
   7623SM  H18T10038  -0.019   5.461  14.238 -0.9015  0.7518  1.3141
   7623SM  H18U10039  -0.009   5.583  14.108  0.1040 -2.7919 -1.0383
   7623SM   C1F10040   0.802   5.043  15.509  0.7690  0.4563  0.2932
   7623SM    OF10041   0.752   4.974  15.597  0.8338  0.6172 -0.3490
   7623SM   C2F10042   0.917   4.998  15.418 -0.1869 -0.1142 -0.1453
   7623SM   H2F10043   1.015   5.040  15.450 -0.2518  0.2136 -0.3745
   7623SM   H2G10044   0.892   5.027  15.314 -1.6129 -1.5372 -0.2391
   7623SM   C3F10045   0.934   4.847  15.397 -0.6745  0.7049 -0.1606
   7623SM   H3F10046   0.947   4.795  15.495 -0.2161 -1.5555 -1.3531
   7623SM   H3G10047   1.025   4.833  15.335 -0.9226 -1.6840 -0.0612
   7623SM   C4F10048   0.823   4.775  15.321 -0.0804 -0.2573 -0.0700
   7623SM   H4F10049   0.724   4.808  15.359  1.0980  1.8647  1.3234
   7623SM   H4G10050   0.825   4.664  15.334  1.1826 -0.1184  1.1707
   7623SM   C5F10051   0.836   4.801  15.175 -0.6051  0.3856 -0.1876
   7623SM   H5F10052   0.941   4.776  15.147  0.0517 -0.2079  2.5358
   7623SM   H5G10053   0.825   4.910  15.158 -0.0486  0.7678  1.6370
   7623SM   C6F10054   0.747   4.719  15.087  0.2936 -0.2833  0.4322
   7623SM   H6F10055   0.643   4.726  15.126  0.5295  0.7835  0.9003
   7623SM   H6G10056   0.775   4.613  15.106 -0.2718 -0.4008  0.6359
   7623SM   C7F10057   0.752   4.751  14.936 -0.1260  0.5801  0.0710
   7623SM   H7F10058   0.859   4.765  14.910  0.4093 -1.3808  1.0279
   7623SM   H7G10059   0.708   4.849  14.908 -0.3115  0.5776  0.3536
   7623SM   C8F10060   0.683   4.650  14.843 -0.3075 -0.5359  0.0719
   7623SM   H8F10061   0.572   4.645  14.851 -0.3232  1.4200  1.8129
   7623SM   H8G10062   0.724   4.554  14.881 -0.1727 -1.3526 -1.9851
   7623SM   C9F10063   0.726   4.670  14.695  0.3101  0.3449  0.0816
   7623SM   H9F10064   0.831   4.637  14.681 -0.1854 -1.3200 -0.0056
   7623SM   H9G10065   0.717   4.778  14.671  1.2441  0.6367  0.9880
   7623SM  C10F10066   0.622   4.605  14.604 -0.1956 -0.0995  0.2396
   7623SM  H10F10067   0.519   4.624  14.642 -1.0261 -1.9180 -0.9727
   7623SM  H10G10068   0.637   4.496  14.615 -2.2992 -0.4234  0.3496
   7623SM  C11F10069   0.613   4.667  14.463 -0.6019 -0.5004  0.5357
   7623SM  H11F10070   0.713   4.687  14.419 -2.3528  2.6448 -2.5144
   7623SM  H11G10071   0.574   4.771  14.462 -1.6943 -0.8794 -1.2752
   7623SM  C12F10072   0.538   4.582  14.364  0.2556 -0.1465  1.0256
   7623SM  H12F10073   0.429   4.601  14.375 -0.1588 -2.1879  0.8365
   7623SM  H12G10074   0.544   4.472  14.380 -1.3599 -0.0883  2.2378
   7623SM  C13F10075   0.574   4.620  14.217 -0.0318  0.0617  0.5828
   7623SM  H13F10076   0.671   4.581  14.182  0.2196  1.6559 -0.5790
   7623SM  H13G10077   0.590   4.729  14.204  1.8249  0.0392  2.2732
   7623SM  C14F10078   0.475   4.553  14.114 -0.2012  0.1746  0.4045
   7623SM  H14F10079   0.375   4.600  14.125 -0.3488  1.0706 -3.3516
   7623SM  H14G10080   0.477   4.448  14.148 -1.4447  0.3502  1.0809
   7623SM  C15F10081   0.520   4.567  13.965  0.0459  0.6480 -0.0635
   7623SM  H15F10082   0.622   4.528  13.945 -0.9613 -1.6274 -1.0507
   7623SM  H15G10083   0.512   4.674  13.937  0.2147  0.6569 -0.0810
   7623SM  C16F10084   0.422   4.497  13.874  0.1368  0.2782 -0.5638
   7623SM  H16F10085   0.316   4.504  13.905  0.4058 -0.5600  0.6134
   7623SM  H16G10086   0.446   4.388  13.880 -0.8564  0.0754 -0.1661
   7623SM  C17F10087   0.442   4.529  13.725  0.5265  0.4778 -0.1342
   7623SM  H17F10088   0.546   4.544  13.691  0.5507 -1.7478 -1.2481
   7623SM  H17G10089   0.400   4.632  13.713 -0.0038  0.0134 -2.9939
   7623SM  C18F10090   0.371   4.432  13.628  0.3113 -0.1752  0.2301
   7623SM  H18F10091   0.265   4.434  13.661  0.0600 -1.1590 -0.4630
   7623SM  H18G10092   0.422   4.335  13.647 -1.2870 -0.6737  2.2619
   7623SM  C19F10093   0.387   4.474  13.479  0.1084 -0.1007  0.7644
   7623SM  H19F10094   0.493   4.454  13.451  0.0073  0.7143 -0.2825
   7623SM  H19G10095   0.382   4.584  13.463 -0.1763 -0.4441 -2.0728
   7623SM  C20F10096   0.291   4.398  13.386 -0.0374  0.2584 -0.9444
   7623SM  H20F10097   0.282   4.290  13.408  0.1576  0.3318 -0.4950
   7623SM  H20G10098   0.333   4.404  13.283  0.3676  1.5210 -0.7289
   7623SM  C21F10099   0.148   4.458  13.393 -0.3826 -0.6405 -0.0740
   7623SM  H21F10100   0.176   4.561  13.364 -1.6078 -0.3393 -0.2374
   7623SM  H21G10101   0.104   4.465  13.495 -0.6546  2.7113 -0.3298
   7623SM  C22F10102   0.061   4.404  13.281  0.1217 -0.0852  0.2786
   7623SM  H22F10103   0.124   4.393  13.190  0.9863  1.0850  0.7016
   7623SM  H22G10104  -0.028   4.469  13.265  0.9658  0.6561 -1.6701
   7623SM  C23F10105   0.021   4.255  13.313 -0.2321 -0.2003  0.2778
   7623SM  H23F10106   0.004   4.254  13.423  0.1946  4.5847  0.5889
   7623SM  H23G10107   0.089   4.174  13.279 -2.0938 -1.3866 -0.8387
   7623SM  H23H10108  -0.072   4.238  13.254 -0.3017  4.2415 -1.2442
   7723SM     N10109   1.638   1.672  15.952 -0.9571 -0.5932  0.5957
   7723SM   C1510110   1.787   1.638  15.940 -0.2802 -0.1737  0.5397
   7723SM  H15A10111   1.811   1.627  15.836 -3.2497 -0.1450 -0.2554
   7723SM  H15B10112   1.807   1.538  15.975 -0.7435 -0.2864  0.4996
   7723SM  H15C10113   1.847   1.713  15.989 -0.3971  0.8217 -0.7660
   7723SM   C1410114   1.614   1.682  16.099  1.0114 -0.2513  0.8593
   7723SM  H14A10115   1.645   1.593  16.152 -0.8153  0.2254  2.8970
   7723SM  H14B10116   1.509   1.697  16.120  0.6072 -1.1080 -0.4105
   7723SM  H14C10117   1.671   1.758  16.151  0.2034  2.3078 -1.7601
   7723SM   C1310118   1.604   1.810  15.902  0.1868 -0.2032 -0.2602
   7723SM  H13A10119   1.627   1.826  15.798 -0.9236 -1.2747 -0.6886
   7723SM  H13B10120   1.647   1.883  15.969  0.5610  1.6346 -2.3862
   7723SM  H13C10121   1.497   1.822  15.915 -0.0483 -2.1316 -0.1965
   7723SM   C1210122   1.558   1.564  15.886 -0.0188 -0.3037  0.0454
   7723SM  H12A10123   1.454   1.578  15.910 -0.5174  0.5402 -2.3059
   7723SM  H12B10124   1.583   1.471  15.933  0.5685 -0.0325  0.2761
   7723SM   C1110125   1.565   1.554  15.733 -0.0660  0.3694 -0.3480
   7723SM  H11A10126   1.527   1.651  15.695  0.5227  0.3246 -1.0698
   7723SM  H11B10127   1.497   1.475  15.694  2.4129 -1.1143 -2.0192
   7723SM     P10128   1.756   1.402  15.641  0.2735  0.0190  0.2057
   7723SM   O1310129   1.851   1.409  15.525 -0.1520 -0.4326  0.1179
   7723SM   O1410130   1.798   1.323  15.759 -0.1424 -0.2602  0.7116
   7723SM   O1110131   1.623   1.328  15.585 -1.0044  0.1703 -0.7434
   7723SM   O1210132   1.701   1.539  15.681 -0.3005  0.2772  0.2897
   7723SM   C1S10133   1.568   1.364  15.456 -0.4339  0.0747  0.8401
   7723SM   H1S10134   1.622   1.450  15.413 -0.4582 -0.4655 -0.2979
   7723SM   H1T10135   1.460   1.388  15.467 -0.7118 -0.9635  0.4677
   7723SM    NF10136   1.535   1.281  15.228 -0.0449 -0.4143 -0.2145
   7723SM   HNF10137   1.452   1.236  15.196 -1.5471  1.2497  1.1763
   7723SM   C2S10138   1.580   1.247  15.358 -0.1797  0.8528 -0.3341
   7723SM   H2S10139   1.690   1.233  15.351 -0.3852 -0.7785 -0.8255
   7723SM   C3S10140   1.509   1.119  15.412  0.5416 -0.0074  0.6481
   7723SM   H3S10141   1.402   1.143  15.429  0.9039  1.2737  1.1895
   7723SM    O310142   1.553   1.075  15.535  0.1497  0.6013 -0.3307
   7723SM   HO310143   1.601   1.143  15.582  0.6718 -0.0130  0.0323
   7723SM   C4S10144   1.520   1.005  15.315  0.0348  0.9137  0.0793
   7723SM   H4S10145   1.429   0.989  15.254 -0.0850 -1.2129  0.7211
   7723SM   C5S10146   1.619   0.911  15.307 -0.6159 -0.7360 -1.0234
   7723SM   H5S10147   1.700   0.919  15.380 -2.8759  0.7173  1.5158
   7723SM   C6S10148   1.617   0.804  15.206  0.0922  0.4248  0.0368
   7723SM   H6S10149   1.648   0.711  15.259  1.0778 -0.0922 -1.3847
   7723SM   H6T10150   1.704   0.826  15.141 -0.0213 -0.1521 -0.3179
   7723SM   C7S10151   1.501   0.765  15.110  0.1929  0.2722 -0.0988
   7723SM   H7S10152   1.499   0.846  15.034  1.9247  0.6995  0.2665
   7723SM   H7T10153   1.408   0.757  15.170  1.5402  1.0712  2.2378
   7723SM   C8S10154   1.541   0.633  15.037 -0.6012  0.1596 -0.4381
   7723SM   H8S10155   1.551   0.557  15.118 -1.0642  1.6167  1.0328
   7723SM   H8T10156   1.636   0.652  14.983 -1.1199 -0.1302 -1.4701
   7723SM   C9S10157   1.437   0.587  14.939  0.0279  0.2086 -0.3895
   7723SM   H9S10158   1.348   0.546  14.992  0.1773 -0.1397 -0.3999
   7723SM   H9T10159   1.480   0.501  14.883  0.1762  2.0559 -3.3401
   7723SM  C10S10160   1.397   0.683  14.821 -0.6308  0.4307 -0.2370
   7723SM  H10S10161   1.491   0.727  14.781 -1.8626  1.9110 -1.6893
   7723SM  H10T10162   1.329   0.763  14.858 -0.9364 -0.6415  1.6350
   7723SM  C11S10163   1.327   0.613  14.707  0.7146  0.7025  0.2749
   7723SM  H11S10164   1.248   0.678  14.662  0.3634  0.3877  0.4287
   7723SM  H11T10165   1.292   0.513  14.738  0.9706  1.0723  1.8363
   7723SM  C12S10166   1.423   0.570  14.597  1.0086 -1.1368 -0.1497
   7723SM  H12S10167   1.403   0.466  14.563  1.6813 -1.2791 -0.1302
   7723SM  H12T10168   1.525   0.569  14.641  0.5512  1.4165  1.1705
   7723SM  C13S10169   1.422   0.677  14.484  0.1242 -0.1983 -0.4004
   7723SM  H13S10170   1.460   0.771  14.530 -0.1871  0.3893 -1.3025
   7723SM  H13T10171   1.319   0.681  14.442  0.7841 -1.5407 -2.2949
   7723SM  C14S10172   1.497   0.638  14.363 -0.8343  0.7502  0.8432
   7723SM  H14S10173   1.457   0.546  14.315 -0.6954  0.5592  1.0901
   7723SM  H14T10174   1.600   0.616  14.397 -0.4317 -0.7771 -1.1650
   7723SM  C15S10175   1.516   0.765  14.277 -0.1527 -0.0740  0.7669
   7723SM  H15S10176   1.546   0.853  14.338  1.4438  1.7250 -2.3674
   7723SM  H15T10177   1.415   0.791  14.238 -0.2320 -0.9767  0.3184
   7723SM  C16S10178   1.628   0.747  14.168 -0.4480  0.1655 -0.0401
   7723SM  H16S10179   1.723   0.712  14.212 -1.2224  0.2591  1.7895
   7723SM  H16T10180   1.641   0.838  14.105  0.2479 -0.5962 -1.0123
   7723SM  C17S10181   1.588   0.630  14.073  0.0008  0.5645 -0.3178
   7723SM  H17S10182   1.478   0.625  14.063 -0.0039 -0.3365  0.1115
   7723SM  H17T10183   1.618   0.531  14.112 -0.4854  0.3032 -0.5995
   7723SM  C18S10184   1.648   0.647  13.932  0.0428 -0.1407  0.7193
   7723SM  H18S10185   1.625   0.568  13.857  0.3820  0.0295  0.4335
   7723SM  H18T10186   1.758   0.661  13.941  0.0916 -1.4495  3.2311
   7723SM  H18U10187   1.610   0.742  13.891  0.8339  0.2075  0.7720
   7723SM   C1F10188   1.603   1.367  15.148 -0.3058 -0.0152 -0.2950
   7723SM    OF10189   1.715   1.408  15.185 -0.2069 -0.2282  0.5337
   7723SM   C2F10190   1.539   1.402  15.022 -0.5159 -0.5678  0.5404
   7723SM   H2F10191   1.431   1.425  15.032 -0.3914  0.0176  0.6042
   7723SM   H2G10192   1.557   1.319  14.951  1.8798 -0.1550  0.5720
   7723SM   C3F10193   1.609   1.529  14.948 -0.2911 -0.1592  0.1146
   7723SM   H3F10194   1.720   1.520  14.946 -0.2381  0.4863 -0.4238
   7723SM   H3G10195   1.597   1.611  15.022 -0.7905 -0.2776  0.1673
   7723SM   C4F10196   1.557   1.561  14.807 -0.1230  0.2617 -0.2831
   7723SM   H4F10197   1.454   1.601  14.806  0.1530  1.0449  0.8131
   7723SM   H4G10198   1.558   1.460  14.760  1.2847 -0.0234  0.3104
   7723SM   C5F10199   1.653   1.660  14.737  0.4073 -0.1497  0.5380
   7723SM   H5F10200   1.754   1.621  14.712  1.8182  1.9778  2.4576
   7723SM   H5G10201   1.660   1.740  14.814 -0.2114  0.3324  0.1068
   7723SM   C6F10202   1.611   1.708  14.594  0.1079 -0.0209  0.3637
   7723SM   H6F10203   1.508   1.749  14.599 -0.0638 -0.3550 -0.3390
   7723SM   H6G10204   1.615   1.623  14.522 -0.7805 -1.8701  2.3882
   7723SM   C7F10205   1.702   1.822  14.531  0.4157 -0.1432  0.0362
   7723SM   H7F10206   1.681   1.830  14.422 -0.1593 -2.3221 -0.0413
   7723SM   H7G10207   1.807   1.787  14.531 -0.1120 -1.8231  0.1499
   7723SM   C8F10208   1.696   1.959  14.598 -0.1717 -0.1311  0.3714
   7723SM   H8F10209   1.686   1.938  14.707 -0.0795  0.8643  0.5878
   7723SM   H8G10210   1.613   2.022  14.561 -0.4620 -0.2230  0.8525
   7723SM   C9F10211   1.819   2.035  14.569  0.1374 -0.4728  0.0960
   7723SM   H9F10212   1.908   1.980  14.606  1.6305  1.8168  0.1192
   7723SM   H9G10213   1.818   2.128  14.630 -1.1207 -0.3596 -0.0695
   7723SM  C10F10214   1.848   2.071  14.423 -0.1300  0.1641 -0.1395
   7723SM  H10F10215   1.756   2.081  14.361  1.1256 -0.4879 -2.2170
   7723SM  H10G10216   1.889   1.982  14.370 -2.8488 -1.3156  0.0203
   7723SM  C11F10217   1.937   2.196  14.409  0.2780 -0.7456  0.1325
   7723SM  H11F10218   2.009   2.194  14.325 -0.3069  2.4205 -0.5719
   7723SM  H11G10219   2.005   2.205  14.496  0.5203 -0.2718 -0.1019
   7723SM  C12F10220   1.860   2.335  14.410  0.4332  0.6948  0.1972
   7723SM  H12F10221   1.768   2.322  14.471 -0.5475 -1.2560 -1.5600
   7723SM  H12G10222   1.828   2.358  14.307 -1.7175 -1.6643  0.2439
   7723SM  C13F10223   1.945   2.453  14.450 -0.6185  0.9166  0.9775
   7723SM  H13F10224   2.035   2.455  14.385 -0.6063 -1.9907  0.7893
   7723SM  H13G10225   2.005   2.424  14.539  1.9343 -0.2918 -0.9908
   7723SM  C14F10226   1.882   2.591  14.468  0.0914 -0.3233  0.9600
   7723SM  H14F10227   1.954   2.672  14.489 -0.9611  1.1778 -0.8828
   7723SM  H14G10228   1.810   2.594  14.553  1.8649  0.9738  2.4642
   7723SM  C15F10229   1.803   2.643  14.345 -0.4617  0.1178 -0.3047
   7723SM  H15F10230   1.757   2.735  14.385  1.1774  0.9213 -0.2024
   7723SM  H15G10231   1.720   2.574  14.316  0.0734 -1.1741  1.1132
   7723SM  C16F10232   1.898   2.693  14.235 -0.4340  0.1925  0.6726
   7723SM  H16F10233   1.946   2.603  14.191  0.7961  0.9097  0.5058
   7723SM  H16G10234   1.978   2.762  14.267  0.7828  0.0703 -1.8735
   7723SM  C17F10235   1.824   2.769  14.121  0.1137 -0.1309  0.6258
   7723SM  H17F10236   1.749   2.838  14.165 -1.2457 -0.9617 -0.3296
   7723SM  H17G10237   1.761   2.687  14.080 -0.9182  0.5401  0.8309
   7723SM  C18F10238   1.927   2.831  14.017  0.6308  0.5190  0.0675
   7723SM  H18F10239   1.990   2.745  13.986 -2.0752 -0.7868 -2.3165
   7723SM  H18G10240   1.988   2.895  14.084 -0.9070  0.2445  1.8240
   7723SM  C19F10241   1.875   2.913  13.893  0.6386 -1.2060 -0.0898
   7723SM  H19F10242   1.910   3.015  13.917 -1.4101 -0.3944 -0.3445
   7723SM  H19G10243   1.765   2.920  13.882  0.5063 -0.7272  1.3014
   7723SM  C20F10244   1.946   2.861  13.773 -0.9962  0.0524 -0.2978
   7723SM  H20F10245   1.915   2.754  13.770 -1.1094  0.0916 -0.5438
   7723SM  H20G10246   2.057   2.867  13.778 -1.0168 -0.1491  0.4379
   7723SM  C21F10247   1.921   2.926  13.640  0.4837 -0.4181 -0.6371
   7723SM  H21F10248   1.973   3.024  13.631  1.4327 -0.8446  0.0268
   7723SM  H21G10249   1.818   2.962  13.621  1.6768  3.1422 -1.2009
   7723SM  C22F10250   1.965   2.841  13.522  0.0039 -0.2992  0.1241
   7723SM  H22F10251   1.905   2.748  13.519  1.2964 -1.1455 -0.5171
   7723SM  H22G10252   2.066   2.803  13.547  0.3774  0.2970 -0.4375
   7723SM  C23F10253   1.965   2.910  13.384 -0.5211 -0.2032  0.0873
   7723SM  H23F10254   1.992   2.839  13.303 -1.8670 -0.9800  0.2891
   7723SM  H23G10255   2.034   2.997  13.393  0.3024 -0.8661  0.2688
   7723SM  H23H10256   1.865   2.949  13.355  0.1798  1.7361  0.1498
   7823SM     N10257   2.257   7.684  16.468 -0.0787 -0.0765  0.0829
   7823SM   C1510258   2.372   7.773  16.442  0.4235  0.0445 -0.0574
   7823SM  H15A10259   2.364   7.838  16.357 -1.0994  0.4129  0.3404
   7823SM  H15B10260   2.466   7.723  16.424 -0.0632 -1.1003  0.4601
   7823SM  H15C10261   2.386   7.834  16.530 -3.0254 -0.7140  1.1863
   7823SM   C1410262   2.231   7.594  16.350  0.3453 -0.0284 -0.7841
   7823SM  H14A10263   2.151   7.525  16.373  1.9221 -1.4782  0.7030
   7823SM  H14B10264   2.315   7.534  16.318  0.1071 -1.2118  0.6628
   7823SM  H14C10265   2.193   7.649  16.266  0.8088  1.3323 -0.1356
   7823SM   C1310266   2.288   7.598  16.586 -0.1830  0.5159  0.8612
   7823SM  H13A10267   2.385   7.550  16.584 -0.4782 -0.0979  0.9036
   7823SM  H13B10268   2.217   7.516  16.591  0.3463 -0.0900 -0.6796
   7823SM  H13C10269   2.283   7.666  16.669 -0.0635  3.5696 -1.4363
   7823SM   C1210270   2.131   7.765  16.501  0.4278 -0.0212 -0.1202
   7823SM  H12A10271   2.157   7.829  16.584  0.1580  2.2084 -1.6628
   7823SM  H12B10272   2.063   7.697  16.550 -0.0370 -0.5364 -1.4169
   7823SM   C1110273   2.069   7.854  16.388 -0.6590 -0.4813 -0.4255
   7823SM  H11A10274   2.154   7.902  16.335 -0.5781 -0.4422 -0.2597
   7823SM  H11B10275   2.010   7.940  16.427 -0.5384 -0.2482 -0.7482
   7823SM     P10276   1.868   7.704  16.318  0.0275 -0.3701  0.1669
   7823SM   O1310277   1.905   7.563  16.353  0.0900  0.2393 -0.3247
   7823SM   O1410278   1.794   7.787  16.414  0.0943  0.2462 -0.2145
   7823SM   O1110279   1.802   7.717  16.180  0.0973 -0.1268 -0.0940
   7823SM   O1210280   1.995   7.775  16.288  0.0617  0.5831  0.1527
   7823SM   C1S10281   1.860   7.652  16.063  0.0464  0.0632  0.2373
   7823SM   H1S10282   1.851   7.541  16.070 -1.6693  0.1035 -0.7795
   7823SM   H1T10283   1.969   7.672  16.053  0.1388 -0.6868 -0.3469
   7823SM    NF10284   1.832   7.621  15.816 -0.2745  0.0821  0.1945
   7823SM   HNF10285   1.897   7.656  15.749  0.8235 -4.0338 -1.2331
   7823SM   C2S10286   1.790   7.708  15.929 -0.1788  0.5174 -0.5842
   7823SM   H2S10287   1.682   7.688  15.944  0.0246 -0.7644 -0.7394
   7823SM   C3S10288   1.813   7.858  15.907 -0.3335  0.0468  0.5107
   7823SM   H3S10289   1.921   7.870  15.882 -0.9109  0.6965 -1.9442
   7823SM    O310290   1.803   7.939  16.025  0.1646  0.2518 -0.3035
   7823SM   HO310291   1.803   7.882  16.102  0.9740  3.0288  1.9158
   7823SM   C4S10292   1.724   7.899  15.794  0.7356 -0.0809 -0.0145
   7823SM   H4S10293   1.759   7.847  15.703  0.7946 -1.2320  0.6516
   7823SM   C5S10294   1.621   7.980  15.797  0.0263 -0.4556 -0.5272
   7823SM   H5S10295   1.601   8.040  15.887 -0.2451  0.3490 -1.1106
   7823SM   C6S10296   1.536   8.006  15.678 -0.2614 -0.3834 -0.5798
   7823SM   H6S10297   1.503   8.111  15.690  1.8146  0.1156  1.3601
   7823SM   H6T10298   1.449   7.937  15.682 -1.2499  0.8994  1.5448
   7823SM   C7S10299   1.614   8.001  15.548 -0.2555  0.1800  0.2606
   7823SM   H7S10300   1.632   7.893  15.530 -2.6542  0.1555 -2.6797
   7823SM   H7T10301   1.711   8.051  15.569  0.3708 -1.3758  1.2778
   7823SM   C8S10302   1.536   8.048  15.419  0.1838  0.0403 -0.1713
   7823SM   H8S10303   1.466   8.131  15.443 -0.9080 -1.5194  2.4706
   7823SM   H8T10304   1.469   7.973  15.374 -1.1119  0.0220  1.6851
   7823SM   C9S10305   1.631   8.098  15.310  0.3213  0.0014  0.7740
   7823SM   H9S10306   1.641   8.021  15.231 -3.0269 -0.1438  0.3248
   7823SM   H9T10307   1.733   8.107  15.353  0.6340 -1.3747  0.3756
   7823SM  C10S10308   1.575   8.205  15.218  0.5728  0.1199  0.5723
   7823SM  H10S10309   1.572   8.300  15.277  2.1933  0.2313  0.5127
   7823SM  H10T10310   1.469   8.177  15.199  0.5262  0.9046 -0.4403
   7823SM  C11S10311   1.643   8.230  15.083  0.0995 -0.6107 -0.2753
   7823SM  H11S10312   1.745   8.267  15.108 -0.6038  1.5962 -0.5247
   7823SM  H11T10313   1.583   8.317  15.048  1.4558  0.1310 -0.8396
   7823SM  C12S10314   1.655   8.113  14.979 -0.1361  0.3755 -0.4190
   7823SM  H12S10315   1.734   8.047  15.020 -1.5281 -1.0768  0.0179
   7823SM  H12T10316   1.701   8.151  14.885 -0.4149 -1.5124 -1.3683
   7823SM  C13S10317   1.527   8.036  14.944  0.3434  0.0865 -0.2038
   7823SM  H13S10318   1.447   8.101  14.903  1.8905  1.7313 -0.7465
   7823SM  H13T10319   1.491   7.985  15.036 -1.4159  1.0089 -0.3567
   7823SM  C14S10320   1.552   7.915  14.847 -0.1363  0.0864  0.6392
   7823SM  H14S10321   1.564   7.952  14.743  2.2101 -0.8415  0.5251
   7823SM  H14T10322   1.464   7.849  14.830  0.8009 -0.9688 -0.3194
   7823SM  C15S10323   1.665   7.811  14.884 -0.0476 -0.5393 -0.6652
   7823SM  H15S10324   1.632   7.781  14.986 -0.5168  1.1082 -0.2912
   7823SM  H15T10325   1.759   7.869  14.902 -1.1108  0.8826  0.6097
   7823SM  C16S10326   1.686   7.685  14.806 -0.3170  0.0594 -0.3410
   7823SM  H16S10327   1.591   7.632  14.785 -0.2153 -0.7266  1.0520
   7823SM  H16T10328   1.755   7.627  14.870  0.9832  0.8804 -0.9472
   7823SM  C17S10329   1.762   7.707  14.667  0.1037 -0.4024 -0.3781
   7823SM  H17S10330   1.853   7.767  14.688 -0.4416  0.5153 -0.5651
   7823SM  H17T10331   1.697   7.766  14.598  0.2732 -0.4916 -0.6161
   7823SM  C18S10332   1.799   7.577  14.608 -1.0462  0.1730 -0.1508
   7823SM  H18S10333   1.879   7.529  14.669 -0.9120  3.5373  2.6611
   7823SM  H18T10334   1.845   7.600  14.510  0.5232  1.5355  0.8495
   7823SM  H18U10335   1.716   7.503  14.601 -0.5737 -0.2721 -1.3040
   7823SM   C1F10336   1.806   7.492  15.806 -0.0778  0.2114  0.3675
   7823SM    OF10337   1.732   7.437  15.885 -0.2033 -0.0929  0.4238
   7823SM   C2F10338   1.886   7.418  15.696  0.2529  0.4917 -0.2239
   7823SM   H2F10339   1.982   7.470  15.673  1.1570 -1.1053 -0.1598
   7823SM   H2G10340   1.822   7.394  15.608 -1.4634 -2.3731  1.6587
   7823SM   C3F10341   1.935   7.286  15.764  0.2155 -0.5191  0.7222
   7823SM   H3F10342   1.849   7.217  15.779 -2.8328  2.7977 -0.1207
   7823SM   H3G10343   1.982   7.311  15.861  0.5262  0.1078  0.4142
   7823SM   C4F10344   2.044   7.215  15.680  0.8478 -0.1258 -0.1202
   7823SM   H4F10345   2.130   7.284  15.669  1.2701 -0.2830  1.8540
   7823SM   H4G10346   2.004   7.189  15.579 -0.4473 -0.6334  0.4965
   7823SM   C5F10347   2.092   7.087  15.734 -0.0253  0.9067 -1.3607
   7823SM   H5F10348   2.002   7.026  15.759 -0.1306  1.1590 -1.1165
   7823SM   H5G10349   2.153   7.115  15.823  1.7810  0.4688 -2.4266
   7823SM   C6F10350   2.180   7.002  15.636  0.0673 -0.8290  0.5740
   7823SM   H6F10351   2.266   7.057  15.592 -1.6103 -0.5373 -2.5986
   7823SM   H6G10352   2.113   7.000  15.547  0.4406  1.8477  0.1500
   7823SM   C7F10353   2.237   6.865  15.686  0.5992 -0.5885 -0.0569
   7823SM   H7F10354   2.151   6.808  15.726 -0.7823  2.1450  1.0949
   7823SM   H7G10355   2.301   6.884  15.775 -0.2501 -0.1944  0.4751
   7823SM   C8F10356   2.319   6.788  15.578  0.0313  0.0607 -0.3455
   7823SM   H8F10357   2.386   6.717  15.632 -1.1106 -0.8381 -0.0658
   7823SM   H8G10358   2.386   6.855  15.522  0.9488 -0.3868  0.1903
   7823SM   C9F10359   2.229   6.711  15.483 -0.1282 -0.1215 -0.1719
   7823SM   H9F10360   2.174   6.780  15.415  2.3260  0.8578 -1.2587
   7823SM   H9G10361   2.162   6.652  15.549 -0.8463 -0.2848 -1.0261
   7823SM  C10F10362   2.316   6.618  15.392  0.0580  0.0400 -0.0728
   7823SM  H10F10363   2.384   6.557  15.455  1.1547  0.8801 -0.3916
   7823SM  H10G10364   2.380   6.685  15.331 -0.5080 -0.4484 -1.2306
   7823SM  C11F10365   2.245   6.525  15.295 -0.3965 -0.5250 -0.0027
   7823SM  H11F10366   2.319   6.478  15.226  0.4633  1.8938 -0.8408
   7823SM  H11G10367   2.188   6.590  15.225 -0.8366  0.0333  0.8659
   7823SM  C12F10368   2.159   6.422  15.370  0.0625 -1.1210 -0.0606
   7823SM  H12F10369   2.082   6.485  15.419  2.3897  1.2552  0.7531
   7823SM  H12G10370   2.216   6.374  15.452  2.4227  2.5914  0.7022
   7823SM  C13F10371   2.090   6.317  15.279  0.7402  0.3389  0.1396
   7823SM  H13F10372   2.168   6.269  15.216 -0.0586 -0.1399 -0.4933
   7823SM  H13G10373   2.020   6.373  15.214 -0.2089 -1.4597 -0.4487
   7823SM  C14F10374   2.011   6.213  15.358  0.1394 -0.5056 -0.0306
   7823SM  H14F10375   1.932   6.254  15.425 -0.2178 -0.6725 -0.3478
   7823SM  H14G10376   2.077   6.159  15.430  2.3947  0.3803 -1.3403
   7823SM  C15F10377   1.949   6.098  15.273  0.4507 -0.3028  0.1006
   7823SM  H15F10378   1.898   6.030  15.345 -1.3797 -0.5672 -1.3723
   7823SM  H15G10379   2.030   6.041  15.224 -0.1744 -0.8822 -0.2756
   7823SM  C16F10380   1.849   6.152  15.161  0.4828 -0.7210  0.5429
   7823SM  H16F10381   1.920   6.193  15.085  0.8242  2.5959  2.4406
   7823SM  H16G10382   1.799   6.241  15.205  2.0798  0.5670 -0.1279
   7823SM  C17F10383   1.759   6.041  15.116  0.3781 -0.8934  0.5105
   7823SM  H17F10384   1.704   6.000  15.203 -0.7502 -1.0629 -0.2565
   7823SM  H17G10385   1.826   5.965  15.070  3.2821  1.7042  0.0910
   7823SM  C18F10386   1.676   6.084  14.992 -0.1389 -0.1381  0.2376
   7823SM  H18F10387   1.743   6.102  14.905 -0.9735  1.9876 -0.0214
   7823SM  H18G10388   1.622   6.176  15.022  0.3973 -0.4254  2.2823
   7823SM  C19F10389   1.581   5.970  14.960 -0.0696  0.0262  0.3887
   7823SM  H19F10390   1.513   5.987  14.875  0.4089  0.3471  0.0660
   7823SM  H19G10391   1.509   5.949  15.042 -0.7073 -0.8524 -0.3797
   7823SM  C20F10392   1.651   5.840  14.910  0.0536 -0.4643  0.4424
   7823SM  H20F10393   1.694   5.785  14.996  0.2463  0.2016  0.7853
   7823SM  H20G10394   1.731   5.871  14.839  0.9923  0.3969  1.8136
   7823SM  C21F10395   1.567   5.734  14.843 -0.3447 -0.3536 -0.3181
   7823SM  H21F10396   1.518   5.782  14.755  2.1060  2.6593 -0.2350
   7823SM  H21G10397   1.477   5.708  14.902  0.4301 -1.4943  0.4026
   7823SM  C22F10398   1.643   5.603  14.817  0.2129 -0.5875  0.5761
   7823SM  H22F10399   1.593   5.508  14.846  2.8416 -1.3140  3.1186
   7823SM  H22G10400   1.741   5.593  14.867  1.0772 -1.6708 -1.2376
   7823SM  C23F10401   1.673   5.576  14.665 -0.0876  0.0204 -0.5703
   7823SM  H23F10402   1.734   5.485  14.647 -2.1875 -1.7313  0.7394
   7823SM  H23G10403   1.734   5.658  14.621  2.2085 -0.6545  1.1222
   7823SM  H23H10404   1.573   5.565  14.618 -0.3671 -0.1975  0.0608
   7923SM     N10405   7.367   0.777  15.903  0.3088 -0.1522  0.0390
   7923SM   C1510406   7.303   0.784  15.767 -0.1785  0.2630 -0.6513
   7923SM  H15A10407   7.374   0.841  15.708 -0.2373 -0.4862 -1.4616
   7923SM  H15B10408   7.216   0.848  15.775  0.1260  0.5142  1.1011
   7923SM  H15C10409   7.282   0.693  15.713  1.6454 -1.0959  0.7943
   7923SM   C1410410   7.338   0.911  15.959 -0.0101  0.0960  0.1289
   7923SM  H14A10411   7.392   0.995  15.917  1.4668 -0.2365  1.2972
   7923SM  H14B10412   7.346   0.913  16.067  0.6402  0.6803  0.0820
   7923SM  H14C10413   7.231   0.924  15.946  0.0513 -0.5914 -1.2665
   7923SM   C1310414   7.292   0.670  15.969  0.0575 -0.2897 -0.1758
   7923SM  H13A10415   7.185   0.679  15.965 -0.1598 -1.1223  2.1404
   7923SM  H13B10416   7.323   0.655  16.072  1.2828 -4.6423 -0.9507
   7923SM  H13C10417   7.309   0.571  15.928 -0.5404 -0.7012  0.5312
   7923SM   C1210418   7.514   0.763  15.894  0.3565  0.7021 -0.2914
   7923SM  H12A10419   7.552   0.788  15.992 -0.9810 -2.7393  1.2779
   7923SM  H12B10420   7.564   0.830  15.826  1.7599  1.8605  1.7687
   7923SM   C1110421   7.579   0.620  15.859  0.5525 -0.3315 -0.6675
   7923SM  H11A10422   7.532   0.550  15.932 -0.7592 -1.3900 -2.4345
   7923SM  H11B10423   7.686   0.624  15.887  0.1025  2.6331  1.0691
   7923SM     P10424   7.605   0.651  15.610 -0.3283  0.1820 -0.0487
   7923SM   O1310425   7.497   0.648  15.509  0.3315 -0.2017  0.3927
   7923SM   O1410426   7.660   0.782  15.648  0.2671  0.5887 -0.2510
   7923SM   O1110427   7.719   0.550  15.563  0.2586 -0.3460 -0.2119
   7923SM   O1210428   7.553   0.570  15.729 -0.1277 -0.3078  0.6053
   7923SM   C1S10429   7.664   0.417  15.527  0.1148  0.2188 -0.2947
   7923SM   H1S10430   7.562   0.421  15.484 -1.0637 -2.0590  2.0011
   7923SM   H1T10431   7.659   0.354  15.618 -0.9051 -0.5115 -0.8357
   7923SM    NF10432   7.691   0.220  15.370 -0.2557  0.4554 -0.6840
   7923SM   HNF10433   7.725   0.133  15.405  0.3373 -0.2733 -2.8927
   7923SM   C2S10434   7.750   0.339  15.417 -0.8936 -0.2377  0.2201
   7923SM   H2S10435   7.753   0.416  15.337 -1.9147 -1.3369 -0.9073
   7923SM   C3S10436   7.898   0.326  15.457 -0.0263  0.6976 -0.2336
   7923SM   H3S10437   7.907   0.263  15.548  0.0428 -1.1574 -1.4736
   7923SM    O310438   7.955   0.449  15.501 -0.6281 -0.2510 -0.3480
   7923SM   HO310439   7.883   0.512  15.492 -1.7719 -1.4879 -0.1395
   7923SM   C4S10440   7.988   0.270  15.349  0.5867 -0.1227 -0.1896
   7923SM   H4S10441   7.958   0.288  15.245 -1.6652 -2.3083 -0.0067
   7923SM   C5S10442   8.104   0.208  15.378 -0.2464 -0.3017  0.0850
   7923SM   H5S10443   8.119   0.188  15.485  1.5494  1.2425  0.1670
   7923SM   C6S10444   8.214   0.169  15.287 -0.6298  0.1045 -0.2473
   7923SM   H6S10445   8.246   0.064  15.299 -0.0759  0.2607 -0.3208
   7923SM   H6T10446   8.302   0.218  15.333 -0.5346  0.0025 -0.3231
   7923SM   C7S10447   8.206   0.209  15.138  0.6861  0.2944 -0.7771
   7923SM   H7S10448   8.203   0.320  15.132 -0.3074  0.3514  0.4416
   7923SM   H7T10449   8.114   0.167  15.093 -0.1329  0.9437  0.2604
   7923SM   C8S10450   8.329   0.161  15.052 -0.6153 -0.0886  0.2962
   7923SM   H8S10451   8.331   0.050  15.046  2.3197 -0.0356 -2.7317
   7923SM   H8T10452   8.421   0.201  15.099 -0.6252  1.8613 -1.2007
   7923SM   C9S10453   8.341   0.214  14.909 -0.0031  0.5054  0.4507
   7923SM   H9S10454   8.346   0.325  14.914  0.9136  0.4953 -0.1688
   7923SM   H9T10455   8.258   0.183  14.842 -0.0323  0.5700  0.4575
   7923SM  C10S10456   8.473   0.164  14.847  0.0401  0.2779 -0.4110
   7923SM  H10S10457   8.486   0.056  14.870  0.2938  0.7610  2.0657
   7923SM  H10T10458   8.553   0.220  14.901 -0.3226  1.0690 -0.6731
   7923SM  C11S10459   8.489   0.201  14.697 -0.7611  1.1752 -1.2978
   7923SM  H11S10460   8.432   0.123  14.643  0.9646 -0.7375 -0.4842
   7923SM  H11T10461   8.596   0.188  14.669 -0.6595  0.5201 -0.6258
   7923SM  C12S10462   8.432   0.335  14.653 -0.2108  0.3085 -0.0778
   7923SM  H12S10463   8.467   0.415  14.722 -0.5324  0.7945 -0.4714
   7923SM  H12T10464   8.322   0.320  14.663 -0.1064 -0.5069 -0.0587
   7923SM  C13S10465   8.461   0.370  14.505 -0.4982 -0.9237 -0.7930
   7923SM  H13S10466   8.563   0.415  14.497 -0.6224  0.6971  3.7956
   7923SM  H13T10467   8.391   0.449  14.471  0.9348 -0.5927 -3.2612
   7923SM  C14S10468   8.437   0.259  14.405  0.2372 -0.6431 -0.1524
   7923SM  H14S10469   8.335   0.217  14.418  1.2305 -2.9077  0.9703
   7923SM  H14T10470   8.499   0.176  14.446  1.8354  0.5077 -0.1501
   7923SM  C15S10471   8.466   0.297  14.260 -0.1878 -0.0142 -0.2318
   7923SM  H15S10472   8.574   0.301  14.235  0.6821  0.1021  3.0920
   7923SM  H15T10473   8.422   0.399  14.256 -0.5531 -0.2046 -3.1344
   7923SM  C16S10474   8.385   0.209  14.158  0.2884  0.7946 -0.2035
   7923SM  H16S10475   8.388   0.255  14.057 -1.4084 -0.1756 -0.7429
   7923SM  H16T10476   8.277   0.222  14.181  0.6150  2.1921  0.5802
   7923SM  C17S10477   8.434   0.065  14.168  0.2434  1.1813  0.4034
   7923SM  H17S10478   8.434   0.025  14.271 -0.1832 -1.7973 -0.6415
   7923SM  H17T10479   8.539   0.060  14.132  0.2153 -0.6221  0.4839
   7923SM  C18S10480   8.366  -0.038  14.079  0.4669  0.5344 -0.0044
   7923SM  H18S10481   8.260  -0.047  14.111  0.7389  0.8189  1.0355
   7923SM  H18T10482   8.404  -0.142  14.090 -1.3960 -0.1753 -0.0068
   7923SM  H18U10483   8.368  -0.012  13.971  0.5668 -1.6083 -0.5622
   7923SM   C1F10484   7.588   0.229  15.293 -0.8172 -0.0273 -0.4969
   7923SM    OF10485   7.561   0.337  15.245 -0.4279 -0.1508  0.4355
   7923SM   C2F10486   7.491   0.108  15.274 -0.5305 -0.1387 -0.2647
   7923SM   H2F10487   7.445   0.102  15.374  1.0575  0.4474  0.5413
   7923SM   H2G10488   7.541   0.012  15.248  0.9721  0.2649  0.9887
   7923SM   C3F10489   7.393   0.145  15.160 -0.4521 -0.1218  0.1355
   7923SM   H3F10490   7.449   0.189  15.075 -0.8761  1.8880  0.8331
   7923SM   H3G10491   7.323   0.224  15.195 -0.5278  0.4118 -1.1893
   7923SM   C4F10492   7.307   0.031  15.118  0.3143  0.1168  0.7373
   7923SM   H4F10493   7.251  -0.012  15.202 -0.8342 -1.5105 -0.7964
   7923SM   H4G10494   7.378  -0.041  15.072 -1.2430 -0.3061 -1.1605
   7923SM   C5F10495   7.211   0.078  15.000 -0.4339  0.0331  0.0295
   7923SM   H5F10496   7.286   0.117  14.927 -2.0103  2.2860 -0.4909
   7923SM   H5G10497   7.153   0.164  15.040 -1.6490 -0.5794 -0.3675
   7923SM   C6F10498   7.125  -0.029  14.941 -0.1472  0.4546  0.2985
   7923SM   H6F10499   7.080   0.012  14.848 -1.0006 -1.9341 -0.4466
   7923SM   H6G10500   7.034  -0.051  15.002 -0.3850  0.5412 -0.0216
   7923SM   C7F10501   7.202  -0.157  14.896  0.2662 -0.7664 -0.0897
   7923SM   H7F10502   7.256  -0.209  14.977  1.8196 -1.7143 -1.6832
   7923SM   H7G10503   7.281  -0.122  14.826  0.1311 -1.2433 -0.4850
   7923SM   C8F10504   7.129  -0.262  14.817  0.8299  0.3177 -0.3201
   7923SM   H8F10505   7.200  -0.323  14.757  1.9451  0.4545  0.8309
   7923SM   H8G10506   7.054  -0.219  14.747  0.5678 -0.6306 -0.6475
   7923SM   C9F10507   7.046  -0.355  14.907 -0.6143 -0.5443  0.9799
   7923SM   H9F10508   6.953  -0.311  14.948 -1.6883 -0.6102 -1.2628
   7923SM   H9G10509   7.107  -0.381  14.996  1.7855 -0.2687 -0.4896
   7923SM  C10F10510   7.005  -0.482  14.835  0.2479  0.1928 -0.1312
   7923SM  H10F10511   7.095  -0.536  14.800  0.3645  1.4364 -1.8694
   7923SM  H10G10512   6.932  -0.461  14.754 -0.9233 -0.2284  0.7883
   7923SM  C11F10513   6.920  -0.567  14.932  0.0586 -0.2549 -0.2091
   7923SM  H11F10514   6.835  -0.501  14.960  0.8942 -0.1873  2.4332
   7923SM  H11G10515   6.966  -0.595  15.029  1.7388  0.5436 -0.7349
   7923SM  C12F10516   6.860  -0.694  14.860  0.5374  0.2184  0.1282
   7923SM  H12F10517   6.939  -0.772  14.868  3.7184  2.9247 -2.0152
   7923SM  H12G10518   6.846  -0.663  14.754 -0.1392  0.8709  0.3984
   7923SM  C13F10519   6.731  -0.743  14.926  0.0901 -0.3975  0.4151
   7923SM  H13F10520   6.657  -0.660  14.923 -1.0354 -1.3942 -2.7313
   7923SM  H13G10521   6.744  -0.761  15.035 -2.3268 -0.5529  0.7205
   7923SM  C14F10522   6.694  -0.870  14.864  0.8688 -0.1676 -0.1753
   7923SM  H14F10523   6.703  -0.862  14.753 -1.5278  3.8190 -0.2782
   7923SM  H14G10524   6.587  -0.895  14.881  1.7926 -2.3191  3.6943
   7923SM  C15F10525   6.771  -0.989  14.915  0.3734 -0.3035  0.5196
   7923SM  H15F10526   6.882  -0.981  14.916  0.4124 -0.8017  1.8388
   7923SM  H15G10527   6.742  -1.081  14.860  0.0328  0.4612 -0.6177
   7923SM  C16F10528   6.727  -1.017  15.057  0.0154  0.3001 -0.3914
   7923SM  H16F10529   6.617  -1.004  15.050  0.2070  1.7144 -1.0215
   7923SM  H16G10530   6.763  -0.932  15.119 -1.6951  0.6153  0.2207
   7923SM  C17F10531   6.764  -1.159  15.107  0.1768  0.0661  0.0867
   7923SM  H17F10532   6.718  -1.236  15.041  2.4519  1.1084 -2.9699
   7923SM  H17G10533   6.732  -1.169  15.212  1.0317 -0.8303  0.2783
   7923SM  C18F10534   6.919  -1.174  15.108 -0.1838  0.0440 -0.6277
   7923SM  H18F10535   6.962  -1.091  15.169 -0.1827  1.1782 -2.1265
   7923SM  H18G10536   6.964  -1.168  15.007 -0.6389 -1.1282 -0.9117
   7923SM  C19F10537   6.968  -1.309  15.162  0.2799 -0.3928 -0.0353
   7923SM  H19F10538   6.916  -1.394  15.112 -1.0555  1.1232 -1.3106
   7923SM  H19G10539   6.936  -1.319  15.268 -0.0721  0.8523 -0.0100
   7923SM  C20F10540   7.122  -1.332  15.161  0.1515 -0.1445  0.0714
   7923SM  H20F10541   7.175  -1.247  15.210 -0.0960  0.8209 -1.2793
   7923SM  H20G10542   7.156  -1.330  15.055 -1.5228 -0.4067 -0.4975
   7923SM  C21F10543   7.160  -1.457  15.239 -0.3003 -0.2441 -0.5386
   7923SM  H21F10544   7.106  -1.536  15.182 -0.5740  1.0595 -2.1925
   7923SM  H21G10545   7.115  -1.451  15.340 -0.1954  0.1278 -0.5126
   7923SM  C22F10546   7.311  -1.481  15.249  0.4678  0.1429 -0.0441
   7923SM  H22F10547   7.360  -1.391  15.292 -1.3663  1.1650  0.0175
   7923SM  H22G10548   7.352  -1.487  15.146 -0.6757 -1.8943 -0.4193
   7923SM  C23F10549   7.338  -1.603  15.332  0.3333  0.4848 -0.1452
   7923SM  H23F10550   7.278  -1.608  15.425  1.9316  1.6285  0.9969
   7923SM  H23G10551   7.445  -1.605  15.360 -0.3534 -1.6644  2.9408
   7923SM  H23H10552   7.306  -1.696  15.279  1.7205  0.0036 -0.1753
   8023SM     N10553   1.295   8.088  16.543 -0.5836 -0.3908  0.2203
   8023SM   C1510554   1.391   7.996  16.614 -0.1843 -0.0557 -0.0390
   8023SM  H15A10555   1.492   7.994  16.576 -0.1954 -2.0900 -0.0817
   8023SM  H15B10556   1.343   7.899  16.614 -2.5745  1.0430 -1.3578
   8023SM  H15C10557   1.398   8.027  16.717 -0.7456  1.4361 -0.4150
   8023SM   C1410558   1.169   8.088  16.615 -0.2468 -0.0829 -0.3239
   8023SM  H14A10559   1.095   8.139  16.555  0.5183 -1.0833 -2.2124
   8023SM  H14B10560   1.178   8.140  16.709 -2.7918 -0.9972  0.5232
   8023SM  H14C10561   1.134   7.993  16.654 -2.3983  0.6469 -0.3313
   8023SM   C1310562   1.350   8.232  16.565 -0.1837 -0.3400 -0.4560
   8023SM  H13A10563   1.362   8.260  16.669 -1.9988  0.8377 -0.5207
   8023SM  H13B10564   1.279   8.304  16.526  1.4466  0.2266 -2.6148
   8023SM  H13C10565   1.446   8.239  16.516  1.4024 -1.3265  2.3221
   8023SM   C1210566   1.277   8.058  16.395  0.0368  0.4418  0.2197
   8023SM  H12A10567   1.235   7.959  16.381 -1.1704  1.1776 -1.6588
   8023SM  H12B10568   1.377   8.053  16.354  0.1317  0.4138  0.4528
   8023SM   C1110569   1.184   8.152  16.318  0.7673  0.1886  1.5829
   8023SM  H11A10570   1.192   8.134  16.208 -1.6001 -1.5234  1.6049
   8023SM  H11B10571   1.226   8.252  16.341  1.5150  0.6077 -1.2558
   8023SM     P10572   0.960   8.011  16.316 -0.3587 -0.2753  0.1855
   8023SM   O1310573   1.027   7.883  16.351  0.4376 -0.1853  0.5669
   8023SM   O1410574   0.822   8.026  16.359 -0.6700  0.1166 -0.1980
   8023SM   O1110575   0.970   8.012  16.154 -0.4065 -0.4721  0.0486
   8023SM   O1210576   1.048   8.139  16.355 -0.0711  0.2745 -0.3011
   8023SM   C1S10577   0.852   7.972  16.086 -0.0120  1.1106  0.0574
   8023SM   H1S10578   0.779   8.056  16.092 -1.4631  0.0645 -1.8768
   8023SM   H1T10579   0.806   7.877  16.119 -0.9432  2.3185  2.4306
   8023SM    NF10580   0.758   7.915  15.860  0.1974  0.0727 -0.2650
   8023SM   HNF10581   0.761   7.835  15.801  1.7228 -0.5076  0.5546
   8023SM   C2S10582   0.876   7.957  15.933 -0.0312  0.3972  0.1373
   8023SM   H2S10583   0.902   8.061  15.903  1.7102  0.6593  2.3201
   8023SM   C3S10584   1.009   7.882  15.888 -0.5644  0.3785 -0.2232
   8023SM   H3S10585   0.983   7.774  15.888 -1.0194  0.3992 -3.0260
   8023SM    O310586   1.120   7.889  15.974 -0.1006  0.2077 -0.2105
   8023SM   HO310587   1.092   7.931  16.056 -1.4359  0.9561 -1.0303
   8023SM   C4S10588   1.046   7.908  15.746  0.8966 -0.7921  0.0569
   8023SM   H4S10589   0.992   7.847  15.672  3.2327 -1.2851 -1.3239
   8023SM   C5S10590   1.133   7.995  15.694 -0.7010 -0.1121 -0.2067
   8023SM   H5S10591   1.189   8.067  15.755  0.9681 -0.9110 -0.7398
   8023SM   C6S10592   1.160   8.022  15.552  0.2758 -0.3328  0.6303
   8023SM   H6S10593   1.229   8.107  15.538 -1.3195  0.8258 -0.5152
   8023SM   H6T10594   1.069   8.064  15.505 -0.2562 -0.6931  1.3147
   8023SM   C7S10595   1.202   7.894  15.478 -0.0610  0.4553 -0.5390
   8023SM   H7S10596   1.151   7.809  15.527  0.1792  1.0096  0.6910
   8023SM   H7T10597   1.309   7.864  15.489 -0.9397 -2.6091  0.5303
   8023SM   C8S10598   1.165   7.883  15.332 -0.5893 -0.4103 -0.5849
   8023SM   H8S10599   1.230   7.959  15.283 -1.9195  0.8503 -0.4363
   8023SM   H8T10600   1.057   7.904  15.315 -0.4918 -0.9389 -2.0380
   8023SM   C9S10601   1.215   7.751  15.275  0.2411  0.2302 -0.8830
   8023SM   H9S10602   1.147   7.682  15.327 -0.2174  0.3047 -1.3744
   8023SM   H9T10603   1.319   7.731  15.310 -0.6118 -1.6640  0.7088
   8023SM  C10S10604   1.200   7.742  15.128 -0.4516  0.3738  0.6830
   8023SM  H10S10605   1.270   7.811  15.075  1.1689 -0.4789  1.6473
   8023SM  H10T10606   1.099   7.774  15.092 -0.6025 -0.7805  0.0376
   8023SM  C11S10607   1.222   7.607  15.049 -0.6662  0.2705  0.1651
   8023SM  H11S10608   1.217   7.641  14.944  0.4623  0.3581  0.1232
   8023SM  H11T10609   1.158   7.526  15.089  1.6845 -2.0225 -0.4543
   8023SM  C12S10610   1.361   7.557  15.081  0.4224  0.0393 -0.2153
   8023SM  H12S10611   1.362   7.495  15.173 -0.5795 -0.3859 -0.4717
   8023SM  H12T10612   1.441   7.634  15.088 -0.2124  0.6963  0.0187
   8023SM  C13S10613   1.398   7.459  14.967 -0.3392 -0.0426  0.1712
   8023SM  H13S10614   1.435   7.527  14.887  1.9368  1.7144  2.5183
   8023SM  H13T10615   1.313   7.393  14.941 -1.7382  1.0162  1.8634
   8023SM  C14S10616   1.532   7.385  14.991  0.0505  0.2889 -0.0998
   8023SM  H14S10617   1.504   7.320  15.077 -0.2701 -1.9146 -1.7904
   8023SM  H14T10618   1.610   7.461  15.007 -1.0230  0.9670  2.4979
   8023SM  C15S10619   1.574   7.295  14.877 -0.6814 -0.1915 -0.3453
   8023SM  H15S10620   1.587   7.361  14.788 -2.9805 -1.7797 -1.9743
   8023SM  H15T10621   1.491   7.226  14.852  0.3376 -2.2584  1.6118
   8023SM  C16S10622   1.694   7.216  14.928  0.6853 -0.0330 -0.4811
   8023SM  H16S10623   1.713   7.130  14.861 -0.6010 -0.2941 -0.5457
   8023SM  H16T10624   1.664   7.187  15.031  2.7699  1.7639  0.7086
   8023SM  C17S10625   1.827   7.297  14.938 -0.4723  1.1008 -0.2954
   8023SM  H17S10626   1.808   7.378  15.012  1.3100 -0.2750  1.7881
   8023SM  H17T10627   1.853   7.346  14.842 -0.5283 -0.6182 -1.2227
   8023SM  C18S10628   1.939   7.197  14.975 -0.3471 -0.2241 -0.2065
   8023SM  H18S10629   1.936   7.106  14.910  3.5335 -0.0940 -0.8123
   8023SM  H18T10630   1.933   7.177  15.084 -1.1746 -0.3468 -0.2636
   8023SM  H18U10631   2.031   7.254  14.953 -1.7373  2.9448  1.5619
   8023SM   C1F10632   0.636   7.967  15.850  0.4324  0.2251 -0.0367
   8023SM    OF10633   0.606   8.075  15.900  0.2144  0.1999 -0.9584
   8023SM   C2F10634   0.530   7.894  15.777 -0.2041 -0.5907 -0.6577
   8023SM   H2F10635   0.445   7.963  15.761 -0.8407 -1.5067 -1.3478
   8023SM   H2G10636   0.487   7.807  15.831 -1.5794  1.3740  1.6410
   8023SM   C3F10637   0.578   7.838  15.639  0.1794  0.3059 -0.4885
   8023SM   H3F10638   0.487   7.786  15.602  0.1106 -0.4903  0.7191
   8023SM   H3G10639   0.648   7.752  15.629 -0.8706 -0.5957 -0.2416
   8023SM   C4F10640   0.612   7.946  15.546  0.2865  0.6014  0.0932
   8023SM   H4F10641   0.720   7.971  15.560  0.1570  0.2475  2.0810
   8023SM   H4G10642   0.558   8.033  15.589 -1.2956 -0.7259  0.9429
   8023SM   C5F10643   0.575   7.923  15.399 -0.5746 -0.0171 -0.0538
   8023SM   H5F10644   0.586   8.020  15.347 -1.5925 -0.4576 -1.1483
   8023SM   H5G10645   0.469   7.899  15.376  0.2744 -0.7911 -3.8377
   8023SM   C6F10646   0.674   7.832  15.338 -0.4538 -0.7214  0.2473
   8023SM   H6F10647   0.696   7.738  15.393 -1.6752 -0.8112  0.5993
   8023SM   H6G10648   0.778   7.871  15.342 -0.8846  0.3635  1.5968
   8023SM   C7F10649   0.639   7.792  15.191  0.7613 -0.5081  0.6065
   8023SM   H7F10650   0.631   7.886  15.133  1.4791  0.6524  2.2675
   8023SM   H7G10651   0.538   7.746  15.189  0.6639 -0.2836 -1.9528
   8023SM   C8F10652   0.747   7.710  15.135  0.1338 -0.1136  0.1801
   8023SM   H8F10653   0.759   7.621  15.200  2.3832 -0.1763 -0.2300
   8023SM   H8G10654   0.838   7.774  15.140 -1.2540  2.1928 -1.8666
   8023SM   C9F10655   0.720   7.653  14.993  0.7271  0.6436  0.0798
   8023SM   H9F10656   0.691   7.723  14.912  0.4352 -0.5624 -0.8818
   8023SM   H9G10657   0.626   7.593  14.995  0.1731  1.4898  1.0236
   8023SM  C10F10658   0.837   7.575  14.926  0.3547 -0.2543  0.1934
   8023SM  H10F10659   0.927   7.638  14.914 -0.6672  0.8297 -2.3126
   8023SM  H10G10660   0.804   7.539  14.826 -0.0680 -0.3890  0.3806
   8023SM  C11F10661   0.874   7.452  15.005  0.5428 -0.0555 -0.4242
   8023SM  H11F10662   0.784   7.391  15.030  0.5440  0.9022  2.1927
   8023SM  H11G10663   0.919   7.475  15.103 -0.1342  1.5102 -0.4438
   8023SM  C12F10664   0.967   7.362  14.916 -0.0433  0.3092 -0.2375
   8023SM  H12F10665   1.065   7.414  14.928  0.2812  0.3371 -2.5633
   8023SM  H12G10666   0.942   7.372  14.808 -4.4855  1.1097  0.6826
   8023SM  C13F10667   0.970   7.218  14.961  0.1837 -0.3727 -0.1473
   8023SM  H13F10668   0.876   7.170  14.924 -0.4501  1.2160 -0.7161
   8023SM  H13G10669   0.965   7.214  15.072 -2.8500  2.3396 -0.0346
   8023SM  C14F10670   1.095   7.148  14.915 -0.7605 -0.3272  0.5320
   8023SM  H14F10671   1.093   7.048  14.964 -1.0810 -0.2240  0.7329
   8023SM  H14G10672   1.193   7.180  14.957  0.0974 -1.6125 -0.3979
   8023SM  C15F10673   1.103   7.130  14.756 -0.3143 -1.1104  0.0910
   8023SM  H15F10674   1.172   7.214  14.735 -1.9734  0.5338  0.9352
   8023SM  H15G10675   1.011   7.136  14.694 -1.8961 -0.0602  2.4419
   8023SM  C16F10676   1.161   7.003  14.715  0.3155 -0.0656  0.0974
   8023SM  H16F10677   1.089   6.927  14.753 -1.3303  0.9024 -0.9839
   8023SM  H16G10678   1.259   6.987  14.766 -0.2560 -4.0195  0.3073
   8023SM  C17F10679   1.177   6.976  14.567 -0.1689  0.0476  0.7950
   8023SM  H17F10680   1.220   7.065  14.517  1.8425 -1.2817  0.0323
   8023SM  H17G10681   1.081   6.959  14.514 -0.4275 -0.2188  1.3346
   8023SM  C18F10682   1.273   6.860  14.545  0.5976 -0.3788 -0.3382
   8023SM  H18F10683   1.357   6.859  14.618  0.6077 -0.8966 -0.3555
   8023SM  H18G10684   1.323   6.871  14.447  1.3946  1.8391  0.2671
   8023SM  C19F10685   1.188   6.729  14.550  0.5865 -0.3815 -0.3279
   8023SM  H19F10686   1.106   6.737  14.475 -1.3798 -0.8774  1.6705
   8023SM  H19G10687   1.166   6.720  14.658  1.3306  1.7421  0.0458
   8023SM  C20F10688   1.263   6.608  14.509 -0.1577  0.1162  0.0675
   8023SM  H20F10689   1.212   6.510  14.520  0.9049 -0.5149 -0.3733
   8023SM  H20G10690   1.355   6.598  14.571 -1.2946  0.2525  1.8218
   8023SM  C21F10691   1.306   6.601  14.359 -0.4443 -0.6272  0.0044
   8023SM  H21F10692   1.354   6.502  14.340 -1.9336 -1.3907  0.0320
   8023SM  H21G10693   1.378   6.684  14.347 -1.0150 -0.0660  0.4202
   8023SM  C22F10694   1.194   6.624  14.255  0.6459  0.0003 -0.2774
   8023SM  H22F10695   1.165   6.729  14.276  0.8803 -0.1986  1.1985
   8023SM  H22G10696   1.101   6.564  14.268  0.6816 -0.6902 -2.7647
   8023SM  C23F10697   1.232   6.623  14.109 -0.8694  0.2388 -0.3130
   8023SM  H23F10698   1.259   6.520  14.077 -1.3556  0.4789 -1.5735
   8023SM  H23G10699   1.326   6.679  14.092 -0.6490 -0.6330 -2.2619
   8023SM  H23H10700   1.156   6.653  14.033 -0.4245 -2.6871 -2.0892
   8123SM     N10701   5.979   5.761  12.211 -0.9420 -0.3916  0.0164
   8123SM   C1510702   6.072   5.851  12.295  0.8254 -0.0741 -0.2060
   8123SM  H15A10703   6.117   5.789  12.370  0.0865 -1.5964 -0.9665
   8123SM  H15B10704   6.013   5.932  12.334  0.9435  1.0757 -2.2608
   8123SM  H15C10705   6.154   5.883  12.233  0.8339 -0.0596 -0.1873
   8123SM   C1410706   5.892   5.837  12.111 -0.6506 -0.9265 -0.2655
   8123SM  H14A10707   5.840   5.771  12.044 -1.1155 -0.2984 -0.5338
   8123SM  H14B10708   5.952   5.895  12.043  0.0948  0.3577  1.4230
   8123SM  H14C10709   5.818   5.903  12.155  0.2170 -0.3303  0.3472
   8123SM   C1310710   6.065   5.662  12.135  0.4057 -0.3165  0.7387
   8123SM  H13A10711   6.001   5.607  12.067 -0.3983 -0.1170  1.3211
   8123SM  H13B10712   6.126   5.599  12.197  0.9842 -1.1006 -0.5802
   8123SM  H13C10713   6.126   5.722  12.068 -0.6687 -0.7296 -0.6653
   8123SM   C1210714   5.887   5.681  12.304  0.7920 -0.3267  0.4052
   8123SM  H12A10715   5.943   5.614  12.366 -0.0837 -0.7895  0.7042
   8123SM  H12B10716   5.814   5.626  12.246  0.1925  1.0266 -0.1887
   8123SM   C1110717   5.799   5.774  12.401 -0.4076  0.2445  0.0985
   8123SM  H11A10718   5.867   5.824  12.473 -0.0646  0.3856 -0.3194
   8123SM  H11B10719   5.736   5.705  12.461  1.6096 -0.1106  1.9370
   8123SM     P10720   5.634   5.975  12.401 -0.0717 -0.2730 -0.0508
   8123SM   O1310721   5.724   6.097  12.402 -0.2530  0.1722 -0.0180
   8123SM   O1410722   5.494   5.985  12.350 -0.4204  0.4567 -0.0588
   8123SM   O1110723   5.627   5.922  12.553  0.4778  0.0139 -0.3447
   8123SM   O1210724   5.708   5.859  12.320 -0.8752  0.0210 -0.4117
   8123SM   C1S10725   5.512   5.842  12.586  0.4195  0.5944  0.0482
   8123SM   H1S10726   5.491   5.764  12.510 -1.9467  0.1745  1.0436
   8123SM   H1T10727   5.424   5.908  12.597  0.5487  0.7351  0.2381
   8123SM    NF10728   5.465   5.659  12.744  0.1839  0.6410  0.0484
   8123SM   HNF10729   5.417   5.665  12.831  1.3402  1.9702  0.6296
   8123SM   C2S10730   5.555   5.765  12.714 -0.4398 -0.0599 -0.7188
   8123SM   H2S10731   5.653   5.715  12.703 -0.9017 -1.2467  0.3009
   8123SM   C3S10732   5.577   5.871  12.832  0.3075 -0.4014  0.4156
   8123SM   H3S10733   5.476   5.905  12.862  0.7143  2.5461 -1.2344
   8123SM    O310734   5.647   5.991  12.817 -0.6085 -0.2089  0.1400
   8123SM   HO310735   5.673   5.982  12.725 -2.1968 -1.8842 -0.2035
   8123SM   C4S10736   5.642   5.792  12.938  0.6450 -0.0010  0.1576
   8123SM   H4S10737   5.567   5.764  13.014  0.1147  1.4533  0.1993
   8123SM   C5S10738   5.771   5.752  12.945  0.2604 -0.1227 -0.8950
   8123SM   H5S10739   5.840   5.769  12.861  1.6117 -1.3879 -0.0847
   8123SM   C6S10740   5.816   5.656  13.059  0.0785  0.3985 -0.3811
   8123SM   H6S10741   5.781   5.689  13.159 -0.2297 -2.7131  0.6296
   8123SM   H6T10742   5.926   5.646  13.070 -0.0245 -1.2810 -0.6329
   8123SM   C7S10743   5.774   5.506  13.038  0.1391  0.1863  0.0525
   8123SM   H7S10744   5.819   5.481  12.939 -0.0733  3.4376 -1.0049
   8123SM   H7T10745   5.664   5.492  13.026  0.1073  1.2997 -1.2650
   8123SM   C8S10746   5.832   5.409  13.149 -0.2702 -0.5875 -0.7751
   8123SM   H8S10747   5.773   5.423  13.242 -1.5274 -3.9149 -0.9142
   8123SM   H8T10748   5.939   5.435  13.166 -1.1030  2.7394  0.0292
   8123SM   C9S10749   5.801   5.262  13.118 -0.1587 -0.2570 -0.4162
   8123SM   H9S10750   5.841   5.239  13.017  1.2632  1.7040 -0.3518
   8123SM   H9T10751   5.690   5.257  13.127 -0.0863  1.0554  1.9281
   8123SM  C10S10752   5.858   5.169  13.222  0.0612 -0.8272 -0.2680
   8123SM  H10S10753   5.835   5.192  13.328 -0.0481 -2.1177 -0.0021
   8123SM  H10T10754   5.969   5.171  13.224  0.1530 -1.7289  3.9110
   8123SM  C11S10755   5.813   5.032  13.197 -0.1261 -0.4662 -0.2691
   8123SM  H11S10756   5.831   5.003  13.091  0.3837  1.0530 -0.6300
   8123SM  H11T10757   5.702   5.041  13.201 -0.2020 -1.0098 -0.9570
   8123SM  C12S10758   5.869   4.930  13.293  0.8248  0.4858  0.1111
   8123SM  H12S10759   5.845   4.830  13.253 -0.0344  1.0793 -0.9053
   8123SM  H12T10760   5.819   4.946  13.391  2.0394  0.0267  0.8345
   8123SM  C13S10761   6.018   4.924  13.325 -0.2529  0.4049  0.0732
   8123SM  H13S10762   6.035   4.853  13.408 -0.9034 -2.0700 -1.8077
   8123SM  H13T10763   6.070   5.018  13.354 -0.8990  1.1237 -1.0318
   8123SM  C14S10764   6.109   4.868  13.216 -0.3389  0.3875  0.2803
   8123SM  H14S10765   6.107   4.929  13.124 -2.3412 -1.9853 -1.3989
   8123SM  H14T10766   6.065   4.771  13.183  0.3929  0.3879 -0.7596
   8123SM  C15S10767   6.257   4.845  13.259 -0.2715  0.1697  0.6143
   8123SM  H15S10768   6.295   4.797  13.167 -0.4139 -1.3439  1.3126
   8123SM  H15T10769   6.260   4.768  13.339  1.5864  0.4721  0.8799
   8123SM  C16S10770   6.335   4.968  13.303 -0.3876 -0.3330 -0.0537
   8123SM  H16S10771   6.306   4.999  13.406  0.2200  1.6210 -0.4269
   8123SM  H16T10772   6.314   5.055  13.237  0.5653  0.8443  1.1411
   8123SM  C17S10773   6.486   4.922  13.301 -0.1214 -0.5642  0.3107
   8123SM  H17S10774   6.514   4.888  13.199  1.6021 -2.4989  1.3457
   8123SM  H17T10775   6.501   4.833  13.366  0.1390  0.2209  1.3459
   8123SM  C18S10776   6.593   5.020  13.350  0.4915  0.8895 -0.0375
   8123SM  H18S10777   6.567   5.058  13.451  1.4768  1.3567  0.0566
   8123SM  H18T10778   6.613   5.107  13.285  0.7627  0.4330 -0.5744
   8123SM  H18U10779   6.694   4.972  13.354  1.1760  2.2009 -1.0124
   8123SM   C1F10780   5.465   5.550  12.671  0.4569  0.4598 -0.9099
   8123SM    OF10781   5.542   5.537  12.577  0.3446 -0.5390 -0.1317
   8123SM   C2F10782   5.368   5.443  12.696  0.8359 -0.1683 -0.3237
   8123SM   H2F10783   5.295   5.442  12.613 -0.4861 -1.6791  0.7747
   8123SM   H2G10784   5.310   5.463  12.789  2.0881  1.8308  0.0797
   8123SM   C3F10785   5.430   5.298  12.708  0.1437 -0.0567  0.1956
   8123SM   H3F10786   5.495   5.284  12.618  0.7467  1.8022  0.3046
   8123SM   H3G10787   5.352   5.219  12.718 -0.2886  0.5984  2.4756
   8123SM   C4F10788   5.521   5.279  12.832 -1.5579  0.2155 -0.4301
   8123SM   H4F10789   5.455   5.281  12.921 -3.3195  3.0653 -1.6536
   8123SM   H4G10790   5.592   5.365  12.836 -2.2197  0.8072 -1.1712
   8123SM   C5F10791   5.591   5.136  12.845  0.0561  0.1969  0.2718
   8123SM   H5F10792   5.661   5.131  12.931 -0.4330 -2.6698  0.6220
   8123SM   H5G10793   5.639   5.121  12.746  0.5761  1.5725  0.3040
   8123SM   C6F10794   5.503   5.013  12.862  0.1305  0.6074  0.0352
   8123SM   H6F10795   5.555   4.921  12.829 -1.5859 -0.1879 -0.5796
   8123SM   H6G10796   5.420   5.020  12.788 -0.2075 -0.2515  0.3181
   8123SM   C7F10797   5.437   4.983  12.999 -0.5000 -0.1728  0.0236
   8123SM   H7F10798   5.392   5.073  13.045 -1.0403  0.0554 -0.9065
   8123SM   H7G10799   5.510   4.949  13.075 -0.6719  0.7794  0.6353
   8123SM   C8F10800   5.323   4.885  12.989  0.2227 -0.8337 -0.7822
   8123SM   H8F10801   5.366   4.788  12.957  0.5188 -1.5182  1.4853
   8123SM   H8G10802   5.246   4.921  12.918 -3.3766 -0.7473  2.8128
   8123SM   C9F10803   5.232   4.855  13.117  0.3192 -0.2641  0.5546
   8123SM   H9F10804   5.169   4.765  13.102 -0.3782  0.3456 -0.2445
   8123SM   H9G10805   5.177   4.949  13.141 -0.9536 -0.7560 -0.3355
   8123SM  C10F10806   5.309   4.820  13.244 -0.4652  0.5871 -0.3221
   8123SM  H10F10807   5.375   4.901  13.281  0.2455  0.0155 -0.2929
   8123SM  H10G10808   5.377   4.737  13.212  0.7160  1.7061 -0.7900
   8123SM  C11F10809   5.221   4.758  13.353  0.6427  0.3392 -0.4470
   8123SM  H11F10810   5.142   4.695  13.307  1.1375  1.7521 -3.5042
   8123SM  H11G10811   5.168   4.844  13.400  0.4794 -0.4588  0.8633
   8123SM  C12F10812   5.288   4.681  13.466  0.0261 -0.1734  0.2364
   8123SM  H12F10813   5.356   4.746  13.524  0.2376  0.2152 -0.4313
   8123SM  H12G10814   5.347   4.600  13.417 -0.0559 -0.0440 -0.0804
   8123SM  C13F10815   5.189   4.627  13.567 -0.0007 -0.1346  0.1386
   8123SM  H13F10816   5.136   4.544  13.515  0.5285 -0.2644 -0.2020
   8123SM  H13G10817   5.117   4.706  13.595  0.5621  0.7232 -0.7837
   8123SM  C14F10818   5.258   4.554  13.679  0.6072 -0.1846 -0.7612
   8123SM  H14F10819   5.335   4.487  13.635  1.5523  1.4149 -1.6215
   8123SM  H14G10820   5.182   4.491  13.731 -2.1602  2.0945 -1.7593
   8123SM  C15F10821   5.317   4.648  13.788  0.7105  0.0681 -0.1916
   8123SM  H15F10822   5.225   4.698  13.825  1.6446 -0.0417  2.4275
   8123SM  H15G10823   5.396   4.713  13.745 -0.5731  0.0638 -2.7895
   8123SM  C16F10824   5.360   4.570  13.914  0.0592  0.1174  0.2823
   8123SM  H16F10825   5.450   4.621  13.954 -0.0257 -0.2833  1.0172
   8123SM  H16G10826   5.387   4.484  13.849 -0.8965 -1.0439  1.3640
   8123SM  C17F10827   5.265   4.545  14.029  0.7306  0.3778 -0.2892
   8123SM  H17F10828   5.306   4.461  14.089  1.5360  1.5236  0.7997
   8123SM  H17G10829   5.163   4.509  14.001 -0.6504  1.2422  3.1055
   8123SM  C18F10830   5.253   4.656  14.131 -0.2578 -0.3771  0.4093
   8123SM  H18F10831   5.166   4.710  14.086 -0.7602 -1.4152  0.0943
   8123SM  H18G10832   5.346   4.716  14.125 -0.1369 -0.3894  1.8455
   8123SM  C19F10833   5.214   4.605  14.270 -1.1927 -0.1616 -0.1057
   8123SM  H19F10834   5.132   4.531  14.260 -1.2625 -0.0992 -0.0021
   8123SM  H19G10835   5.165   4.689  14.322 -1.5950 -0.5100  0.0834
   8123SM  C20F10836   5.333   4.548  14.351  0.4027 -0.4773  0.1482
   8123SM  H20F10837   5.431   4.599  14.336  2.5785 -4.0718  0.7502
   8123SM  H20G10838   5.350   4.442  14.322 -0.4746 -1.0830  1.7211
   8123SM  C21F10839   5.301   4.552  14.505  0.4246 -0.1136  0.1351
   8123SM  H21F10840   5.366   4.475  14.553 -0.8690 -1.9105 -0.8966
   8123SM  H21G10841   5.195   4.538  14.533  0.4978  1.5240  1.3846
   8123SM  C22F10842   5.351   4.691  14.555 -0.6555  0.1417  0.2121
   8123SM  H22F10843   5.295   4.766  14.496  0.0681  0.2544 -0.3429
   8123SM  H22G10844   5.458   4.703  14.529 -0.3296  0.1069  1.4843
   8123SM  C23F10845   5.335   4.712  14.711  0.3485 -0.2324 -0.0054
   8123SM  H23F10846   5.229   4.697  14.742  0.1384 -1.9308 -1.3634
   8123SM  H23G10847   5.384   4.809  14.732 -1.4792  0.6503  0.2928
   8123SM  H23H10848   5.385   4.623  14.757  0.5238  0.1734  0.5975
   8223SM     N10849   6.882   5.864  12.124 -0.3675  0.4957 -0.5084
   8223SM   C1510850   6.998   5.908  12.200 -0.0241 -0.2119 -0.5209
   8223SM  H15A10851   6.973   5.979  12.278  0.6943  0.0007 -0.4784
   8223SM  H15B10852   7.062   5.968  12.137 -0.4459 -0.8456 -1.5748
   8223SM  H15C10853   7.058   5.828  12.241 -0.9799 -1.2828 -1.1461
   8223SM   C1410854   6.814   5.982  12.070 -0.5270 -0.5809 -0.1145
   8223SM  H14A10855   6.876   6.023  11.991  0.1134 -0.5216  0.4060
   8223SM  H14B10856   6.798   6.056  12.147  1.3277 -0.7929  0.5361
   8223SM  H14C10857   6.714   5.953  12.041 -0.0146  0.2021 -3.0080
   8223SM   C1310858   6.942   5.781  12.010 -0.3953 -0.5604 -0.2533
   8223SM  H13A10859   6.869   5.774  11.931 -1.2946 -0.0029  0.5033
   8223SM  H13B10860   6.975   5.683  12.042  0.0557 -1.5456 -3.3838
   8223SM  H13C10861   7.035   5.830  11.986  0.2300  0.1453  3.0440
   8223SM   C1210862   6.785   5.783  12.212  0.2932  0.2559  0.5814
   8223SM  H12A10863   6.748   5.845  12.292  0.1116 -0.6288  1.1942
   8223SM  H12B10864   6.847   5.713  12.265  1.4391 -0.0150 -1.0498
   8223SM   C1110865   6.669   5.717  12.141  0.2371 -0.7032  0.0919
   8223SM  H11A10866   6.610   5.796  12.090 -0.9440 -1.1921  0.6607
   8223SM  H11B10867   6.594   5.687  12.217 -0.4538  0.7497  0.0126
   8223SM     P10868   6.771   5.481  12.105  0.4799 -0.0649 -0.2114
   8223SM   O1310869   6.672   5.376  12.128 -0.0210  0.7622  0.4710
   8223SM   O1410870   6.878   5.442  12.015  0.2584 -0.3016  0.5631
   8223SM   O1110871   6.839   5.527  12.244  0.3668 -0.6212  0.0111
   8223SM   O1210872   6.698   5.609  12.048  0.0956 -0.1281  0.1019
   8223SM   C1S10873   6.794   5.485  12.370 -1.3070  0.5875 -0.7173
   8223SM   H1S10874   6.739   5.389  12.363 -0.0016 -0.2528  0.1824
   8223SM   H1T10875   6.722   5.557  12.414 -0.0907  0.9175  0.8065
   8223SM    NF10876   6.866   5.384  12.577  0.2816 -0.4793 -0.4999
   8223SM   HNF10877   6.849   5.423  12.667 -0.4859  0.9815 -1.2413
   8223SM   C2S10878   6.914   5.457  12.456 -0.4074 -0.1734 -1.1131
   8223SM   H2S10879   6.982   5.390  12.400  0.1464 -0.7066  0.1535
   8223SM   C3S10880   6.987   5.587  12.500 -0.1231  0.3296  0.2944
   8223SM   H3S10881   6.910   5.661  12.531  0.9317  2.2296 -1.3830
   8223SM    O310882   7.051   5.656  12.392 -0.6519  0.3918  0.2373
   8223SM   HO310883   7.017   5.609  12.315 -2.5280 -0.6939  1.6293
   8223SM   C4S10884   7.079   5.565  12.619  0.3315 -0.1362  0.6822
   8223SM   H4S10885   7.168   5.502  12.602  0.4738  0.3682 -0.5380
   8223SM   C5S10886   7.079   5.633  12.735 -0.4639  0.0038 -0.8217
   8223SM   H5S10887   6.990   5.693  12.760  0.1549  1.4417 -1.8750
   8223SM   C6S10888   7.178   5.612  12.849 -0.2628  0.1088  0.0387
   8223SM   H6S10889   7.218   5.708  12.888  0.8069 -0.3573  0.1171
   8223SM   H6T10890   7.270   5.564  12.808  0.0508  1.1700 -0.5348
   8223SM   C7S10891   7.139   5.508  12.958  0.1087  0.4350 -0.8037
   8223SM   H7S10892   7.215   5.498  13.038 -0.7737  2.3179  0.3630
   8223SM   H7T10893   7.117   5.408  12.916 -1.2210  0.1619  0.4502
   8223SM   C8S10894   7.004   5.540  13.028  0.3925  0.0740 -0.8802
   8223SM   H8S10895   6.920   5.516  12.959  1.0157 -0.5003 -1.4580
   8223SM   H8T10896   7.018   5.650  13.039 -0.1892  0.1110 -0.4902
   8223SM   C9S10897   6.975   5.478  13.168 -0.7133 -0.6570 -0.2298
   8223SM   H9S10898   7.061   5.510  13.230  0.1254 -2.6090 -0.3236
   8223SM   H9T10899   6.983   5.368  13.160  1.3844 -0.6677  1.2244
   8223SM  C10S10900   6.843   5.526  13.228 -0.6520  0.5982  0.1835
   8223SM  H10S10901   6.767   5.492  13.154  2.1719 -1.6656 -1.8616
   8223SM  H10T10902   6.830   5.636  13.217  1.3628  0.8846  0.3467
   8223SM  C11S10903   6.806   5.473  13.369  0.0666  0.2831 -0.2723
   8223SM  H11S10904   6.695   5.472  13.378  0.1897  1.1007  1.8173
   8223SM  H11T10905   6.841   5.540  13.450 -0.8919 -0.0535  0.4452
   8223SM  C12S10906   6.860   5.335  13.413 -0.0871  0.3972  0.3265
   8223SM  H12S10907   6.969   5.350  13.423 -0.0513  0.1063  0.3988
   8223SM  H12T10908   6.826   5.260  13.338 -0.7663  0.8889  0.1348
   8223SM  C13S10909   6.804   5.285  13.548  0.2089  0.4415  0.1306
   8223SM  H13S10910   6.830   5.178  13.556 -0.9269  0.2656  2.2753
   8223SM  H13T10911   6.693   5.290  13.545  0.1135 -0.8232  0.8949
   8223SM  C14S10912   6.851   5.361  13.668 -0.1330 -0.1119 -0.3080
   8223SM  H14S10913   6.810   5.464  13.662 -0.2440 -0.0232  1.3426
   8223SM  H14T10914   6.961   5.371  13.683  0.2227 -1.9453 -1.4396
   8223SM  C15S10915   6.792   5.306  13.798 -0.1348 -0.2681 -0.2818
   8223SM  H15S10916   6.689   5.267  13.782 -0.3928  0.0344  0.5829
   8223SM  H15T10917   6.784   5.378  13.881  0.2823  1.0215 -1.3270
   8223SM  C16S10918   6.886   5.196  13.847  0.0910  0.7476 -0.2919
   8223SM  H16S10919   6.975   5.259  13.868  0.8589 -0.0020 -1.2111
   8223SM  H16T10920   6.911   5.120  13.770  0.5260  1.5667 -0.9705
   8223SM  C17S10921   6.827   5.132  13.980  0.1568 -0.0847  0.2739
   8223SM  H17S10922   6.727   5.088  13.958  0.0976  0.0369  0.3031
   8223SM  H17T10923   6.816   5.213  14.055 -1.9814 -0.3466  0.3060
   8223SM  C18S10924   6.920   5.022  14.028 -0.1481  0.1148 -0.2303
   8223SM  H18S10925   6.909   4.948  13.946 -0.4063  0.2123 -0.2876
   8223SM  H18T10926   6.880   4.990  14.126  1.3935  1.6458  0.9669
   8223SM  H18U10927   7.025   5.058  14.032  0.3559 -1.2645 -0.5542
   8223SM   C1F10928   6.858   5.255  12.571  0.0252  0.2050 -0.3542
   8223SM    OF10929   6.904   5.192  12.479  0.1525  0.8774 -0.1423
   8223SM   C2F10930   6.791   5.187  12.685 -0.7201 -0.1904  0.2225
   8223SM   H2F10931   6.829   5.084  12.706  0.7928  0.2153 -0.3595
   8223SM   H2G10932   6.681   5.194  12.670 -0.5430  2.5053 -0.2079
   8223SM   C3F10933   6.834   5.244  12.828 -0.2829 -0.5745  0.5524
   8223SM   H3F10934   6.810   5.352  12.836 -1.5375 -0.8457  0.6554
   8223SM   H3G10935   6.944   5.230  12.824  0.0591  1.9266 -0.9850
   8223SM   C4F10936   6.774   5.167  12.946 -0.4477  0.0811  0.1491
   8223SM   H4F10937   6.833   5.188  13.038 -2.0350  0.1827  1.1718
   8223SM   H4G10938   6.794   5.059  12.929  3.1537  0.2476  2.1549
   8223SM   C5F10939   6.623   5.188  12.965 -0.3241 -0.2889  0.3370
   8223SM   H5F10940   6.596   5.146  13.064 -1.0700 -2.3342 -0.6811
   8223SM   H5G10941   6.562   5.131  12.892 -1.6561 -1.2678  2.1283
   8223SM   C6F10942   6.576   5.335  12.960 -0.6955  0.3984 -0.6975
   8223SM   H6F10943   6.558   5.377  12.859  0.2147  1.6634 -0.3653
   8223SM   H6G10944   6.656   5.396  13.008 -1.0705 -0.7918  1.5752
   8223SM   C7F10945   6.457   5.362  13.038  0.3662  0.3107 -0.1457
   8223SM   H7F10946   6.465   5.327  13.143  0.2289 -0.7953 -0.4890
   8223SM   H7G10947   6.383   5.290  12.995  1.4822 -2.2497  1.9571
   8223SM   C8F10948   6.405   5.508  13.035  0.1103  0.0946  0.4948
   8223SM   H8F10949   6.317   5.510  12.967 -0.1067  2.5844  0.7434
   8223SM   H8G10950   6.481   5.576  12.990 -0.2388  0.8740  1.0614
   8223SM   C9F10951   6.363   5.562  13.179 -0.2841 -0.4494  0.3157
   8223SM   H9F10952   6.321   5.665  13.175 -2.0565 -1.1550 -0.0510
   8223SM   H9G10953   6.454   5.559  13.243 -1.0995  0.7439  1.5875
   8223SM  C10F10954   6.263   5.478  13.264 -0.0227  0.0691  0.3913
   8223SM  H10F10955   6.310   5.378  13.280  0.4997  0.0164 -1.2523
   8223SM  H10G10956   6.175   5.474  13.197  1.7300  0.8991 -2.1219
   8223SM  C11F10957   6.231   5.541  13.398  0.2153 -0.3173 -0.2547
   8223SM  H11F10958   6.178   5.636  13.377  0.1395 -0.4115 -0.4935
   8223SM  H11G10959   6.327   5.570  13.445  0.2357 -1.0018  0.1372
   8223SM  C12F10960   6.160   5.456  13.502 -0.0610 -0.3724 -0.5787
   8223SM  H12F10961   6.178   5.497  13.604 -0.6894  0.8828 -0.9453
   8223SM  H12G10962   6.208   5.356  13.505  0.4050 -0.1316  1.5229
   8223SM  C13F10963   6.017   5.437  13.487 -0.0651  0.4461  0.0189
   8223SM  H13F10964   5.986   5.405  13.385  0.5046 -0.0637  0.0008
   8223SM  H13G10965   5.966   5.534  13.504  2.5093  1.9394 -0.2996
   8223SM  C14F10966   5.959   5.349  13.598  0.2335  0.2493 -0.8557
   8223SM  H14F10967   6.018   5.368  13.691  1.9316  1.8126 -2.1791
   8223SM  H14G10968   5.978   5.242  13.574  0.0539 -0.2222  0.9230
   8223SM  C15F10969   5.810   5.376  13.624  0.4891  0.4785  0.1380
   8223SM  H15F10970   5.769   5.347  13.525  1.6341 -2.2874  0.4105
   8223SM  H15G10971   5.793   5.485  13.640 -0.9556  0.3739 -0.5431
   8223SM  C16F10972   5.752   5.284  13.736 -0.3747 -0.4145  0.3979
   8223SM  H16F10973   5.770   5.177  13.710 -1.9856 -0.5837 -0.1480
   8223SM  H16G10974   5.642   5.297  13.724  0.1220  2.3869 -2.7343
   8223SM  C17F10975   5.793   5.328  13.879 -0.3558 -0.7985  0.2153
   8223SM  H17F10976   5.751   5.430  13.888 -2.1920 -1.3793 -1.0177
   8223SM  H17G10977   5.904   5.330  13.886 -0.4213 -0.0451  1.2645
   8223SM  C18F10978   5.733   5.242  13.993  0.2283  0.9653 -0.5903
   8223SM  H18F10979   5.778   5.141  14.000 -0.3352  0.8393  2.5872
   8223SM  H18G10980   5.624   5.234  13.973  0.3380 -1.4991 -0.5102
   8223SM  C19F10981   5.754   5.293  14.136  0.0977 -0.0916  0.3341
   8223SM  H19F10982   5.722   5.399  14.143 -1.1367 -0.4430  0.1458
   8223SM  H19G10983   5.864   5.297  14.152  0.0124  1.0342  0.7154
   8223SM  C20F10984   5.689   5.212  14.245  0.1204 -0.1125 -0.0622
   8223SM  H20F10985   5.579   5.196  14.236 -0.1241  1.2730  0.3409
   8223SM  H20G10986   5.699   5.264  14.343 -0.8701 -2.3866  1.3377
   8223SM  C21F10987   5.755   5.075  14.256 -0.4912 -0.3161 -0.4302
   8223SM  H21F10988   5.864   5.081  14.234 -0.3724  4.1603  0.3967
   8223SM  H21G10989   5.700   5.004  14.191  0.5551 -1.4523 -0.1135
   8223SM  C22F10990   5.755   5.022  14.399  0.1031  0.7582  0.4164
   8223SM  H22F10991   5.791   5.105  14.464  3.6685 -1.3689  1.4245
   8223SM  H22G10992   5.833   4.944  14.396  0.5436  1.2172 -0.8649
   8223SM  C23F10993   5.617   4.971  14.438  0.7166 -0.2430  0.0571
   8223SM  H23F10994   5.558   5.060  14.469  1.6467  0.4548 -0.1246
   8223SM  H23G10995   5.627   4.890  14.513 -0.6259  0.5230  1.1193
   8223SM  H23H10996   5.563   4.936  14.347 -1.9048  2.7911  0.2795
   8323SM     N10997   7.727   5.154  12.163 -0.7066 -0.7582 -0.3046
   8323SM   C1510998   7.703   5.279  12.245  0.9384 -0.3427 -0.0748
   8323SM  H15A10999   7.716   5.374  12.194  1.4203 -1.1592 -1.5523
   8323SM  H15B11000   7.781   5.278  12.319  1.4525  1.0574 -0.5529
   8323SM  H15C11001   7.608   5.281  12.296  0.8926 -1.7137 -0.0819
   8323SM   C1411002   7.708   5.036  12.259  0.3704  0.2105 -0.7978
   8323SM  H14A11003   7.603   5.020  12.273  0.5223 -1.8490 -1.7204
   8323SM  H14B11004   7.767   5.046  12.348 -0.8160 -0.4870  0.0923
   8323SM  H14C11005   7.742   4.946  12.210  0.7826  0.7770 -1.5826
   8323SM   C1311006   7.629   5.141  12.054 -0.0392  0.5429  1.2008
   8323SM  H13A11007   7.649   5.055  11.993 -0.8805  0.9004  0.3987
   8323SM  H13B11008   7.652   5.222  11.986 -0.4674  0.9347  1.5148
   8323SM  H13C11009   7.525   5.131  12.083 -0.1897  0.0530  0.5296
   8323SM   C1211010   7.869   5.156  12.104 -0.1824  0.3249 -0.2015
   8323SM  H12A11011   7.873   5.220  12.017 -0.5006 -1.1647 -1.3549
   8323SM  H12B11012   7.888   5.056  12.067  0.3801  0.3773 -0.0744
   8323SM   C1111013   7.994   5.194  12.187 -0.4006  0.7826 -0.0907
   8323SM  H11A11014   7.991   5.305  12.188 -4.0048  1.0087 -4.7418
   8323SM  H11B11015   8.086   5.165  12.132 -1.0725  1.6952 -1.7347
   8323SM     P11016   8.100   5.173  12.416  0.1731 -0.3139  0.4673
   8323SM   O1311017   8.208   5.076  12.404 -0.0749 -0.2707 -0.3693
   8323SM   O1411018   8.142   5.314  12.388 -0.2060  1.0828 -0.4615
   8323SM   O1111019   8.035   5.177  12.558 -0.1725 -0.6221 -0.2581
   8323SM   O1211020   7.992   5.131  12.317 -0.2520 -0.6048  0.4178
   8323SM   C1S11021   7.898   5.199  12.586  0.0482 -0.1796  0.3869
   8323SM   H1S11022   7.837   5.106  12.583 -0.4591  0.1645 -1.4622
   8323SM   H1T11023   7.844   5.255  12.507 -0.3468  0.6830  1.2530
   8323SM    NF11024   7.727   5.282  12.756 -0.4238  0.1278 -0.0338
   8323SM   HNF11025   7.684   5.368  12.782 -0.7813 -0.0445 -0.0567
   8323SM   C2S11026   7.868   5.287  12.714 -0.0618  0.8643  0.1484
   8323SM   H2S11027   7.928   5.236  12.793  1.3214 -0.3150 -1.5783
   8323SM   C3S11028   7.932   5.429  12.709  0.2682 -0.9568  0.8940
   8323SM   H3S11029   7.880   5.484  12.628 -0.0185 -1.5534  0.6626
   8323SM    O311030   8.072   5.432  12.672 -0.1788  0.5629 -0.1683
   8323SM   HO311031   8.081   5.347  12.628  1.2312  1.5510 -1.9108
   8323SM   C4S11032   7.904   5.506  12.833 -0.4312 -0.8296 -0.3448
   8323SM   H4S11033   7.818   5.575  12.824 -0.7910 -1.0651  0.9929
   8323SM   C5S11034   7.969   5.495  12.949  0.2511  0.4505 -0.2384
   8323SM   H5S11035   8.046   5.417  12.957 -0.4384 -0.1637  0.7109
   8323SM   C6S11036   7.952   5.572  13.077  0.0840 -0.0220  0.3364
   8323SM   H6S11037   7.851   5.619  13.083  0.2868  0.4866 -0.2088
   8323SM   H6T11038   8.031   5.650  13.078 -1.1583  1.2810  0.5087
   8323SM   C7S11039   7.971   5.477  13.196 -0.1456  0.2139  0.1395
   8323SM   H7S11040   8.060   5.412  13.185 -0.7109 -0.8719  1.6241
   8323SM   H7T11041   7.878   5.416  13.195 -2.1766  3.0139  1.5249
   8323SM   C8S11042   7.973   5.545  13.329  0.5549 -0.0310  0.1238
   8323SM   H8S11043   7.883   5.611  13.334  0.7175  0.1303  1.1318
   8323SM   H8T11044   8.061   5.613  13.327  1.6400 -1.3399  1.1904
   8323SM   C9S11045   7.995   5.454  13.450  0.3701 -0.2269 -0.2978
   8323SM   H9S11046   8.100   5.457  13.484  0.6210  1.1107 -1.1262
   8323SM   H9T11047   7.976   5.352  13.410  1.0069  0.0163 -1.2535
   8323SM  C10S11048   7.896   5.498  13.559 -1.0655 -0.4027  0.2198
   8323SM  H10S11049   7.798   5.526  13.515 -1.1239 -0.8195  0.0808
   8323SM  H10T11050   7.946   5.586  13.604 -1.4012 -1.2095  2.2613
   8323SM  C11S11051   7.865   5.375  13.650  0.0205 -0.2080 -0.1102
   8323SM  H11S11052   7.958   5.326  13.685  0.5990  0.3925 -0.7631
   8323SM  H11T11053   7.825   5.293  13.587 -1.5085 -0.1228  0.6952
   8323SM  C12S11054   7.778   5.414  13.769 -0.7799  0.2251  0.4731
   8323SM  H12S11055   7.764   5.318  13.821 -1.3890 -0.3082 -0.6236
   8323SM  H12T11056   7.681   5.461  13.741 -1.2510 -1.1770 -0.3772
   8323SM  C13S11057   7.855   5.516  13.861 -0.1813  0.1545 -0.3570
   8323SM  H13S11058   7.859   5.618  13.817  0.3193  0.3923  0.2261
   8323SM  H13T11059   7.958   5.476  13.876  0.3316  1.0631 -1.2786
   8323SM  C14S11060   7.783   5.531  13.998 -0.3494 -0.4425  0.0189
   8323SM  H14S11061   7.800   5.438  14.056  1.6914  0.1299  0.4062
   8323SM  H14T11062   7.674   5.546  13.979 -0.6343 -0.6142  1.3915
   8323SM  C15S11063   7.834   5.656  14.081  0.1892  0.2079  0.3064
   8323SM  H15S11064   7.784   5.669  14.179 -0.7665 -0.9373 -0.0031
   8323SM  H15T11065   7.812   5.738  14.010 -2.5694 -1.0465 -0.4338
   8323SM  C16S11066   7.981   5.651  14.118 -0.4330  0.8155 -0.5571
   8323SM  H16S11067   8.040   5.661  14.025 -0.5145 -4.3490 -1.4727
   8323SM  H16T11068   8.019   5.557  14.164  1.5184  0.9681 -1.7282
   8323SM  C17S11069   8.021   5.755  14.221  0.0807  0.3929  1.1290
   8323SM  H17S11070   7.970   5.718  14.312 -0.4530  0.0558  0.6997
   8323SM  H17T11071   7.994   5.852  14.175 -1.0042 -1.0529 -1.5281
   8323SM  C18S11072   8.170   5.757  14.246  0.3855  0.0368  0.7845
   8323SM  H18S11073   8.204   5.655  14.275 -1.1271 -1.0163 -0.9131
   8323SM  H18T11074   8.193   5.820  14.335  0.0397  0.4406  0.5898
   8323SM  H18U11075   8.223   5.795  14.156  0.0083  0.9659  0.9512
   8323SM   C1F11076   7.663   5.171  12.781 -0.1282  0.1001 -0.3692
   8323SM    OF11077   7.716   5.055  12.771 -0.3555 -0.0349 -0.0441
   8323SM   C2F11078   7.525   5.188  12.833  0.0196  0.1172 -0.5507
   8323SM   H2F11079   7.481   5.267  12.769 -1.4372 -1.7168 -1.9196
   8323SM   H2G11080   7.521   5.202  12.943  1.7037  0.4269 -0.4941
   8323SM   C3F11081   7.439   5.071  12.788  0.7232 -0.6219  0.6839
   8323SM   H3F11082   7.493   4.978  12.814  1.1669 -0.2063  1.2896
   8323SM   H3G11083   7.420   5.068  12.679  0.1326 -1.1971  0.7955
   8323SM   C4F11084   7.304   5.090  12.860 -0.3440  0.4603  0.2462
   8323SM   H4F11085   7.270   5.195  12.852 -2.3574 -0.1531  0.1016
   8323SM   H4G11086   7.314   5.057  12.966  1.9715 -2.2810 -0.7006
   8323SM   C5F11087   7.190   4.996  12.798  0.2878 -1.3097 -0.0984
   8323SM   H5F11088   7.163   5.041  12.700 -2.9396  0.9797  1.6512
   8323SM   H5G11089   7.101   5.003  12.863  1.5149 -1.2916  1.6449
   8323SM   C6F11090   7.232   4.851  12.762 -0.3588 -1.5665 -0.4288
   8323SM   H6F11091   7.307   4.850  12.679 -1.5913 -1.1415 -1.5814
   8323SM   H6G11092   7.141   4.799  12.727 -1.0675  0.0035 -1.0379
   8323SM   C7F11093   7.293   4.795  12.884  0.4054  0.2876  0.3049
   8323SM   H7F11094   7.255   4.844  12.976  1.4730  1.3589  0.2040
   8323SM   H7G11095   7.401   4.822  12.883  0.3535  0.6981 -2.7475
   8323SM   C8F11096   7.290   4.639  12.904  0.6263 -0.1196  0.4103
   8323SM   H8F11097   7.357   4.607  12.822  0.2002  0.7598 -0.2990
   8323SM   H8G11098   7.187   4.600  12.887  0.1099  0.7341  1.4727
   8323SM   C9F11099   7.341   4.591  13.045 -0.0441  0.5236 -1.1324
   8323SM   H9F11100   7.291   4.659  13.117 -0.1749 -1.2688  0.5488
   8323SM   H9G11101   7.452   4.595  13.048 -0.0605  0.3692  1.3356
   8323SM  C10F11102   7.299   4.451  13.071  0.4736 -0.4333  0.0847
   8323SM  H10F11103   7.333   4.380  12.992  1.7629  1.0697 -0.7674
   8323SM  H10G11104   7.188   4.443  13.076  0.4428 -1.8100 -1.7519
   8323SM  C11F11105   7.351   4.406  13.204 -0.3436  0.2195 -0.2415
   8323SM  H11F11106   7.461   4.417  13.211 -0.3105 -0.8579  1.6926
   8323SM  H11G11107   7.336   4.296  13.217 -0.6785  0.2777 -0.1173
   8323SM  C12F11108   7.292   4.480  13.329  0.7827  0.4467  0.1375
   8323SM  H12F11109   7.233   4.406  13.387  0.4008 -1.0828 -2.0690
   8323SM  H12G11110   7.221   4.554  13.285 -0.9237 -1.6641 -0.8161
   8323SM  C13F11111   7.396   4.563  13.403 -0.0602  0.4710 -0.0034
   8323SM  H13F11112   7.455   4.623  13.331  2.1953  0.4832  1.7249
   8323SM  H13G11113   7.475   4.493  13.437  0.4404 -0.1614 -2.3126
   8323SM  C14F11114   7.337   4.679  13.488  0.1810 -0.1891 -0.3497
   8323SM  H14F11115   7.252   4.724  13.432 -0.1890  2.5656  2.2129
   8323SM  H14G11116   7.414   4.757  13.507 -1.1636  0.8283  1.0864
   8323SM  C15F11117   7.281   4.632  13.628  0.5994  0.4724  0.0028
   8323SM  H15F11118   7.230   4.535  13.607  0.7986  0.4191 -0.2377
   8323SM  H15G11119   7.202   4.700  13.668  1.8395  1.2898  1.1251
   8323SM  C16F11120   7.384   4.630  13.747 -0.3082  0.7137  0.5142
   8323SM  H16F11121   7.442   4.724  13.746  1.2002 -0.1528  2.3119
   8323SM  H16G11122   7.465   4.555  13.736 -1.5513 -0.5878 -0.1846
   8323SM  C17F11123   7.311   4.622  13.879 -0.3482 -0.5164  0.2079
   8323SM  H17F11124   7.255   4.527  13.885 -1.9724  0.4401  0.9680
   8323SM  H17G11125   7.223   4.690  13.875 -1.4521 -1.9349 -0.3959
   8323SM  C18F11126   7.387   4.661  14.005  0.2855  0.2699  0.3626
   8323SM  H18F11127   7.421   4.767  13.996 -0.7769  0.7419  1.5397
   8323SM  H18G11128   7.470   4.587  14.001 -0.6323 -0.7459 -0.3720
   8323SM  C19F11129   7.323   4.636  14.140  0.3336  0.4208  0.3784
   8323SM  H19F11130   7.229   4.697  14.137  1.0654  1.5578 -0.4958
   8323SM  H19G11131   7.394   4.652  14.224 -0.4028 -1.8509  1.4949
   8323SM  C20F11132   7.277   4.484  14.161 -0.8055  0.2471 -0.3541
   8323SM  H20F11133   7.361   4.426  14.117 -0.1549  0.4759  0.5757
   8323SM  H20G11134   7.192   4.453  14.097 -0.5644 -2.4018  0.4994
   8323SM  C21F11135   7.249   4.434  14.302  0.2296 -0.5345 -0.0833
   8323SM  H21F11136   7.346   4.444  14.355 -0.0509  2.5689  0.0539
   8323SM  H21G11137   7.217   4.328  14.306  1.0680 -0.7601  1.2131
   8323SM  C22F11138   7.151   4.519  14.382  0.7244  0.4567 -0.3066
   8323SM  H22F11139   7.053   4.514  14.329  0.9290 -0.1483 -0.6374
   8323SM  H22G11140   7.184   4.625  14.385 -0.3481  0.7784  1.0029
   8323SM  C23F11141   7.144   4.467  14.525 -0.2237  0.3169 -0.4467
   8323SM  H23F11142   7.100   4.365  14.526  1.0741 -0.3690 -3.1425
   8323SM  H23G11143   7.098   4.542  14.592 -0.5686  0.7322 -1.1390
   8323SM  H23H11144   7.248   4.455  14.563 -0.0332 -2.5382 -1.6748
   8423SM     N11145   5.847   2.010  12.278  0.0250 -0.3397  0.4071
   8423SM   C1511146   5.801   2.114  12.177 -0.2633 -0.2425 -0.1875
   8423SM  H15A11147   5.862   2.103  12.088 -0.0703 -1.2911  0.0579
   8423SM  H15B11148   5.817   2.213  12.218 -0.0389  0.3330 -1.5810
   8423SM  H15C11149   5.700   2.108  12.142  0.3800  1.1024 -2.4876
   8423SM   C1411150   5.840   1.868  12.229  0.7083 -0.0684  0.0397
   8423SM  H14A11151   5.739   1.850  12.195  0.7572 -3.8499  1.5180
   8423SM  H14B11152   5.867   1.804  12.312 -1.6466 -0.4345  0.5996
   8423SM  H14C11153   5.907   1.856  12.146  0.7178  0.7773 -0.0873
   8423SM   C1311154   5.993   2.039  12.291 -0.4680 -0.1873  0.1939
   8423SM  H13A11155   6.043   2.017  12.197  0.2060  0.3574  0.4173
   8423SM  H13B11156   6.035   1.967  12.360  2.2592  0.3651 -0.7835
   8423SM  H13C11157   6.012   2.143  12.310 -0.3223 -0.2112  0.1761
   8423SM   C1211158   5.775   2.026  12.409 -0.4587  0.1759  0.5206
   8423SM  H12A11159   5.793   1.943  12.475 -0.4577  1.0321  1.6299
   8423SM  H12B11160   5.671   2.015  12.381 -0.2287  0.3999 -0.4769
   8423SM   C1111161   5.802   2.156  12.486 -0.3638  0.0291 -0.2119
   8423SM  H11A11162   5.912   2.167  12.481 -0.3610 -0.0710 -0.3837
   8423SM  H11B11163   5.772   2.151  12.593  1.7047 -0.0571  0.3967
   8423SM     P11164   5.596   2.304  12.444 -0.0788 -0.2367  0.4414
   8423SM   O1311165   5.579   2.446  12.401  0.2357 -0.2518  0.1733
   8423SM   O1411166   5.508   2.213  12.366  0.1383  0.4185 -0.3303
   8423SM   O1111167   5.563   2.292  12.594 -0.5301 -0.0293 -0.1469
   8423SM   O1211168   5.747   2.271  12.418 -0.5443 -0.5558  0.3146
   8423SM   C1S11169   5.513   2.171  12.650  0.1163  0.8058  0.1690
   8423SM   H1S11170   5.577   2.085  12.622 -1.6491 -0.0771 -1.4075
   8423SM   H1T11171   5.409   2.150  12.616  1.3308  0.3334 -3.7141
   8423SM    NF11172   5.427   2.060  12.849 -0.4209  0.6241 -0.1865
   8423SM   HNF11173   5.335   2.076  12.882 -0.0802 -1.5292  2.0762
   8423SM   C2S11174   5.516   2.166  12.806  0.6585 -0.0990 -0.0166
   8423SM   H2S11175   5.620   2.139  12.835  1.1068  0.2727 -1.1965
   8423SM   C3S11176   5.482   2.304  12.857 -0.2635 -0.0268 -0.2882
   8423SM   H3S11177   5.394   2.355  12.813 -2.7895 -1.9479  2.1300
   8423SM    O311178   5.576   2.408  12.831  0.8727 -0.1046 -0.0341
   8423SM   HO311179   5.618   2.352  12.766  1.9040  0.6249 -0.0046
   8423SM   C4S11180   5.462   2.293  13.004  0.0067 -0.8124  0.4573
   8423SM   H4S11181   5.361   2.262  13.035 -0.2562  0.3138  0.7493
   8423SM   C5S11182   5.543   2.333  13.105 -0.2076 -0.2048  0.2593
   8423SM   H5S11183   5.638   2.386  13.089  0.6130 -1.7245 -0.0709
   8423SM   C6S11184   5.503   2.312  13.250  0.2216  0.4848  0.2543
   8423SM   H6S11185   5.557   2.224  13.293 -1.6438 -0.7377  0.2372
   8423SM   H6T11186   5.398   2.275  13.257  0.1787  0.7435  1.1975
   8423SM   C7S11187   5.517   2.427  13.346 -0.4676  0.2090 -0.5788
   8423SM   H7S11188   5.461   2.513  13.301 -0.9735  1.7178  2.6711
   8423SM   H7T11189   5.625   2.449  13.357 -0.5961  1.1144 -1.0033
   8423SM   C8S11190   5.449   2.395  13.481  0.4189 -0.2864 -0.2468
   8423SM   H8S11191   5.512   2.319  13.530 -0.5597  0.2584  1.9515
   8423SM   H8T11192   5.349   2.351  13.464  0.2928 -0.4550  0.8741
   8423SM   C9S11193   5.437   2.515  13.570  0.3100  0.1036  0.0932
   8423SM   H9S11194   5.396   2.596  13.506  0.0539 -0.0164  0.1039
   8423SM   H9T11195   5.536   2.560  13.595  0.2935  1.3791 -1.9811
   8423SM  C10S11196   5.346   2.493  13.698 -0.0084  0.5296 -0.1504
   8423SM  H10S11197   5.394   2.419  13.766  0.9405  0.8617 -0.4431
   8423SM  H10T11198   5.251   2.444  13.667 -0.2162  0.0078  1.2317
   8423SM  C11S11199   5.317   2.614  13.787  0.0419  0.2720 -0.0593
   8423SM  H11S11200   5.237   2.671  13.735 -0.3805 -1.1181 -1.0086
   8423SM  H11T11201   5.413   2.669  13.795  1.3436 -1.8082 -0.4010
   8423SM  C12S11202   5.259   2.593  13.919  0.1569 -0.4823 -0.1903
   8423SM  H12S11203   5.330   2.545  13.990 -2.4205 -1.8665  1.6253
   8423SM  H12T11204   5.173   2.523  13.909  0.2591 -0.3580 -2.2186
   8423SM  C13S11205   5.198   2.716  13.987 -0.2108 -0.0436  0.0655
   8423SM  H13S11206   5.111   2.743  13.924 -0.2390 -2.1812 -0.8738
   8423SM  H13T11207   5.261   2.806  14.002  0.9378 -0.8537  0.2293
   8423SM  C14S11208   5.142   2.676  14.124  0.1949  0.7627  0.1341
   8423SM  H14S11209   5.224   2.649  14.193 -0.8654 -0.3892  0.9911
   8423SM  H14T11210   5.080   2.585  14.103  0.2582  1.1170 -1.7508
   8423SM  C15S11211   5.047   2.784  14.172 -0.2944  0.3513  0.1289
   8423SM  H15S11212   4.957   2.775  14.108  1.5115 -1.6344 -2.3219
   8423SM  H15T11213   5.101   2.881  14.161  2.5198 -0.5735  3.8074
   8423SM  C16S11214   5.013   2.765  14.322  0.0371 -0.2692 -0.0373
   8423SM  H16S11215   4.995   2.656  14.325  0.6284 -0.4652 -1.9497
   8423SM  H16T11216   4.912   2.806  14.343 -1.1032 -2.4437 -1.0319
   8423SM  C17S11217   5.106   2.832  14.421 -0.2355 -0.0064  0.0109
   8423SM  H17S11218   5.110   2.939  14.394 -1.1678 -0.1536 -0.7716
   8423SM  H17T11219   5.211   2.797  14.408 -0.3590 -0.0385 -0.9462
   8423SM  C18S11220   5.055   2.822  14.570 -0.2955  0.0229  0.3249
   8423SM  H18S11221   4.947   2.846  14.583 -1.1475 -3.4298  0.6642
   8423SM  H18T11222   5.117   2.898  14.622 -2.1651  2.3472 -0.6377
   8423SM  H18U11223   5.074   2.721  14.613  1.0278 -1.1311 -2.6765
   8423SM   C1F11224   5.455   1.933  12.830  0.0675 -0.2387  0.2664
   8423SM    OF11225   5.557   1.905  12.772 -0.5986 -0.2595  0.6539
   8423SM   C2F11226   5.349   1.839  12.877 -0.1113 -0.5058 -0.4755
   8423SM   H2F11227   5.355   1.751  12.810  0.2492  0.2882 -1.5059
   8423SM   H2G11228   5.253   1.893  12.885  2.2109  3.9709  0.9407
   8423SM   C3F11229   5.398   1.795  13.015  0.2422  0.7241 -0.5706
   8423SM   H3F11230   5.372   1.875  13.087  0.8760 -0.2439  0.7777
   8423SM   H3G11231   5.508   1.778  13.015  0.4066  1.6673 -1.1654
   8423SM   C4F11232   5.333   1.661  13.067  0.6950 -0.2694  0.2343
   8423SM   H4F11233   5.359   1.593  12.983 -0.7368 -1.0214  0.3657
   8423SM   H4G11234   5.222   1.671  13.066  0.5871 -1.2767  1.0075
   8423SM   C5F11235   5.379   1.601  13.197  0.5012 -0.1590  0.4715
   8423SM   H5F11236   5.489   1.608  13.211  0.4629  3.7671  0.1081
   8423SM   H5G11237   5.353   1.493  13.200  1.0544 -0.3596 -0.9938
   8423SM   C6F11238   5.311   1.670  13.316  0.1427  0.7920  0.7112
   8423SM   H6F11239   5.201   1.663  13.302  0.3723 -1.7202 -0.1786
   8423SM   H6G11240   5.339   1.778  13.317  0.0845  0.8044  0.9369
   8423SM   C7F11241   5.341   1.612  13.452  0.2863  0.6973  0.7478
   8423SM   H7F11242   5.345   1.501  13.455 -0.1171  0.6891  0.9381
   8423SM   H7G11243   5.268   1.643  13.530  1.0749  1.9776  1.0134
   8423SM   C8F11244   5.477   1.651  13.499  0.8096  0.2681  0.4499
   8423SM   H8F11245   5.498   1.761  13.499  2.7176 -0.0496  0.6569
   8423SM   H8G11246   5.562   1.605  13.443  1.3582 -0.4729  1.8634
   8423SM   C9F11247   5.505   1.613  13.645 -0.3526 -1.3197 -0.7470
   8423SM   H9F11248   5.501   1.503  13.666 -1.0803 -1.5526 -2.0219
   8423SM   H9G11249   5.432   1.662  13.713  1.1480 -0.0597  0.0117
   8423SM  C10F11250   5.643   1.660  13.684 -0.4526  0.1656 -0.2237
   8423SM  H10F11251   5.668   1.760  13.643 -0.7911  1.0343  1.6149
   8423SM  H10G11252   5.713   1.591  13.632 -0.8379 -1.1080  0.9011
   8423SM  C11F11253   5.678   1.667  13.834 -0.3942  0.3737 -0.1498
   8423SM  H11F11254   5.591   1.652  13.902  0.8701  0.5391  1.5748
   8423SM  H11G11255   5.740   1.755  13.859  2.5737 -1.7913  0.6702
   8423SM  C12F11256   5.784   1.563  13.874  0.5023  0.9385 -0.5349
   8423SM  H12F11257   5.760   1.477  13.808  2.7072 -1.2617  1.3021
   8423SM  H12G11258   5.770   1.524  13.978  1.0992 -0.5470 -0.9763
   8423SM  C13F11259   5.937   1.606  13.854  0.3437  0.6299 -0.3018
   8423SM  H13F11260   5.964   1.693  13.918  0.4827  0.2706  0.1396
   8423SM  H13G11261   5.934   1.642  13.749 -2.6596  1.5954  0.0041
   8423SM  C14F11262   6.032   1.493  13.880  0.7726  0.7438  0.1597
   8423SM  H14F11263   6.005   1.414  13.807  2.3742 -0.0493  0.3811
   8423SM  H14G11264   6.023   1.461  13.986 -1.7348  2.1808  0.4482
   8423SM  C15F11265   6.176   1.524  13.832 -0.8062 -0.2856  0.3791
   8423SM  H15F11266   6.242   1.445  13.873 -0.7148  0.9274  2.7578
   8423SM  H15G11267   6.206   1.612  13.892 -1.1194  2.1709 -2.7958
   8423SM  C16F11268   6.210   1.570  13.690  0.1722 -0.2916  0.0742
   8423SM  H16F11269   6.318   1.558  13.670 -0.5009 -1.3691 -3.7782
   8423SM  H16G11270   6.179   1.676  13.683  0.1926 -0.3495 -0.9671
   8423SM  C17F11271   6.145   1.486  13.573  0.0232  0.2301  1.1271
   8423SM  H17F11272   6.035   1.495  13.579 -0.0876  0.3216 -0.5349
   8423SM  H17G11273   6.181   1.381  13.569 -0.9774 -0.0852 -0.7281
   8423SM  C18F11274   6.178   1.536  13.432  0.5390  0.5349  0.6023
   8423SM  H18F11275   6.284   1.511  13.409 -0.7708 -3.8853 -1.9754
   8423SM  H18G11276   6.153   1.644  13.435  0.4181  0.5601 -0.5679
   8423SM  C19F11277   6.096   1.468  13.318 -0.3555  0.1433 -0.5170
   8423SM  H19F11278   6.083   1.359  13.330  3.4841 -0.5337 -1.2498
   8423SM  H19G11279   6.169   1.473  13.234  1.3856 -2.1771  0.7430
   8423SM  C20F11280   5.961   1.545  13.301 -0.2585 -0.3211  0.6951
   8423SM  H20F11281   5.983   1.651  13.327 -2.0691  0.3829 -0.4705
   8423SM  H20G11282   5.881   1.514  13.372 -2.1812  0.1003 -1.1749
   8423SM  C21F11283   5.898   1.530  13.163 -1.0196  0.4504 -0.1861
   8423SM  H21F11284   5.908   1.423  13.137  0.8283  0.7705 -0.9462
   8423SM  H21G11285   5.968   1.588  13.099  2.8376  0.1939  3.3727
   8423SM  C22F11286   5.757   1.556  13.145 -0.0008  0.0219  0.7902
   8423SM  H22F11287   5.731   1.659  13.178  1.1086  0.4545  0.3774
   8423SM  H22G11288   5.688   1.481  13.187  0.6334 -1.0444  0.0019
   8423SM  C23F11289   5.722   1.567  12.999  0.1392 -0.0631 -0.3362
   8423SM  H23F11290   5.765   1.484  12.938  2.1653  1.4287 -1.0883
   8423SM  H23G11291   5.769   1.660  12.958 -2.5499  1.6121  0.1881
   8423SM  H23H11292   5.614   1.570  12.973  0.3472  1.8668 -1.1474
   8523SM     N11293   6.781   3.865  11.682 -0.2540 -0.1399  0.1330
   8523SM   C1511294   6.890   3.971  11.683  0.4778  0.1375  0.5635
   8523SM  H15A11295   6.863   4.072  11.707 -1.5316  0.0773 -1.2035
   8523SM  H15B11296   6.920   3.980  11.580 -1.0900  2.7115  0.2591
   8523SM  H15C11297   6.984   3.943  11.730  1.3933  1.7291 -0.2543
   8523SM   C1411298   6.659   3.916  11.602  0.3239 -0.8684  0.5572
   8523SM  H14A11299   6.668   3.917  11.494 -0.5165 -0.6822  0.4816
   8523SM  H14B11300   6.641   4.020  11.625  1.1286 -0.5191 -0.3118
   8523SM  H14C11301   6.570   3.859  11.625  0.5859 -0.5617  2.5403
   8523SM   C1311302   6.837   3.742  11.628 -0.2153  0.1286 -0.4196
   8523SM  H13A11303   6.882   3.753  11.531  0.1947 -0.3538 -0.2872
   8523SM  H13B11304   6.770   3.658  11.628  2.2134 -1.9584  1.0757
   8523SM  H13C11305   6.920   3.704  11.686 -0.8877 -2.6931 -1.1598
   8523SM   C1211306   6.739   3.852  11.832 -0.3693 -0.5811  0.4170
   8523SM  H12A11307   6.644   3.801  11.841 -0.6511  0.2447  2.9663
   8523SM  H12B11308   6.719   3.950  11.873  1.4232  0.4927 -1.1144
   8523SM   C1111309   6.834   3.771  11.930 -0.1272  0.0456 -0.1581
   8523SM  H11A11310   6.795   3.792  12.032 -3.1759  1.3115 -1.4273
   8523SM  H11B11311   6.938   3.808  11.923  0.1114 -0.7687 -1.1212
   8523SM     P11312   6.709   3.538  11.954  0.0891 -0.4627  0.2338
   8523SM   O1311313   6.593   3.547  11.864  0.3618 -0.1017 -0.0377
   8523SM   O1411314   6.777   3.405  11.958 -0.3412 -0.1587  0.4350
   8523SM   O1111315   6.669   3.598  12.098 -0.1991 -0.4644  0.2987
   8523SM   O1211316   6.820   3.636  11.900  0.0611  0.1464 -0.1274
   8523SM   C1S11317   6.733   3.538  12.207 -0.1001  0.0130 -0.1717
   8523SM   H1S11318   6.844   3.538  12.209  0.0357  0.3803 -3.3594
   8523SM   H1T11319   6.689   3.436  12.217 -0.3838  0.2274  0.9870
   8523SM    NF11320   6.761   3.527  12.450  0.3423 -0.0601  0.0110
   8523SM   HNF11321   6.732   3.438  12.485  0.6329 -0.1390  0.0576
   8523SM   C2S11322   6.693   3.594  12.340  0.4753 -0.7373 -0.2158
   8523SM   H2S11323   6.723   3.700  12.331 -0.0753 -0.1807  3.1836
   8523SM   C3S11324   6.538   3.587  12.357 -0.0425 -0.4187  0.1597
   8523SM   H3S11325   6.504   3.483  12.375 -2.7736  0.8291  2.9862
   8523SM    O311326   6.470   3.640  12.240  0.0297 -0.4977  0.2787
   8523SM   HO311327   6.545   3.652  12.180  0.7840 -0.9370  1.1162
   8523SM   C4S11328   6.481   3.655  12.489 -0.2940 -0.1558 -0.4460
   8523SM   H4S11329   6.464   3.591  12.577 -0.9920  0.8737  0.1867
   8523SM   C5S11330   6.428   3.778  12.503  0.0475 -0.7668 -0.0464
   8523SM   H5S11331   6.418   3.845  12.417  0.3111 -0.4492  0.1655
   8523SM   C6S11332   6.355   3.825  12.628 -0.1069  0.5765 -0.6618
   8523SM   H6S11333   6.310   3.741  12.686 -0.0456  0.3658 -0.9215
   8523SM   H6T11334   6.265   3.886  12.604 -0.1947  0.4844 -0.5724
   8523SM   C7S11335   6.445   3.906  12.721 -0.1430 -0.1816 -0.0712
   8523SM   H7S11336   6.477   3.992  12.658 -0.9754 -0.4546 -0.8911
   8523SM   H7T11337   6.535   3.849  12.752 -0.5803 -0.7249  0.2222
   8523SM   C8S11338   6.379   3.980  12.836 -0.3516 -0.2694 -0.5677
   8523SM   H8S11339   6.288   4.032  12.799  0.3570  0.0529 -1.9247
   8523SM   H8T11340   6.446   4.059  12.874  2.3409 -1.6569 -2.1382
   8523SM   C9S11341   6.322   3.887  12.941  0.3288 -0.1812 -0.2632
   8523SM   H9S11342   6.388   3.800  12.960  0.0708 -0.3323 -0.0574
   8523SM   H9T11343   6.220   3.852  12.912  0.5413 -1.7918  0.8188
   8523SM  C10S11344   6.299   3.962  13.074  0.3862  0.3246  0.0034
   8523SM  H10S11345   6.222   4.037  13.049 -0.2167  0.8425  3.0008
   8523SM  H10T11346   6.393   4.007  13.115  1.1021 -0.3915 -0.8060
   8523SM  C11S11347   6.245   3.865  13.181 -0.0256 -0.8324 -0.3500
   8523SM  H11S11348   6.318   3.783  13.198  0.6949 -0.2777 -0.6802
   8523SM  H11T11349   6.148   3.818  13.155 -0.2201 -0.5090 -0.2184
   8523SM  C12S11350   6.229   3.939  13.312  0.6512  0.0119 -0.0405
   8523SM  H12S11351   6.137   4.001  13.303  0.9428  0.1616 -2.5062
   8523SM  H12T11352   6.316   3.998  13.350  1.9526 -1.6941 -0.2554
   8523SM  C13S11353   6.200   3.831  13.426  0.4723 -0.6797 -0.0418
   8523SM  H13S11354   6.275   3.750  13.421  2.1248  0.7306  0.9207
   8523SM  H13T11355   6.095   3.795  13.417 -0.3542 -0.0223  4.5218
   8523SM  C14S11356   6.199   3.902  13.564  0.4178  0.5679 -0.3490
   8523SM  H14S11357   6.122   3.980  13.547 -0.6086 -0.1704  0.7846
   8523SM  H14T11358   6.299   3.951  13.574  0.6528 -0.1029  0.7664
   8523SM  C15S11359   6.174   3.812  13.679 -0.5452 -0.0297  0.0704
   8523SM  H15S11360   6.267   3.754  13.696 -0.2940  0.0507 -0.9400
   8523SM  H15T11361   6.102   3.735  13.644  1.8101 -2.7181  0.7549
   8523SM  C16S11362   6.112   3.883  13.798 -0.4634 -0.8445  0.2588
   8523SM  H16S11363   6.017   3.934  13.767 -1.2593 -3.2298 -1.5408
   8523SM  H16T11364   6.175   3.963  13.842  0.2061 -0.7057 -0.9078
   8523SM  C17S11365   6.088   3.797  13.918  0.3380  0.0896  0.0165
   8523SM  H17S11366   6.187   3.759  13.952  0.9484  0.8790 -0.8327
   8523SM  H17T11367   6.040   3.703  13.885  0.0274 -1.0183  3.2253
   8523SM  C18S11368   6.001   3.856  14.033  0.1983  0.4790  0.0193
   8523SM  H18S11369   5.987   3.792  14.124  1.1787  0.8425  0.4391
   8523SM  H18T11370   5.899   3.882  13.997 -0.5518  1.6575  2.7045
   8523SM  H18U11371   6.043   3.949  14.078  1.4249 -0.8174  1.7262
   8523SM   C1F11372   6.882   3.571  12.486  0.4227  0.0653 -0.3455
   8523SM    OF11373   6.924   3.682  12.441  0.1863  0.8995 -0.3891
   8523SM   C2F11374   6.967   3.487  12.575 -0.9506  0.2971 -0.6318
   8523SM   H2F11375   7.053   3.459  12.510 -0.4243  0.7572 -0.1442
   8523SM   H2G11376   6.914   3.394  12.604  0.8176  0.5355  4.2885
   8523SM   C3F11377   6.995   3.555  12.709  0.8313 -0.6509 -0.4789
   8523SM   H3F11378   7.032   3.657  12.687  1.7898 -1.1796 -1.4463
   8523SM   H3G11379   7.076   3.495  12.755  1.3599  1.1040  0.9923
   8523SM   C4F11380   6.866   3.569  12.799 -0.3238 -0.7273  0.2279
   8523SM   H4F11381   6.852   3.467  12.841 -1.0787 -0.1387  1.4415
   8523SM   H4G11382   6.777   3.594  12.738 -0.8033 -1.7496  0.4912
   8523SM   C5F11383   6.860   3.669  12.919  0.0358 -0.2103  0.5126
   8523SM   H5F11384   6.843   3.769  12.873 -1.2364 -0.6607 -0.0293
   8523SM   H5G11385   6.950   3.671  12.984 -0.4354  1.0164  1.1537
   8523SM   C6F11386   6.732   3.638  13.001  0.4413 -0.5910  0.4231
   8523SM   H6F11387   6.737   3.528  13.009  2.8042 -0.5325  0.3309
   8523SM   H6G11388   6.639   3.662  12.945  0.8000 -2.0879 -0.8596
   8523SM   C7F11389   6.710   3.708  13.134  0.4740 -0.1609 -0.1243
   8523SM   H7F11390   6.806   3.714  13.190 -0.9557  0.0500  2.4996
   8523SM   H7G11391   6.645   3.646  13.200  1.4572 -1.8091 -0.6582
   8523SM   C8F11392   6.663   3.848  13.123 -0.2289 -0.3360 -0.7684
   8523SM   H8F11393   6.570   3.854  13.063 -0.1196  1.1931 -0.8248
   8523SM   H8G11394   6.747   3.905  13.078 -0.9451  0.3652 -1.2306
   8523SM   C9F11395   6.627   3.920  13.258  0.2705  0.1938  0.3809
   8523SM   H9F11396   6.535   3.881  13.308  0.3670  0.3846  0.7121
   8523SM   H9G11397   6.597   4.023  13.230  1.3221 -0.0057 -1.6409
   8523SM  C10F11398   6.741   3.937  13.361 -0.2636 -0.5257 -0.1571
   8523SM  H10F11399   6.817   4.001  13.312  0.7218 -1.7423 -0.2819
   8523SM  H10G11400   6.789   3.837  13.377  2.1486  0.6118  0.1683
   8523SM  C11F11401   6.692   3.998  13.501  0.3283  0.3231  0.5389
   8523SM  H11F11402   6.645   4.097  13.484  0.9103  0.7291  1.2655
   8523SM  H11G11403   6.787   4.020  13.553  1.0908  0.2522 -0.7702
   8523SM  C12F11404   6.613   3.910  13.597  0.2220  0.2393  0.6551
   8523SM  H12F11405   6.652   3.807  13.581 -0.7104  0.2075 -2.0336
   8523SM  H12G11406   6.509   3.907  13.559  0.4725 -0.4603 -0.0290
   8523SM  C13F11407   6.614   3.962  13.743  0.7253 -0.0017  0.3569
   8523SM  H13F11408   6.599   4.071  13.752  1.9692  0.2855 -0.6854
   8523SM  H13G11409   6.713   3.944  13.791  1.2152  2.0485  0.1810
   8523SM  C14F11410   6.516   3.881  13.827 -0.1794  0.1539 -0.3154
   8523SM  H14F11411   6.552   3.779  13.803  2.7185  0.6630  1.4165
   8523SM  H14G11412   6.419   3.920  13.788  0.1839  3.0973  1.4781
   8523SM  C15F11413   6.522   3.901  13.981 -0.0660 -0.0155  0.0992
   8523SM  H15F11414   6.612   3.854  14.028  0.1724 -0.2936 -0.6210
   8523SM  H15G11415   6.428   3.847  14.003  0.1620 -0.6579 -0.4534
   8523SM  C16F11416   6.502   4.048  14.018 -0.0089 -0.0506 -0.1480
   8523SM  H16F11417   6.427   4.091  13.948  0.2622 -1.5270 -1.4046
   8523SM  H16G11418   6.595   4.104  13.996 -0.1187  0.2938  0.2410
   8523SM  C17F11419   6.477   4.065  14.169  0.1456  0.1577  0.1189
   8523SM  H17F11420   6.501   4.171  14.194  3.4909  0.5118 -3.6198
   8523SM  H17G11421   6.553   4.009  14.226  0.3588  0.9340  0.6211
   8523SM  C18F11422   6.342   4.031  14.219  0.2614  0.2195  0.1668
   8523SM  H18F11423   6.314   3.924  14.207  1.8472 -0.5872  2.7862
   8523SM  H18G11424   6.266   4.090  14.163 -0.0691 -1.3806 -1.1495
   8523SM  C19F11425   6.314   4.072  14.368  0.0551 -0.5363  0.3501
   8523SM  H19F11426   6.393   4.024  14.431 -0.2743 -0.7459  0.6087
   8523SM  H19G11427   6.217   4.028  14.399 -1.3175  0.9179 -1.6942
   8523SM  C20F11428   6.319   4.224  14.400 -1.0611 -0.1172  1.0625
   8523SM  H20F11429   6.271   4.289  14.324  1.2639  0.0121 -0.3976
   8523SM  H20G11430   6.427   4.249  14.393 -1.4082  1.6868  1.5286
   8523SM  C21F11431   6.281   4.258  14.544  0.7571 -0.8495 -0.3269
   8523SM  H21F11432   6.328   4.188  14.616 -0.8971  0.1809  1.8487
   8523SM  H21G11433   6.170   4.249  14.550  0.7191  0.4771  1.7277
   8523SM  C22F11434   6.326   4.399  14.582  0.0122  0.0071 -0.9846
   8523SM  H22F11435   6.434   4.421  14.570 -0.4726  3.4989  0.0055
   8523SM  H22G11436   6.301   4.411  14.690 -1.3682  1.8626 -1.4563
   8523SM  C23F11437   6.255   4.508  14.498 -0.3537  0.3349 -0.1944
   8523SM  H23F11438   6.302   4.512  14.398 -0.6417  0.0875 -0.3395
   8523SM  H23G11439   6.262   4.603  14.555  1.2386 -0.3773  0.8940
   8523SM  H23H11440   6.150   4.474  14.491  0.5128 -2.5913 -0.6766
   8623SM     N11441   5.141   2.608  12.501 -0.0438  0.2512  0.1047
   8623SM   C1511442   5.167   2.754  12.511 -0.1164 -0.1544  0.0410
   8623SM  H15A11443   5.143   2.804  12.418  0.5548  0.7929  0.3562
   8623SM  H15B11444   5.265   2.783  12.547 -0.1196  0.8435 -0.7155
   8623SM  H15C11445   5.099   2.810  12.574  3.5545  1.1577  3.2421
   8623SM   C1411446   5.001   2.588  12.457 -0.0098  0.3325  0.2526
   8623SM  H14A11447   4.985   2.587  12.350  1.3432  0.2920  0.0374
   8623SM  H14B11448   4.943   2.669  12.499  0.1843 -0.1073  1.4085
   8623SM  H14C11449   4.965   2.492  12.493 -1.0622  1.2265  1.7211
   8623SM   C1311450   5.232   2.556  12.394 -0.0441  0.4878  0.2758
   8623SM  H13A11451   5.330   2.559  12.439  0.6541  1.2601 -1.1949
   8623SM  H13B11452   5.228   2.623  12.309  2.5673  1.1568  0.5836
   8623SM  H13C11453   5.213   2.455  12.361  0.6195 -0.5762  2.9419
   8623SM   C1211454   5.157   2.544  12.638 -0.0433  0.0996  0.6582
   8623SM  H12A11455   5.084   2.597  12.697 -1.4891  1.2879 -2.0320
   8623SM  H12B11456   5.256   2.582  12.662  0.5482 -0.9136 -0.0562
   8623SM   C1111457   5.151   2.394  12.663  0.7513  0.8920  0.1545
   8623SM  H11A11458   5.173   2.379  12.771  0.4910 -2.2046 -0.1316
   8623SM  H11B11459   5.229   2.351  12.596 -0.7899 -0.7244 -0.6728
   8623SM     P11460   4.998   2.201  12.594  0.4220  0.0746  0.1778
   8623SM   O1311461   4.861   2.183  12.536 -0.3293 -0.1936  0.4737
   8623SM   O1411462   5.106   2.148  12.512 -0.7818  0.1135 -0.3266
   8623SM   O1111463   4.998   2.138  12.737 -0.6892 -0.0826  0.0411
   8623SM   O1211464   5.019   2.354  12.633  0.2101  0.1927 -0.4128
   8623SM   C1S11465   4.877   2.150  12.828 -0.5752 -0.2274 -0.5409
   8623SM   H1S11466   4.794   2.096  12.778 -0.5099 -1.7610  0.9281
   8623SM   H1T11467   4.861   2.258  12.847  0.3429 -0.4118  1.5411
   8623SM    NF11468   4.788   2.120  13.045 -0.0569  0.1900 -0.4089
   8623SM   HNF11469   4.792   2.201  13.102 -0.3449 -0.3234  0.3457
   8623SM   C2S11470   4.906   2.089  12.964  0.4306 -0.0320  0.2393
   8623SM   H2S11471   4.912   1.980  12.945  0.8145 -0.5434  2.9216
   8623SM   C3S11472   5.033   2.151  13.017  0.1274 -0.7588  0.7523
   8623SM   H3S11473   5.014   2.259  13.003  0.5205 -0.9905 -2.5635
   8623SM    O311474   5.153   2.129  12.940 -0.1004 -0.2223 -0.6867
   8623SM   HO311475   5.119   2.111  12.853 -1.6076  1.1079 -0.4202
   8623SM   C4S11476   5.043   2.121  13.164 -0.0857  0.2348 -0.5001
   8623SM   H4S11477   4.971   2.168  13.232 -1.1275 -0.8308 -0.8139
   8623SM   C5S11478   5.111   2.014  13.211 -0.1514 -0.6556 -0.2813
   8623SM   H5S11479   5.182   1.956  13.150  2.0168  1.4915  0.0777
   8623SM   C6S11480   5.115   1.981  13.359 -0.0718 -0.5313  1.2630
   8623SM   H6S11481   5.102   1.873  13.382  1.1041 -1.0875 -0.4702
   8623SM   H6T11482   5.036   2.035  13.416 -0.9624 -1.1504  0.6344
   8623SM   C7S11483   5.256   2.040  13.404 -0.5470 -0.9312  0.2838
   8623SM   H7S11484   5.249   2.150  13.390 -1.5299 -1.1253 -0.8242
   8623SM   H7T11485   5.338   2.016  13.333 -0.5788  0.4106 -0.2349
   8623SM   C8S11486   5.295   2.012  13.547  0.9535  0.7147 -0.1174
   8623SM   H8S11487   5.383   2.078  13.566  1.1849  0.8188 -1.4681
   8623SM   H8T11488   5.339   1.910  13.549  0.0418  0.3000  1.7035
   8623SM   C9S11489   5.178   2.011  13.649  0.4405  0.0962  0.7825
   8623SM   H9S11490   5.230   1.975  13.740 -0.7007 -0.0691  1.3896
   8623SM   H9T11491   5.100   1.940  13.613  1.1257  0.4597 -1.6105
   8623SM  C10S11492   5.121   2.150  13.664  0.5395 -0.0840 -0.0035
   8623SM  H10S11493   5.041   2.166  13.588  1.2170  0.5500 -0.6006
   8623SM  H10T11494   5.193   2.224  13.623  2.1712 -2.5186 -1.8165
   8623SM  C11S11495   5.048   2.182  13.793  0.4082  0.1756 -0.0170
   8623SM  H11S11496   5.121   2.183  13.876  1.5765  1.8052 -1.0063
   8623SM  H11T11497   4.966   2.109  13.810  0.5419  0.4511  2.0923
   8623SM  C12S11498   4.974   2.321  13.789 -0.2899 -0.2388 -0.1957
   8623SM  H12S11499   4.895   2.321  13.711 -0.4222  1.0865 -0.0867
   8623SM  H12T11500   5.042   2.399  13.749 -1.2427 -0.2899 -1.9859
   8623SM  C13S11501   4.903   2.369  13.923  0.4271 -0.1616  0.0209
   8623SM  H13S11502   4.968   2.360  14.012  1.4940 -4.4203 -0.9843
   8623SM  H13T11503   4.818   2.300  13.944  0.3249  0.0530  0.3168
   8623SM  C14S11504   4.850   2.516  13.915 -0.2071  0.1859 -0.1263
   8623SM  H14S11505   4.800   2.532  13.817  0.3035  2.1004 -0.1093
   8623SM  H14T11506   4.943   2.577  13.917  0.6918 -1.1189  2.0902
   8623SM  C15S11507   4.750   2.556  14.028 -0.0356  0.4076 -0.5638
   8623SM  H15S11508   4.800   2.535  14.125 -1.1939  1.2114  0.2365
   8623SM  H15T11509   4.662   2.488  14.020  0.6620 -1.0322  2.5588
   8623SM  C16S11510   4.695   2.703  14.028 -0.6131  0.6528 -0.0152
   8623SM  H16S11511   4.629   2.729  13.942  0.2893  0.9860 -0.6166
   8623SM  H16T11512   4.773   2.782  14.029  0.2538 -0.1880  0.2188
   8623SM  C17S11513   4.605   2.729  14.142  0.2321  0.6704 -0.6023
   8623SM  H17S11514   4.638   2.673  14.232 -3.1862  1.1490  1.1028
   8623SM  H17T11515   4.502   2.690  14.124 -0.9049  2.1316  2.1719
   8623SM  C18S11516   4.593   2.879  14.174  0.5938 -0.5809 -0.1771
   8623SM  H18S11517   4.688   2.923  14.212 -1.4103  3.4477  0.7287
   8623SM  H18T11518   4.514   2.915  14.244  3.0634  3.0491  1.0487
   8623SM  H18U11519   4.563   2.932  14.081 -0.3111 -2.3999 -0.9946
   8623SM   C1F11520   4.677   2.057  13.042  0.1264  0.3895  0.0595
   8623SM    OF11521   4.666   1.954  12.974  0.5859 -0.7353  0.4556
   8623SM   C2F11522   4.572   2.111  13.138  0.2107  0.5394  0.7432
   8623SM   H2F11523   4.480   2.132  13.079  0.2098 -3.4564 -0.9892
   8623SM   H2G11524   4.621   2.195  13.191  1.8471  2.1497 -2.9922
   8623SM   C3F11525   4.531   2.005  13.244  0.1922 -0.2805 -0.0668
   8623SM   H3F11526   4.475   1.931  13.183  2.0332 -1.7918 -0.0505
   8623SM   H3G11527   4.463   2.052  13.317  0.0909  1.9463 -1.4943
   8623SM   C4F11528   4.644   1.936  13.323 -0.2987 -0.1140 -0.5088
   8623SM   H4F11529   4.732   1.909  13.261  3.4730  1.8735  3.4653
   8623SM   H4G11530   4.605   1.849  13.380  1.6955 -0.1840  0.8782
   8623SM   C5F11531   4.688   2.031  13.440 -0.0801  0.2855 -0.0059
   8623SM   H5F11532   4.600   2.069  13.496  0.2407 -1.6955  1.9517
   8623SM   H5G11533   4.751   2.113  13.398 -1.7859  1.7056  0.0422
   8623SM   C6F11534   4.782   1.960  13.537  0.2987  0.0481 -0.3298
   8623SM   H6F11535   4.863   2.024  13.578  1.8837 -1.2665 -1.2974
   8623SM   H6G11536   4.841   1.881  13.485  0.1510 -1.1911  1.3424
   8623SM   C7F11537   4.712   1.892  13.662  0.2119  0.6458 -0.2602
   8623SM   H7F11538   4.627   1.827  13.631 -0.1555  0.6819  0.6625
   8623SM   H7G11539   4.675   1.963  13.739  2.9815 -1.0348  2.8997
   8623SM   C8F11540   4.822   1.811  13.738 -0.0250 -0.0391 -0.1024
   8623SM   H8F11541   4.893   1.879  13.790  0.0219  0.5257 -0.8840
   8623SM   H8G11542   4.895   1.770  13.665  2.5574  1.5253  1.4477
   8623SM   C9F11543   4.762   1.714  13.836 -0.7253  0.2131 -0.3574
   8623SM   H9F11544   4.849   1.664  13.884  0.3050  1.9529 -0.3275
   8623SM   H9G11545   4.693   1.643  13.786 -2.2925  1.0903  0.4932
   8623SM  C10F11546   4.691   1.773  13.960  0.0814 -0.5653  0.1939
   8623SM  H10F11547   4.605   1.827  13.915 -1.2338 -1.9792  0.9099
   8623SM  H10G11548   4.762   1.839  14.014 -0.2402 -1.4082  1.6784
   8623SM  C11F11549   4.646   1.673  14.068 -0.2027 -0.3552  0.2592
   8623SM  H11F11550   4.729   1.617  14.116 -0.3103 -0.7043  0.0443
   8623SM  H11G11551   4.578   1.602  14.016  1.3309 -0.3966 -1.8039
   8623SM  C12F11552   4.567   1.744  14.179 -0.2946  0.3082  0.3100
   8623SM  H12F11553   4.512   1.830  14.136  0.1324  1.6747  2.3304
   8623SM  H12G11554   4.637   1.793  14.250  1.0550 -1.1701  0.0720
   8623SM  C13F11555   4.479   1.660  14.261  0.9110 -0.3636 -0.0766
   8623SM  H13F11556   4.439   1.575  14.201 -0.3489  0.8538 -1.0393
   8623SM  H13G11557   4.398   1.720  14.307  2.8160  2.7768 -0.5934
   8623SM  C14F11558   4.549   1.603  14.380  0.3468  0.1061 -0.8843
   8623SM  H14F11559   4.605   1.678  14.440 -1.7947 -0.4120  2.0137
   8623SM  H14G11560   4.627   1.530  14.349  0.6658 -0.6670  1.4854
   8623SM  C15F11561   4.448   1.532  14.471  0.1034  0.1073 -0.3775
   8623SM  H15F11562   4.417   1.441  14.415  0.3976 -0.8632  0.9928
   8623SM  H15G11563   4.352   1.586  14.488 -0.4828 -0.8389 -0.5977
   8623SM  C16F11564   4.504   1.499  14.616  0.1893  0.4086  0.3770
   8623SM  H16F11565   4.530   1.599  14.656  0.0262  1.0492 -1.0660
   8623SM  H16G11566   4.597   1.439  14.610 -0.0016  0.2831 -2.5842
   8623SM  C17F11567   4.401   1.439  14.717 -0.5984 -0.2885 -0.5154
   8623SM  H17F11568   4.351   1.350  14.672  0.1043 -0.0577 -1.8101
   8623SM  H17G11569   4.316   1.510  14.725 -1.1538 -0.9531 -0.4044
   8623SM  C18F11570   4.474   1.408  14.847  0.5665  0.4047  0.0384
   8623SM  H18F11571   4.477   1.504  14.903 -1.0332  1.2121 -1.1634
   8623SM  H18G11572   4.578   1.382  14.816  0.6692  0.0259  0.6954
   8623SM  C19F11573   4.401   1.301  14.930  0.1048 -0.2460  0.1047
   8623SM  H19F11574   4.415   1.206  14.873  0.7768 -0.1466  0.1004
   8623SM  H19G11575   4.292   1.325  14.929  0.2625  0.7454  2.1422
   8623SM  C20F11576   4.451   1.288  15.077 -0.2477  0.4760 -0.2101
   8623SM  H20F11577   4.441   1.382  15.135 -2.7286  0.2863 -0.2558
   8623SM  H20G11578   4.559   1.260  15.072 -0.3991 -0.1295 -0.1359
   8623SM  C21F11579   4.384   1.173  15.150  1.0727 -0.5505  0.2315
   8623SM  H21F11580   4.409   1.086  15.085  0.1237 -0.7147  0.0731
   8623SM  H21G11581   4.276   1.196  15.152  1.1487 -0.0963 -0.4248
   8623SM  C22F11582   4.436   1.164  15.295  0.2133 -0.1509 -0.2006
   8623SM  H22F11583   4.438   1.268  15.334 -0.8416  0.1151 -0.7991
   8623SM  H22G11584   4.536   1.118  15.300  0.2327 -0.2595 -1.3998
   8623SM  C23F11585   4.340   1.074  15.378  0.3032  0.0615  0.6002
   8623SM  H23F11586   4.233   1.094  15.354  0.2880  0.0430  0.6521
   8623SM  H23G11587   4.358   1.092  15.486  1.1622  2.2211  0.1562
   8623SM  H23H11588   4.352   0.965  15.361  1.3825 -0.3825  3.5743
   8723SM     N11589   4.775   1.762  12.523  0.3590  0.4662  0.2311
   8723SM   C1511590   4.668   1.656  12.511 -0.4274  0.2363 -0.0467
   8723SM  H15A11591   4.703   1.555  12.523 -0.5077  0.3748  1.7466
   8723SM  H15B11592   4.619   1.662  12.415  1.9536 -2.5660 -1.6013
   8723SM  H15C11593   4.594   1.661  12.590  0.4550 -0.7729  0.8742
   8723SM   C1411594   4.877   1.739  12.410  0.1435  0.2271  0.1630
   8723SM  H14A11595   4.967   1.796  12.427 -0.4384  1.1942  0.0602
   8723SM  H14B11596   4.837   1.763  12.313  1.2808  0.8003 -0.1815
   8723SM  H14C11597   4.915   1.638  12.412  1.7808  0.7810 -0.8631
   8723SM   C1311598   4.704   1.889  12.517 -0.2669  0.2052 -0.5296
   8723SM  H13A11599   4.770   1.967  12.552 -1.9889  0.6245  2.0993
   8723SM  H13B11600   4.625   1.893  12.591  0.2966  0.0791  0.0839
   8723SM  H13C11601   4.656   1.910  12.422 -0.3533 -2.6406 -1.2094
   8723SM   C1211602   4.838   1.735  12.655  0.1071  0.3148 -0.5400
   8723SM  H12A11603   4.854   1.630  12.676 -0.3895 -0.4156 -3.4019
   8723SM  H12B11604   4.774   1.774  12.732 -0.3134 -0.7947 -0.3055
   8723SM   C1111605   4.977   1.790  12.690  0.3936 -0.0655  0.1669
   8723SM  H11A11606   5.000   1.772  12.797  2.1125 -0.9656 -0.3107
   8723SM  H11B11607   4.972   1.900  12.679  3.2449  0.2382  1.0532
   8723SM     P11608   5.122   1.584  12.638 -0.2731  0.2201 -0.1304
   8723SM   O1311609   5.028   1.500  12.562  0.2981 -0.1727  0.6754
   8723SM   O1411610   5.266   1.573  12.621  0.4663  0.1215 -0.1286
   8723SM   O1111611   5.095   1.550  12.791  0.4225 -0.5119  0.2794
   8723SM   O1211612   5.086   1.737  12.617  0.3023 -0.1005  0.1787
   8723SM   C1S11613   5.030   1.430  12.837  0.2100 -0.1544  0.3568
   8723SM   H1S11614   5.072   1.338  12.791 -1.9529 -1.8421  1.5610
   8723SM   H1T11615   4.920   1.439  12.822  0.0545 -0.8914  0.9954
   8723SM    NF11616   5.029   1.267  13.028 -0.4214  0.0263  0.0141
   8723SM   HNF11617   4.945   1.246  13.078 -1.0107  0.7016 -0.6649
   8723SM   C2S11618   5.044   1.408  12.994 -0.3783 -0.3463  0.0834
   8723SM   H2S11619   5.153   1.421  13.013  0.0380 -0.9733 -1.6158
   8723SM   C3S11620   4.952   1.512  13.065  0.0144 -0.0651 -0.3239
   8723SM   H3S11621   4.849   1.486  13.033 -0.6896 -0.6512  2.1989
   8723SM    O311622   4.964   1.653  13.034  0.3996  0.1958 -1.1257
   8723SM   HO311623   5.040   1.649  12.976  0.1836 -0.8759 -1.3401
   8723SM   C4S11624   4.963   1.498  13.210  0.2577  0.0505  0.0367
   8723SM   H4S11625   5.050   1.441  13.247 -0.4895 -0.4894  1.0345
   8723SM   C5S11626   4.865   1.526  13.298  0.6624 -0.2700  0.3031
   8723SM   H5S11627   4.769   1.560  13.258 -0.6119  0.6314  3.7481
   8723SM   C6S11628   4.873   1.500  13.447  1.0424  0.3380  0.8871
   8723SM   H6S11629   4.790   1.431  13.473 -0.7884  2.2707  0.5458
   8723SM   H6T11630   4.830   1.591  13.494  0.2197  1.6102 -2.1040
   8723SM   C7S11631   5.000   1.451  13.512 -0.5665 -0.2290  0.2553
   8723SM   H7S11632   5.001   1.468  13.622  1.5431 -0.1993  0.2805
   8723SM   H7T11633   5.076   1.512  13.459 -0.9217  0.1117  0.1363
   8723SM   C8S11634   5.026   1.308  13.490  0.0739 -0.3527 -0.5175
   8723SM   H8S11635   5.005   1.279  13.385  0.6125 -1.0066 -0.4481
   8723SM   H8T11636   4.968   1.241  13.556  0.2114  0.0906  0.0692
   8723SM   C9S11637   5.169   1.258  13.515 -0.2665  0.4971  0.3016
   8723SM   H9S11638   5.226   1.291  13.425  1.1203 -1.6416  0.3136
   8723SM   H9T11639   5.161   1.147  13.506  0.4739  0.5564 -1.4190
   8723SM  C10S11640   5.238   1.304  13.641  0.3517 -0.0979 -0.3819
   8723SM  H10S11641   5.219   1.413  13.649  2.9034  0.4231 -0.6789
   8723SM  H10T11642   5.346   1.294  13.617  1.3556  0.7910  3.2401
   8723SM  C11S11643   5.197   1.237  13.771 -0.4317 -0.5852 -0.4307
   8723SM  H11S11644   5.210   1.126  13.763 -0.0554 -0.4906 -1.2701
   8723SM  H11T11645   5.088   1.254  13.781 -0.2184  1.1129 -0.6933
   8723SM  C12S11646   5.268   1.301  13.893  0.1504 -0.0076 -0.0029
   8723SM  H12S11647   5.377   1.301  13.876 -0.2573 -0.7642 -3.2573
   8723SM  H12T11648   5.237   1.240  13.981  0.6122  2.6683  2.1343
   8723SM  C13S11649   5.214   1.446  13.923 -0.3575  0.5481 -0.6173
   8723SM  H13S11650   5.108   1.451  13.892 -0.4202 -1.0520 -0.7596
   8723SM  H13T11651   5.264   1.511  13.848  1.5091 -0.3411 -0.2182
   8723SM  C14S11652   5.253   1.501  14.069 -0.2937  0.3302  0.2828
   8723SM  H14S11653   5.363   1.514  14.079  0.0153 -1.8053  0.0298
   8723SM  H14T11654   5.213   1.425  14.139 -0.2014  0.6955  0.7462
   8723SM  C15S11655   5.181   1.633  14.113  0.0558 -0.4566 -0.2614
   8723SM  H15S11656   5.211   1.666  14.215  0.0531  1.7435 -0.9112
   8723SM  H15T11657   5.072   1.613  14.117  0.1725 -0.8994  1.2511
   8723SM  C16S11658   5.194   1.753  14.021 -0.7498  0.1946  0.8924
   8723SM  H16S11659   5.157   1.726  13.919  2.7129  0.9298 -0.7392
   8723SM  H16T11660   5.299   1.788  14.008 -0.4008 -0.5119  1.7224
   8723SM  C17S11661   5.103   1.869  14.070  0.1327  0.1259  0.1458
   8723SM  H17S11662   5.006   1.818  14.088 -0.6499  1.0014 -1.4274
   8723SM  H17T11663   5.088   1.941  13.988 -3.6062 -0.5230  0.1148
   8723SM  C18S11664   5.160   1.941  14.190 -0.2022  0.4741  0.1757
   8723SM  H18S11665   5.201   1.878  14.271  2.4298  1.7533 -0.0729
   8723SM  H18T11666   5.088   2.019  14.224 -0.1224  0.4165  0.4767
   8723SM  H18U11667   5.249   1.999  14.157  0.2910 -0.3186  0.1036
   8723SM   C1F11668   5.104   1.169  12.984  0.2459  0.6799  0.2095
   8723SM    OF11669   5.218   1.182  12.940 -0.4678  0.3999  0.5758
   8723SM   C2F11670   5.033   1.028  12.978 -0.1062  0.2055  0.0789
   8723SM   H2F11671   5.020   1.002  12.871 -0.7140  1.9501 -0.3125
   8723SM   H2G11672   4.933   1.027  13.026  0.2504 -0.1734  0.8371
   8723SM   C3F11673   5.110   0.919  13.052 -0.6217  0.8243  0.5354
   8723SM   H3F11674   5.214   0.906  13.013 -0.9898 -0.6374 -0.0461
   8723SM   H3G11675   5.060   0.821  13.033 -1.4256  1.6003 -1.6002
   8723SM   C4F11676   5.110   0.935  13.205 -0.5395  0.2666 -0.2513
   8723SM   H4F11677   5.005   0.945  13.240 -0.2515 -2.0367  1.5313
   8723SM   H4G11678   5.174   1.021  13.234 -0.0778 -0.6229  1.5094
   8723SM   C5F11679   5.185   0.813  13.270 -0.0252 -1.0225 -0.0049
   8723SM   H5F11680   5.283   0.804  13.218  0.1902  4.6221 -1.2581
   8723SM   H5G11681   5.121   0.730  13.236 -0.9864  0.0435 -0.8729
   8723SM   C6F11682   5.201   0.804  13.426 -0.0058 -0.5485 -0.2759
   8723SM   H6F11683   5.192   0.699  13.461  0.0513  0.0396  1.6288
   8723SM   H6G11684   5.112   0.850  13.475 -1.3389 -1.7826 -1.4237
   8723SM   C7F11685   5.341   0.851  13.467  0.5136 -0.4745 -0.1914
   8723SM   H7F11686   5.327   0.959  13.445  0.2584 -0.2307  1.0944
   8723SM   H7G11687   5.427   0.810  13.409  1.0105 -2.3676  1.7687
   8723SM   C8F11688   5.367   0.842  13.619 -0.0579  0.5786 -0.0239
   8723SM   H8F11689   5.332   0.742  13.650  1.1276  0.8894  2.5802
   8723SM   H8G11690   5.298   0.901  13.684  1.0495  1.8416  0.0675
   8723SM   C9F11691   5.511   0.866  13.659  0.3617 -0.2684  0.2781
   8723SM   H9F11692   5.544   0.957  13.605  2.3859 -0.9995  0.1891
   8723SM   H9G11693   5.574   0.780  13.627  0.1001 -0.2075 -0.4170
   8723SM  C10F11694   5.523   0.901  13.807 -0.2600  0.3432  0.2875
   8723SM  H10F11695   5.475   0.998  13.832  1.3517  1.1921  0.2374
   8723SM  H10G11696   5.630   0.921  13.832 -1.0237  0.6183  3.9270
   8723SM  C11F11697   5.490   0.791  13.907 -0.0401 -0.2585  0.6887
   8723SM  H11F11698   5.559   0.706  13.889  1.2845  0.6279  1.3993
   8723SM  H11G11699   5.387   0.751  13.889 -0.9099  0.9163  2.6955
   8723SM  C12F11700   5.492   0.842  14.050 -0.2702 -0.6906 -0.6232
   8723SM  H12F11701   5.582   0.905  14.072 -0.0624 -1.5287  1.0290
   8723SM  H12G11702   5.489   0.761  14.125 -0.1405 -0.5293 -0.4407
   8723SM  C13F11703   5.381   0.947  14.076 -0.2066  0.2146  0.0611
   8723SM  H13F11704   5.280   0.905  14.056  0.3979 -2.7835  2.4885
   8723SM  H13G11705   5.385   1.034  14.008 -1.2654 -0.7284 -1.2608
   8723SM  C14F11706   5.389   0.997  14.224 -0.1387 -0.4890 -0.2008
   8723SM  H14F11707   5.478   1.056  14.254 -0.5657  1.0008 -1.7036
   8723SM  H14G11708   5.379   0.913  14.296 -0.3985  1.8457  2.6957
   8723SM  C15F11709   5.269   1.091  14.250  0.7845 -0.6309 -0.0500
   8723SM  H15F11710   5.175   1.041  14.220 -0.4898  0.7224  1.4737
   8723SM  H15G11711   5.281   1.182  14.188  0.1729  0.8257  1.8721
   8723SM  C16F11712   5.257   1.145  14.392 -0.0835 -0.1208 -0.4754
   8723SM  H16F11713   5.361   1.181  14.407 -0.5413  0.8483  0.5445
   8723SM  H16G11714   5.247   1.063  14.467  0.1826 -0.1133 -0.4284
   8723SM  C17F11715   5.147   1.253  14.392 -0.4386 -0.5965  0.3562
   8723SM  H17F11716   5.055   1.215  14.343 -0.8030  1.8126 -0.9502
   8723SM  H17G11717   5.187   1.335  14.329 -0.2202 -0.7875  0.2428
   8723SM  C18F11718   5.127   1.314  14.529 -0.4454 -0.3104 -0.3321
   8723SM  H18F11719   5.227   1.348  14.562  0.0640 -0.2571 -1.8459
   8723SM  H18G11720   5.090   1.242  14.605  0.3602  1.2563  1.6365
   8723SM  C19F11721   5.059   1.454  14.513  0.3123 -0.1441 -0.2666
   8723SM  H19F11722   4.972   1.435  14.447 -0.8476 -0.0436  1.1682
   8723SM  H19G11723   5.127   1.526  14.463 -0.9296  0.2016 -1.5062
   8723SM  C20F11724   5.005   1.510  14.641 -0.3831  0.0224  0.4573
   8723SM  H20F11725   5.063   1.469  14.726  2.2628  0.6982 -0.8902
   8723SM  H20G11726   4.897   1.494  14.660 -0.1453 -0.7602  1.2179
   8723SM  C21F11727   5.035   1.663  14.661  0.6631 -0.2787 -0.4652
   8723SM  H21F11728   5.143   1.679  14.684  0.4705  2.3001 -1.0687
   8723SM  H21G11729   4.991   1.670  14.763 -0.1464 -0.8801 -0.7668
   8723SM  C22F11730   4.968   1.753  14.569  0.0643  0.3914 -0.2113
   8723SM  H22F11731   4.859   1.757  14.590  0.4196 -0.1104  1.9071
   8723SM  H22G11732   4.988   1.716  14.466  0.5863 -0.5177  0.2037
   8723SM  C23F11733   5.016   1.897  14.570  0.3169 -0.6376 -0.1319
   8723SM  H23F11734   5.114   1.892  14.519  1.0785 -0.0452  1.2144
   8723SM  H23G11735   5.021   1.942  14.671 -1.8853 -0.8680  0.1397
   8723SM  H23H11736   4.938   1.954  14.514  1.1614  0.1539 -0.5336
   8823SM     N11737   3.014   1.946  12.347 -0.6111  0.2874  0.2768
   8823SM   C1511738   2.923   1.840  12.363  0.0197 -0.1698  0.4838
   8823SM  H15A11739   2.913   1.792  12.460  0.0835 -2.4617 -0.5674
   8823SM  H15B11740   2.945   1.758  12.296 -0.8219 -0.5295  0.6250
   8823SM  H15C11741   2.825   1.868  12.328  0.9225 -0.5553 -2.6118
   8823SM   C1411742   3.156   1.897  12.313  0.6206 -0.2227 -0.6692
   8823SM  H14A11743   3.218   1.986  12.316 -0.8039  0.7739  2.1813
   8823SM  H14B11744   3.167   1.858  12.213 -0.3320 -0.6585 -0.6107
   8823SM  H14C11745   3.186   1.817  12.378 -1.6537 -2.1125 -1.8186
   8823SM   C1311746   2.977   2.028  12.230  0.2680 -0.1322  0.3498
   8823SM  H13A11747   2.888   2.085  12.256  0.3323  0.3982 -0.5376
   8823SM  H13B11748   2.954   1.961  12.148 -0.8641  0.2714  0.3145
   8823SM  H13C11749   3.051   2.100  12.199 -0.8469  0.4861 -0.9980
   8823SM   C1211750   3.021   2.039  12.475 -0.1199  0.1352 -0.8359
   8823SM  H12A11751   3.076   2.130  12.454  0.6153 -0.1084 -0.0398
   8823SM  H12B11752   3.085   1.985  12.544  0.3363  1.8616  0.1443
   8823SM   C1111753   2.887   2.077  12.549  0.2327 -0.4546  0.2290
   8823SM  H11A11754   2.911   2.134  12.642 -2.5096  3.2917 -1.1166
   8823SM  H11B11755   2.845   1.976  12.568  2.6993 -1.5431  0.2882
   8823SM     P11756   2.811   2.302  12.440  0.4872  0.1731 -0.5975
   8823SM   O1311757   2.925   2.354  12.362  0.2133 -0.1331  0.2757
   8823SM   O1411758   2.680   2.355  12.398 -0.3128  0.3115 -0.3863
   8823SM   O1111759   2.839   2.345  12.591  0.1328  0.1623 -0.9553
   8823SM   O1211760   2.809   2.150  12.452  0.4119 -0.3612  0.1559
   8823SM   C1S11761   2.736   2.325  12.690 -0.2752 -0.2349  0.5044
   8823SM   H1S11762   2.705   2.218  12.691 -1.7128  0.1608  1.9205
   8823SM   H1T11763   2.649   2.390  12.671  0.6709  1.4875  1.7422
   8823SM    NF11764   2.662   2.337  12.924 -0.5084 -0.0578  0.0281
   8823SM   HNF11765   2.600   2.413  12.938 -0.4547  0.3735 -1.8014
   8823SM   C2S11766   2.774   2.368  12.833  0.2306  0.2835 -0.0314
   8823SM   H2S11767   2.854   2.303  12.873  0.2649  1.1063  1.3137
   8823SM   C3S11768   2.830   2.510  12.836  0.2416  0.3152 -1.1395
   8823SM   H3S11769   2.747   2.570  12.794 -2.8539 -2.1860  0.9142
   8823SM    O311770   2.942   2.533  12.747  0.2183  0.3010  0.5376
   8823SM   HO311771   2.924   2.460  12.688 -0.1341  1.4711 -0.8434
   8823SM   C4S11772   2.868   2.555  12.974  0.8651 -0.9178 -0.6276
   8823SM   H4S11773   2.969   2.522  13.003  0.5692  0.2263  1.9893
   8823SM   C5S11774   2.806   2.637  13.062 -0.1357  0.3545  1.0418
   8823SM   H5S11775   2.713   2.686  13.028 -1.1038 -1.9420  0.1403
   8823SM   C6S11776   2.873   2.687  13.184 -0.1907  0.2233  0.2636
   8823SM   H6S11777   2.814   2.772  13.223 -0.2352  0.8705 -1.1343
   8823SM   H6T11778   2.975   2.728  13.166  0.5664  0.2170  3.8684
   8823SM   C7S11779   2.890   2.587  13.297  0.2512 -0.0467 -0.1428
   8823SM   H7S11780   2.928   2.644  13.385 -1.2172 -0.0501  0.5295
   8823SM   H7T11781   2.971   2.513  13.279 -0.4359 -1.1351  1.0313
   8823SM   C8S11782   2.760   2.508  13.327  0.0856 -0.3537  0.2656
   8823SM   H8S11783   2.741   2.442  13.240 -0.5291 -0.3043  0.3567
   8823SM   H8T11784   2.673   2.577  13.321 -2.4440 -3.4237 -1.3199
   8823SM   C9S11785   2.758   2.428  13.465  0.5098 -0.0404  0.0550
   8823SM   H9S11786   2.845   2.359  13.469 -1.0998 -2.0534  2.1663
   8823SM   H9T11787   2.667   2.365  13.473 -1.2772  2.3714 -0.1542
   8823SM  C10S11788   2.783   2.523  13.585 -0.3833 -0.5817  0.8043
   8823SM  H10S11789   2.695   2.590  13.594  1.4493  2.3377 -1.1093
   8823SM  H10T11790   2.871   2.590  13.570 -0.7142  0.5567  3.4039
   8823SM  C11S11791   2.821   2.453  13.715  0.2444  0.2420  0.4252
   8823SM  H11S11792   2.931   2.438  13.710  0.5067  1.8925  0.6048
   8823SM  H11T11793   2.768   2.355  13.721  0.2135  0.2066 -0.3480
   8823SM  C12S11794   2.789   2.532  13.840  0.0563  0.2135 -0.7797
   8823SM  H12S11795   2.678   2.541  13.850 -0.2666 -2.6054 -0.7748
   8823SM  H12T11796   2.836   2.632  13.843 -0.0485  0.2475  1.9727
   8823SM  C13S11797   2.831   2.466  13.975 -0.1571  0.2671  0.1917
   8823SM  H13S11798   2.942   2.468  13.970  0.0035  0.9927  2.7147
   8823SM  H13T11799   2.793   2.362  13.981  1.2485 -0.2834  0.0644
   8823SM  C14S11800   2.770   2.545  14.102 -0.4013  0.3724 -0.2311
   8823SM  H14S11801   2.660   2.551  14.108 -0.3649 -0.0451  3.5346
   8823SM  H14T11802   2.804   2.650  14.089 -2.3693  1.0109 -0.4943
   8823SM  C15S11803   2.825   2.480  14.234 -0.1807  0.5211 -0.4945
   8823SM  H15S11804   2.935   2.466  14.234 -0.4466 -2.3384 -1.3039
   8823SM  H15T11805   2.781   2.379  14.252 -1.1607  1.4768  3.4232
   8823SM  C16S11806   2.776   2.558  14.356  0.1876  0.1612 -0.1055
   8823SM  H16S11807   2.812   2.506  14.448 -0.2786 -0.2264 -0.1383
   8823SM  H16T11808   2.668   2.533  14.361  0.4922 -1.0233  1.5667
   8823SM  C17S11809   2.804   2.706  14.361 -0.1867 -0.3561  0.7589
   8823SM  H17S11810   2.772   2.757  14.267 -0.4546  1.6005  1.8478
   8823SM  H17T11811   2.915   2.703  14.362 -0.1675  0.1063  0.4877
   8823SM  C18S11812   2.752   2.772  14.486  0.1848 -0.4020  0.3811
   8823SM  H18S11813   2.642   2.777  14.474  0.3444  0.2028 -1.0326
   8823SM  H18T11814   2.797   2.871  14.504 -0.5112 -0.0279  0.1083
   8823SM  H18U11815   2.775   2.701  14.568  1.7540  0.8363  1.0604
   8823SM   C1F11816   2.626   2.211  12.958 -0.1288  0.1267 -0.3399
   8823SM    OF11817   2.675   2.113  12.901  0.0168  0.0703  0.4021
   8823SM   C2F11818   2.514   2.195  13.053 -0.3608  0.0705 -0.3576
   8823SM   H2F11819   2.417   2.176  13.001 -2.3837  0.7447  2.8861
   8823SM   H2G11820   2.500   2.288  13.111 -3.6751 -0.5277  0.0197
   8823SM   C3F11821   2.537   2.078  13.150 -0.1714  0.3142  0.0953
   8823SM   H3F11822   2.626   2.103  13.211  0.9100  0.2618 -1.4177
   8823SM   H3G11823   2.556   1.989  13.086 -0.5072 -0.0942  0.5520
   8823SM   C4F11824   2.414   2.029  13.235  0.0025  0.4738 -1.0703
   8823SM   H4F11825   2.329   1.998  13.170 -1.8108  2.2171  0.3315
   8823SM   H4G11826   2.375   2.111  13.300 -1.0841  0.6440 -1.8993
   8823SM   C5F11827   2.446   1.898  13.315  0.5124 -0.1409 -0.1999
   8823SM   H5F11828   2.551   1.901  13.352  0.5597 -2.7785  0.1134
   8823SM   H5G11829   2.455   1.810  13.248 -0.9171 -1.9884  1.8644
   8823SM   C6F11830   2.348   1.870  13.420  0.1573  0.0687 -0.0703
   8823SM   H6F11831   2.247   1.863  13.373 -0.5354  0.9877  1.2221
   8823SM   H6G11832   2.350   1.943  13.503  0.1463  3.6031 -2.8967
   8823SM   C7F11833   2.361   1.729  13.472 -0.1524  0.5076  0.4603
   8823SM   H7F11834   2.467   1.718  13.505  0.7529  2.3859 -1.6056
   8823SM   H7G11835   2.342   1.654  13.393 -1.3129  0.3566  0.8565
   8823SM   C8F11836   2.265   1.701  13.583 -0.3041 -0.6728 -0.1566
   8823SM   H8F11837   2.170   1.741  13.541 -1.4186 -0.5771  2.3016
   8823SM   H8G11838   2.292   1.753  13.677  0.3897 -2.2527  0.5567
   8823SM   C9F11839   2.243   1.545  13.606 -0.7282 -0.7831 -1.3921
   8823SM   H9F11840   2.340   1.512  13.649 -1.0004  0.7029  0.5061
   8823SM   H9G11841   2.224   1.486  13.514 -1.3199 -1.4861 -0.8314
   8823SM  C10F11842   2.142   1.523  13.719  0.0933 -0.2065  0.3741
   8823SM  H10F11843   2.192   1.556  13.812  2.0438  0.0962 -0.7399
   8823SM  H10G11844   2.122   1.415  13.730 -1.5602 -0.0733 -0.8617
   8823SM  C11F11845   2.008   1.581  13.690  0.5715 -0.1432 -0.6577
   8823SM  H11F11846   1.971   1.543  13.593 -1.2532 -2.4526  0.8491
   8823SM  H11G11847   2.010   1.692  13.678 -0.2974 -0.0726 -0.2225
   8823SM  C12F11848   1.900   1.559  13.793  0.1350 -0.1944 -0.0370
   8823SM  H12F11849   1.833   1.648  13.802  1.9684  1.1694  0.5761
   8823SM  H12G11850   1.956   1.546  13.887 -1.1060 -4.3349  0.3315
   8823SM  C13F11851   1.829   1.428  13.768  0.2350  0.2745 -0.2335
   8823SM  H13F11852   1.890   1.342  13.803  0.0779 -0.5369 -1.8507
   8823SM  H13G11853   1.823   1.420  13.658  2.5914  0.4447 -0.4134
   8823SM  C14F11854   1.694   1.410  13.832 -0.3527  0.1688  0.9657
   8823SM  H14F11855   1.625   1.476  13.775  2.2198  1.8195 -0.4483
   8823SM  H14G11856   1.690   1.464  13.930 -0.1665 -0.0876  1.1146
   8823SM  C15F11857   1.648   1.271  13.838 -0.0621  0.5394 -0.3263
   8823SM  H15F11858   1.735   1.215  13.881  0.1892  0.7099 -0.6085
   8823SM  H15G11859   1.622   1.229  13.739 -1.6951 -0.9251  0.6558
   8823SM  C16F11860   1.532   1.238  13.933 -0.0258  0.6598 -0.5847
   8823SM  H16F11861   1.495   1.134  13.920  0.4575  0.3961  0.1016
   8823SM  H16G11862   1.442   1.298  13.906 -1.3046 -1.3968 -1.1110
   8823SM  C17F11863   1.580   1.246  14.089 -0.2111  0.1539 -0.1957
   8823SM  H17F11864   1.596   1.351  14.121 -1.2352  0.5768 -1.0075
   8823SM  H17G11865   1.680   1.198  14.085  0.1634  1.0082 -2.8837
   8823SM  C18F11866   1.480   1.170  14.178  0.4254 -0.1298  0.7698
   8823SM  H18F11867   1.473   1.066  14.140  2.2125 -0.5821  1.5851
   8823SM  H18G11868   1.379   1.211  14.155 -1.0932 -2.5812  2.5555
   8823SM  C19F11869   1.510   1.170  14.326 -0.6445  0.7498  0.9496
   8823SM  H19F11870   1.542   1.273  14.356  1.5297 -0.2536  2.3115
   8823SM  H19G11871   1.595   1.100  14.336 -0.3546  0.7277 -1.2659
   8823SM  C20F11872   1.405   1.126  14.421  0.2861  0.3967 -0.5157
   8823SM  H20F11873   1.359   1.030  14.390 -1.3808  1.0426 -0.1446
   8823SM  H20G11874   1.332   1.209  14.430  0.6245  0.8312 -1.5910
   8823SM  C21F11875   1.482   1.113  14.556 -0.4490  0.3437 -0.3816
   8823SM  H21F11876   1.510   1.214  14.591 -1.8421  0.4109  0.6150
   8823SM  H21G11877   1.578   1.060  14.536 -0.9654 -1.2347  1.0797
   8823SM  C22F11878   1.410   1.054  14.676  0.1622  0.0590  0.0467
   8823SM  H22F11879   1.388   0.946  14.660  2.6410 -0.6418  0.8192
   8823SM  H22G11880   1.317   1.113  14.686  0.9884  1.5198 -0.5529
   8823SM  C23F11881   1.491   1.075  14.797 -0.3697  0.3425 -0.4560
   8823SM  H23F11882   1.554   0.985  14.810  0.7215  1.1874  0.3087
   8823SM  H23G11883   1.428   1.092  14.887  2.1513  1.9379  1.1483
   8823SM  H23H11884   1.545   1.172  14.791  0.4895 -0.0092  1.0264
   8923SM     N11885   7.056   2.004  12.221  0.0722 -0.1616  0.8861
   8923SM   C1511886   7.183   1.940  12.179 -0.0634  0.5390  0.2113
   8923SM  H15A11887   7.194   1.834  12.197  1.8054  0.1844 -2.3961
   8923SM  H15B11888   7.263   1.997  12.224  0.7881 -0.6245  0.2071
   8923SM  H15C11889   7.202   1.948  12.073 -0.6004  0.2272  0.0882
   8923SM   C1411890   6.944   1.905  12.181  0.6259 -0.0161  0.9864
   8923SM  H14A11891   6.961   1.893  12.075  1.3293 -0.9885  1.1936
   8923SM  H14B11892   6.844   1.934  12.207 -0.1004 -0.4689 -1.1483
   8923SM  H14C11893   6.966   1.807  12.221  2.2957 -1.8342 -3.6309
   8923SM   C1311894   7.046   2.038  12.368 -0.1795 -0.0270 -0.1347
   8923SM  H13A11895   7.062   1.953  12.432 -0.6400 -1.1786 -1.4879
   8923SM  H13B11896   6.944   2.069  12.383 -0.2273 -0.4670  0.4874
   8923SM  H13C11897   7.113   2.115  12.402 -2.2839  1.3197  1.2057
   8923SM   C1211898   7.039   2.131  12.138 -0.3648 -0.0991 -0.1123
   8923SM  H12A11899   6.935   2.163  12.135  0.2849  2.9139  2.8170
   8923SM  H12B11900   7.052   2.096  12.037 -2.4222 -0.3867 -0.3269
   8923SM   C1111901   7.121   2.254  12.176  0.0804  0.4011 -0.1354
   8923SM  H11A11902   7.116   2.281  12.284  2.4977  1.1797 -0.1568
   8923SM  H11B11903   7.089   2.345  12.122 -1.6603  0.9066  1.6550
   8923SM     P11904   7.381   2.299  12.199  0.5812 -0.3493 -0.2833
   8923SM   O1311905   7.500   2.211  12.192  0.3846  0.4252  0.4484
   8923SM   O1411906   7.395   2.436  12.144 -0.0157 -0.2946 -0.0926
   8923SM   O1111907   7.339   2.312  12.353 -0.3692  0.2830 -0.2948
   8923SM   O1211908   7.254   2.224  12.136 -0.0850  0.4204  0.0605
   8923SM   C1S11909   7.404   2.210  12.440  0.9507 -0.3410  0.5153
   8923SM   H1S11910   7.515   2.211  12.429  0.9167 -2.1407 -0.3628
   8923SM   H1T11911   7.371   2.109  12.409  0.4254 -0.2480  0.7561
   8923SM    NF11912   7.451   2.141  12.676  0.7932  1.4689 -0.4133
   8923SM   HNF11913   7.412   2.063  12.725  1.4986  1.6504  0.4611
   8923SM   C2S11914   7.367   2.232  12.593  0.7143  0.2471  0.1267
   8923SM   H2S11915   7.380   2.336  12.629 -1.9700  1.4558 -2.0204
   8923SM   C3S11916   7.212   2.211  12.617 -0.1884  0.6920  0.2114
   8923SM   H3S11917   7.187   2.104  12.598  1.1526  0.3589  0.1981
   8923SM    O311918   7.134   2.293  12.530 -0.0534 -0.3056 -0.0134
   8923SM   HO311919   7.193   2.335  12.468 -0.4118  1.8340  1.0152
   8923SM   C4S11920   7.169   2.255  12.752 -0.0014  0.4939 -0.1831
   8923SM   H4S11921   7.169   2.364  12.759 -2.3790  0.5107  0.6512
   8923SM   C5S11922   7.146   2.177  12.857 -0.8618  0.1961 -0.0308
   8923SM   H5S11923   7.175   2.071  12.855  3.1599  1.1088  1.1628
   8923SM   C6S11924   7.129   2.245  12.993  0.7118  0.0573  0.1168
   8923SM   H6S11925   7.032   2.222  13.043 -0.4097 -0.8421 -2.3155
   8923SM   H6T11926   7.123   2.356  12.992  1.4121  0.0990  0.2113
   8923SM   C7S11927   7.239   2.217  13.096 -0.2044 -0.7447  0.0677
   8923SM   H7S11928   7.205   2.262  13.192 -0.9981 -0.3652 -0.3838
   8923SM   H7T11929   7.333   2.267  13.063 -1.7088  2.3325  0.0487
   8923SM   C8S11930   7.262   2.068  13.127  0.3488  0.2446  0.4450
   8923SM   H8S11931   7.294   2.018  13.034 -1.5190 -0.9238  0.3851
   8923SM   H8T11932   7.160   2.026  13.140  0.5475 -0.3130  0.2470
   8923SM   C9S11933   7.354   2.040  13.243  0.1413  0.1665  0.1450
   8923SM   H9S11934   7.303   2.001  13.333 -0.0372  1.6054  0.6876
   8923SM   H9T11935   7.389   2.139  13.279 -0.7232  0.5089  0.0650
   8923SM  C10S11936   7.474   1.952  13.213  0.9819  0.3724 -0.1622
   8923SM  H10S11937   7.524   1.997  13.124  1.7582  0.9142  0.5371
   8923SM  H10T11938   7.424   1.858  13.182 -2.7185  2.1077  0.0673
   8923SM  C11S11939   7.567   1.927  13.330  0.1719  0.2277 -0.0621
   8923SM  H11S11940   7.608   2.020  13.374  1.4244  0.0628 -0.8248
   8923SM  H11T11941   7.653   1.865  13.296 -0.5244 -0.4364 -0.6784
   8923SM  C12S11942   7.501   1.852  13.451 -0.6748 -0.5164 -0.9269
   8923SM  H12S11943   7.470   1.749  13.424 -1.9048 -0.5290  0.4330
   8923SM  H12T11944   7.413   1.914  13.476 -0.6863 -0.5534 -0.8758
   8923SM  C13S11945   7.609   1.861  13.571 -0.4786  0.9453  0.6257
   8923SM  H13S11946   7.620   1.969  13.592 -0.9280  0.6926  2.4082
   8923SM  H13T11947   7.707   1.812  13.551 -0.7832  0.7910 -0.5334
   8923SM  C14S11948   7.560   1.788  13.699  0.4629 -0.6201  0.5135
   8923SM  H14S11949   7.538   1.684  13.667 -0.7923  0.1730 -1.3666
   8923SM  H14T11950   7.465   1.834  13.733  0.7330 -0.6937  1.3908
   8923SM  C15S11951   7.675   1.784  13.802 -0.6179  0.0009  0.7607
   8923SM  H15S11952   7.702   1.884  13.842 -2.5823 -0.4172  3.4631
   8923SM  H15T11953   7.766   1.735  13.761  1.0637  3.3918  0.1376
   8923SM  C16S11954   7.613   1.724  13.931 -0.0119 -0.0683 -0.0966
   8923SM  H16S11955   7.582   1.618  13.922 -0.1347 -0.1833  1.5067
   8923SM  H16T11956   7.519   1.779  13.949 -0.3828 -0.0977 -1.7755
   8923SM  C17S11957   7.712   1.727  14.045 -0.6254  0.7433  0.0522
   8923SM  H17S11958   7.809   1.704  13.997 -1.1058 -0.2332 -0.4906
   8923SM  H17T11959   7.701   1.639  14.112  1.0162  0.3604 -0.1425
   8923SM  C18S11960   7.711   1.851  14.127 -0.2649 -0.1618  0.8033
   8923SM  H18S11961   7.612   1.861  14.176 -1.0382  1.8827 -0.9880
   8923SM  H18T11962   7.706   1.932  14.051  2.4935 -0.2828  0.3789
   8923SM  H18U11963   7.789   1.870  14.205  0.0098 -1.6101  0.8984
   8923SM   C1F11964   7.583   2.143  12.689 -0.1410 -0.4046 -0.1626
   8923SM    OF11965   7.652   2.228  12.634  0.0025  0.0680  0.0386
   8923SM   C2F11966   7.649   2.039  12.773  0.4104 -0.2334 -0.1403
   8923SM   H2F11967   7.612   1.942  12.734  1.6879 -0.5357 -0.6694
   8923SM   H2G11968   7.638   2.051  12.883  0.2375 -0.7660 -0.0978
   8923SM   C3F11969   7.802   2.053  12.758  0.3457  0.1246 -0.3921
   8923SM   H3F11970   7.836   2.158  12.772 -2.7596  1.3326 -1.1313
   8923SM   H3G11971   7.847   2.025  12.661 -0.3135 -1.6457 -0.2101
   8923SM   C4F11972   7.873   1.959  12.859 -0.0393  0.7722 -0.0006
   8923SM   H4F11973   7.815   1.864  12.853  0.8711  0.2328 -0.5188
   8923SM   H4G11974   7.864   2.009  12.958 -3.1305 -1.4327  1.0101
   8923SM   C5F11975   8.015   1.930  12.810 -0.2001 -0.3307 -0.0066
   8923SM   H5F11976   8.063   2.025  12.778  0.8339 -0.9782 -0.4418
   8923SM   H5G11977   8.002   1.876  12.714 -1.3257  1.9687 -1.2319
   8923SM   C6F11978   8.103   1.856  12.915  0.4245  1.0460  0.2680
   8923SM   H6F11979   8.187   1.821  12.850 -0.7962 -0.8066 -0.3812
   8923SM   H6G11980   8.054   1.759  12.936 -0.1749  0.5144 -2.9843
   8923SM   C7F11981   8.150   1.945  13.026 -0.0906 -0.8084  0.4354
   8923SM   H7F11982   8.053   1.954  13.080 -0.3629  0.6566 -0.2463
   8923SM   H7G11983   8.199   2.041  13.001 -0.9067 -0.9017 -1.7201
   8923SM   C8F11984   8.221   1.873  13.130  0.4144 -0.0547 -0.0040
   8923SM   H8F11985   8.316   1.833  13.087  0.7820  0.4909  0.2858
   8923SM   H8G11986   8.171   1.779  13.162  1.6501 -1.7235 -2.6084
   8923SM   C9F11987   8.244   1.957  13.257 -0.2671 -0.0777  0.7190
   8923SM   H9F11988   8.149   2.008  13.285 -0.6173  0.1915 -0.8930
   8923SM   H9G11989   8.317   2.035  13.226  0.9477 -0.6343  2.0452
   8923SM  C10F11990   8.304   1.881  13.377  0.4959  0.7710 -0.2138
   8923SM  H10F11991   8.384   1.813  13.341 -1.1123 -1.8247  0.8966
   8923SM  H10G11992   8.215   1.824  13.410  0.9799 -0.1013 -0.4002
   8923SM  C11F11993   8.346   1.970  13.494  0.4250  0.2613  0.0395
   8923SM  H11F11994   8.266   2.048  13.494  0.9443  0.9770 -3.4015
   8923SM  H11G11995   8.441   2.026  13.488  0.7516 -0.1770  0.9729
   8923SM  C12F11996   8.339   1.899  13.626 -0.6964  0.6787  0.1631
   8923SM  H12F11997   8.419   1.822  13.623 -1.1614  0.1875  0.2144
   8923SM  H12G11998   8.241   1.850  13.644 -1.2055  0.4047 -2.8089
   8923SM  C13F11999   8.374   1.989  13.746 -0.3143  0.0205 -0.1983
   8923SM  H13F12000   8.299   2.070  13.757  1.2853  1.7325 -1.4494
   8923SM  H13G12001   8.470   2.040  13.729  0.0381 -0.1535  1.1171
   8923SM  C14F12002   8.377   1.905  13.881 -0.5052 -0.1563 -0.1497
   8923SM  H14F12003   8.432   1.810  13.864  0.4883  0.3685  0.0489
   8923SM  H14G12004   8.272   1.879  13.906  0.1274 -1.7833  0.9728
   8923SM  C15F12005   8.436   1.974  14.007 -0.2131  0.2410  0.2770
   8923SM  H15F12006   8.393   2.076  14.020  1.7864  1.1669 -0.0625
   8923SM  H15G12007   8.539   1.995  13.972 -0.3613 -0.3922 -0.5828
   8923SM  C16F12008   8.432   1.886  14.133 -0.2589 -0.1722 -0.3336
   8923SM  H16F12009   8.351   1.811  14.127 -0.3211 -0.4453  2.4791
   8923SM  H16G12010   8.405   1.960  14.211 -2.0052 -0.6786 -0.4150
   8923SM  C17F12011   8.565   1.822  14.170 -0.5139 -0.7963  1.1557
   8923SM  H17F12012   8.556   1.782  14.273 -0.3452 -0.8356  1.1552
   8923SM  H17G12013   8.653   1.890  14.168  0.3528 -1.8924  0.7082
   8923SM  C18F12014   8.594   1.714  14.064 -0.6979 -0.5823  0.5753
   8923SM  H18F12015   8.641   1.773  13.982 -2.5769 -1.2338 -1.0290
   8923SM  H18G12016   8.506   1.661  14.023 -0.5479 -0.1079 -0.4122
   8923SM  C19F12017   8.688   1.603  14.107  0.1100  0.2873  0.0085
   8923SM  H19F12018   8.625   1.526  14.157 -1.1110  1.0013 -0.3712
   8923SM  H19G12019   8.747   1.639  14.194 -0.5046  3.0944 -0.6116
   8923SM  C20F12020   8.775   1.555  13.994 -0.7424  0.5070 -1.4144
   8923SM  H20F12021   8.857   1.627  13.974  0.7037 -1.0091 -1.2407
   8923SM  H20G12022   8.708   1.540  13.907 -1.4444 -1.7400 -0.5682
   8923SM  C21F12023   8.852   1.417  14.031 -0.5538 -0.3326 -0.4845
   8923SM  H21F12024   8.775   1.345  14.064  1.2188 -1.3256  1.6897
   8923SM  H21G12025   8.913   1.449  14.118 -2.6314 -0.6692  1.1713
   8923SM  C22F12026   8.937   1.368  13.913 -0.7400  0.3270 -0.2532
   8923SM  H22F12027   8.871   1.330  13.832  1.7960 -1.0794 -1.8032
   8923SM  H22G12028   8.977   1.277  13.962 -2.6217  0.1278  1.0108
   8923SM  C23F12029   9.042   1.453  13.848 -0.1272 -0.9957  0.2184
   8923SM  H23F12030   8.992   1.510  13.767  2.0158  0.1224 -0.3792
   8923SM  H23G12031   9.125   1.396  13.801  0.6785 -0.2494  0.7073
   8923SM  H23H12032   9.092   1.519  13.922  1.6520 -0.4233 -1.4175
   9023SM     N12033   7.621   0.545  12.306  0.2715  0.8115  0.0834
   9023SM   C1512034   7.641   0.433  12.409 -0.2057 -0.6256  0.3041
   9023SM  H15A12035   7.712   0.359  12.374 -1.5094 -1.5105 -0.5685
   9023SM  H15B12036   7.555   0.370  12.425 -1.9069  1.5305 -0.0342
   9023SM  H15C12037   7.678   0.457  12.507  2.3311 -1.3253 -0.3801
   9023SM   C1412038   7.556   0.488  12.177 -0.9286  0.2802 -0.1590
   9023SM  H14A12039   7.558   0.559  12.096  2.0772 -1.1789 -1.5482
   9023SM  H14B12040   7.454   0.457  12.192 -0.9080  1.2436  2.5051
   9023SM  H14C12041   7.608   0.396  12.153 -0.8734  0.0524  0.7757
   9023SM   C1312042   7.511   0.623  12.359 -0.7417 -0.2352  0.3212
   9023SM  H13A12043   7.430   0.552  12.368  1.6750 -3.5445 -1.5804
   9023SM  H13B12044   7.485   0.706  12.294  1.5217  0.5924  0.3885
   9023SM  H13C12045   7.535   0.665  12.455 -2.4394 -0.2844  0.7862
   9023SM   C1212046   7.744   0.627  12.300  0.3977  0.1127 -0.0086
   9023SM  H12A12047   7.726   0.706  12.228 -0.6145 -0.6298 -0.5921
   9023SM  H12B12048   7.820   0.570  12.250 -0.8514 -0.1456 -1.7012
   9023SM   C1112049   7.797   0.702  12.427 -0.0862  0.9784  0.5785
   9023SM  H11A12050   7.891   0.757  12.405  0.2956 -0.0991 -0.6178
   9023SM  H11B12051   7.815   0.623  12.503 -0.2843  2.8747  2.6990
   9023SM     P12052   7.686   0.943  12.465  0.6231 -0.5829  0.4277
   9023SM   O1312053   7.701   0.987  12.328  0.4765  0.5868 -0.1324
   9023SM   O1412054   7.568   0.995  12.538 -0.4219  0.1271 -0.1304
   9023SM   O1112055   7.812   0.986  12.551 -0.3747  0.4765 -0.6402
   9023SM   O1212056   7.692   0.785  12.482  0.1268 -0.1575  0.0238
   9023SM   C1S12057   7.811   0.967  12.691  0.2948  0.2263 -0.6273
   9023SM   H1S12058   7.828   0.858  12.708 -1.1376 -0.1313 -1.2748
   9023SM   H1T12059   7.718   1.010  12.733  1.3803 -0.7744  3.1666
   9023SM    NF12060   7.911   1.026  12.907 -0.3568  0.6496  0.5120
   9023SM   HNF12061   7.844   1.089  12.945 -0.2694 -0.0964  1.9861
   9023SM   C2S12062   7.931   1.044  12.765  0.8942  0.5206 -0.0363
   9023SM   H2S12063   8.025   0.995  12.730  2.1281  1.1367  2.2185
   9023SM   C3S12064   7.936   1.193  12.735 -0.4137 -0.1966 -0.0682
   9023SM   H3S12065   7.840   1.243  12.759 -0.6941 -1.6889  2.2444
   9023SM    O312066   7.932   1.213  12.599  0.0447 -0.2422 -0.3538
   9023SM   HO312067   7.941   1.127  12.557 -1.9098 -0.4961 -0.3632
   9023SM   C4S12068   8.054   1.271  12.790  0.3281  0.1971 -0.1175
   9023SM   H4S12069   8.152   1.243  12.750  0.2835 -2.5365  1.4408
   9023SM   C5S12070   8.042   1.362  12.887  0.1767 -0.3209  0.2432
   9023SM   H5S12071   7.948   1.406  12.924  0.0324  1.8818 -2.4177
   9023SM   C6S12072   8.166   1.413  12.947 -0.1659  0.5353 -0.3485
   9023SM   H6S12073   8.175   1.524  12.942 -1.6179  0.6454 -0.8019
   9023SM   H6T12074   8.253   1.377  12.889 -0.9892 -2.9681  0.3495
   9023SM   C7S12075   8.195   1.377  13.101  0.6634  0.3042  0.4173
   9023SM   H7S12076   8.110   1.413  13.162 -1.0750 -0.6598 -1.3414
   9023SM   H7T12077   8.280   1.436  13.141  0.0112  1.0625  0.7171
   9023SM   C8S12078   8.217   1.232  13.136 -0.2560 -0.3380  0.4550
   9023SM   H8S12079   8.128   1.173  13.103  0.0852  0.0005 -1.1333
   9023SM   H8T12080   8.222   1.232  13.247  0.6083  3.4743  0.5321
   9023SM   C9S12081   8.347   1.179  13.081 -0.0958 -0.1146 -0.3038
   9023SM   H9S12082   8.426   1.256  13.092  0.5861 -0.4789 -2.2501
   9023SM   H9T12083   8.342   1.176  12.970  1.6027 -0.7776 -0.4011
   9023SM  C10S12084   8.391   1.043  13.144  0.8000  0.6175  0.2083
   9023SM  H10S12085   8.421   1.052  13.250 -0.0194  1.3918  0.3863
   9023SM  H10T12086   8.486   1.013  13.094  0.3479  0.1782 -0.3994
   9023SM  C11S12087   8.282   0.936  13.129  0.7873 -0.2722  0.0915
   9023SM  H11S12088   8.258   0.920  13.022  1.7738  4.1151 -0.9863
   9023SM  H11T12089   8.186   0.965  13.178  0.7872  0.5577 -0.3718
   9023SM  C12S12090   8.329   0.797  13.175 -0.0491  0.1387 -0.3806
   9023SM  H12S12091   8.375   0.803  13.276  1.3838  2.9114 -1.0920
   9023SM  H12T12092   8.421   0.771  13.118  0.1725 -3.4829  1.3563
   9023SM  C13S12093   8.241   0.679  13.154  0.4350 -0.2560  0.1167
   9023SM  H13S12094   8.293   0.590  13.114  1.5981  0.6476 -0.4622
   9023SM  H13T12095   8.161   0.707  13.083 -0.2496  0.3424  1.0924
   9023SM  C14S12096   8.165   0.640  13.280  0.1872  0.2654 -0.4482
   9023SM  H14S12097   8.116   0.729  13.325 -1.7857 -1.0889  0.2650
   9023SM  H14T12098   8.235   0.615  13.363 -0.8386 -2.9599 -0.3947
   9023SM  C15S12099   8.064   0.530  13.259  0.0157 -0.0496 -0.2140
   9023SM  H15S12100   8.109   0.449  13.197  0.0416  0.2028 -0.5298
   9023SM  H15T12101   7.980   0.574  13.202 -1.1973 -1.6627  0.2611
   9023SM  C16S12102   7.986   0.469  13.382 -0.3170 -0.0195 -0.3549
   9023SM  H16S12103   7.938   0.549  13.441  0.2096 -0.4876  0.7281
   9023SM  H16T12104   8.044   0.410  13.456 -3.4835 -2.0540  0.6857
   9023SM  C17S12105   7.870   0.381  13.331 -0.9331  0.3643  0.2657
   9023SM  H17S12106   7.910   0.318  13.249 -1.2884  0.8039 -0.2601
   9023SM  H17T12107   7.792   0.448  13.288  0.0776  1.2786 -0.2020
   9023SM  C18S12108   7.816   0.298  13.444 -0.2036 -0.5101 -0.2282
   9023SM  H18S12109   7.712   0.269  13.422  0.2013 -1.1237 -1.4016
   9023SM  H18T12110   7.806   0.363  13.534  1.7070 -1.8430  1.0480
   9023SM  H18U12111   7.870   0.205  13.471  0.3669 -0.2638 -0.4835
   9023SM   C1F12112   7.926   0.908  12.963 -0.0634 -0.2625  0.4577
   9023SM    OF12113   7.977   0.815  12.907  0.5305 -0.4586  0.5305
   9023SM   C2F12114   7.876   0.900  13.104  0.2153  0.1388 -0.6872
   9023SM   H2F12115   7.845   1.004  13.125  1.2041  0.9964 -3.1802
   9023SM   H2G12116   7.967   0.883  13.166  0.5532  0.7221 -1.0117
   9023SM   C3F12117   7.774   0.788  13.129  0.1683 -0.0752 -0.0769
   9023SM   H3F12118   7.837   0.700  13.104  2.3747  1.1243  0.9587
   9023SM   H3G12119   7.691   0.790  13.055 -0.9662  0.5996  1.1568
   9023SM   C4F12120   7.714   0.770  13.269 -0.2739 -0.7295 -0.7408
   9023SM   H4F12121   7.794   0.749  13.342 -0.8085 -1.9895 -0.4928
   9023SM   H4G12122   7.646   0.683  13.264 -2.0750  0.5869 -0.2996
   9023SM   C5F12123   7.640   0.897  13.319  0.5791 -0.1561  0.3222
   9023SM   H5F12124   7.567   0.925  13.240  1.2566 -0.3716 -0.3824
   9023SM   H5G12125   7.708   0.983  13.340  1.5554 -0.4756 -1.3501
   9023SM   C6F12126   7.553   0.889  13.444  0.1092  0.6957 -0.6105
   9023SM   H6F12127   7.477   0.810  13.423  0.3122  0.8553 -2.0468
   9023SM   H6G12128   7.490   0.980  13.444  0.0021  0.6444 -2.2605
   9023SM   C7F12129   7.637   0.884  13.572 -0.2919  0.3682 -0.5017
   9023SM   H7F12130   7.692   0.976  13.602 -1.8699  0.3180  3.0906
   9023SM   H7G12131   7.714   0.805  13.566 -0.6205 -0.1534  1.3587
   9023SM   C8F12132   7.552   0.865  13.698 -0.2871 -0.2165 -0.1120
   9023SM   H8F12133   7.478   0.948  13.706  0.9853  0.8990  0.5759
   9023SM   H8G12134   7.613   0.900  13.784 -0.6730  0.7674 -0.2211
   9023SM   C9F12135   7.504   0.721  13.719  0.4964  0.0523  0.2633
   9023SM   H9F12136   7.429   0.693  13.641 -1.0024 -1.1251  2.0470
   9023SM   H9G12137   7.444   0.709  13.811  1.5376 -2.4677  0.6803
   9023SM  C10F12138   7.606   0.610  13.726  0.2465  0.4279  0.0210
   9023SM  H10F12139   7.654   0.595  13.627  1.2444  2.2138  0.2114
   9023SM  H10G12140   7.546   0.518  13.745 -1.0107  1.5032  1.4924
   9023SM  C11F12141   7.712   0.634  13.826 -0.4082 -0.4303  0.2654
   9023SM  H11F12142   7.759   0.734  13.816  1.4200 -1.2730 -0.0342
   9023SM  H11G12143   7.789   0.557  13.803 -1.8159 -2.3661  1.6980
   9023SM  C12F12144   7.672   0.627  13.977  0.5226 -0.0269 -0.4279
   9023SM  H12F12145   7.626   0.528  13.999  0.7390 -0.0833 -0.2216
   9023SM  H12G12146   7.591   0.703  13.983 -0.4619 -1.1584  1.8083
   9023SM  C13F12147   7.797   0.654  14.061  0.4593  0.1524 -0.1058
   9023SM  H13F12148   7.844   0.750  14.028 -1.3467  1.2797  0.4785
   9023SM  H13G12149   7.877   0.581  14.036 -0.7230 -1.0420 -0.4853
   9023SM  C14F12150   7.768   0.661  14.213  0.4607 -0.4590 -0.8708
   9023SM  H14F12151   7.741   0.560  14.249  0.6358 -0.3737 -0.4919
   9023SM  H14G12152   7.684   0.733  14.213  2.1193  1.6263 -1.8843
   9023SM  C15F12153   7.886   0.724  14.287 -1.4057 -0.3683 -0.1352
   9023SM  H15F12154   7.865   0.732  14.396  1.4026  0.7345  0.4251
   9023SM  H15G12155   7.915   0.827  14.256  1.6787 -0.4922  1.8801
   9023SM  C16F12156   8.012   0.631  14.278  0.7873 -0.4375  0.8633
   9023SM  H16F12157   8.044   0.637  14.171  1.5742  0.6954  1.1460
   9023SM  H16G12158   7.983   0.526  14.299 -1.9348  0.0660 -0.0458
   9023SM  C17F12159   8.133   0.671  14.367  0.4623 -0.2279  0.2989
   9023SM  H17F12160   8.160   0.778  14.355 -1.7402  0.5904  1.9497
   9023SM  H17G12161   8.214   0.601  14.335 -0.2819 -0.0040 -2.2662
   9023SM  C18F12162   8.101   0.664  14.517  0.3790 -0.6221  0.3470
   9023SM  H18F12163   8.024   0.739  14.545  0.3278 -1.0513  1.4140
   9023SM  H18G12164   8.194   0.695  14.568  1.2631 -0.8852 -1.0617
   9023SM  C19F12165   8.054   0.527  14.556 -0.0737 -0.2799  0.6642
   9023SM  H19F12166   8.117   0.451  14.504  0.6873  1.3395 -0.8847
   9023SM  H19G12167   7.951   0.518  14.516  0.7107 -3.2787 -1.0513
   9023SM  C20F12168   8.044   0.502  14.706 -0.3097  0.3946  0.4538
   9023SM  H20F12169   7.990   0.589  14.750 -1.0371  1.1719 -1.8166
   9023SM  H20G12170   8.142   0.507  14.758 -0.9280 -1.8522  1.9096
   9023SM  C21F12171   7.998   0.364  14.743 -0.1237  0.3280 -0.4212
   9023SM  H21F12172   8.070   0.282  14.723 -1.7560 -0.9161 -1.3952
   9023SM  H21G12173   7.908   0.330  14.687 -2.0390  2.2016  1.3488
   9023SM  C22F12174   7.948   0.374  14.886  0.5411  0.1559  0.5686
   9023SM  H22F12175   7.886   0.466  14.896  0.4330  0.1707 -0.1984
   9023SM  H22G12176   8.029   0.396  14.959  1.2271 -0.1188 -0.0898
   9023SM  C23F12177   7.873   0.243  14.925  0.0172  0.3096  0.0800
   9023SM  H23F12178   7.870   0.245  15.036 -0.3407  2.0595  0.0650
   9023SM  H23G12179   7.926   0.151  14.892 -1.8813 -0.2943 -1.4967
   9023SM  H23H12180   7.771   0.246  14.882 -0.4691 -0.0192  1.1810
   9123SM     N12181   7.631   3.767  11.966 -0.7028 -0.4699 -0.4718
   9123SM   C1512182   7.766   3.697  11.961  0.4542  0.2718  0.2525
   9123SM  H15A12183   7.798   3.681  11.859  0.3007 -0.2782  0.2869
   9123SM  H15B12184   7.756   3.603  12.013 -0.8782 -0.1189 -0.6420
   9123SM  H15C12185   7.838   3.758  12.012  0.3713 -0.5778  1.4169
   9123SM   C1412186   7.522   3.680  11.908  0.0934 -0.3730 -0.6652
   9123SM  H14A12187   7.533   3.650  11.805  1.7452  0.0225 -0.6276
   9123SM  H14B12188   7.433   3.742  11.899  1.2349  1.3154 -0.7876
   9123SM  H14C12189   7.496   3.593  11.966 -0.4997  0.2313 -0.0060
   9123SM   C1312190   7.600   3.806  12.106 -0.1633  0.4575 -0.1761
   9123SM  H13A12191   7.604   3.729  12.182 -1.2957 -0.5771 -1.1065
   9123SM  H13B12192   7.497   3.838  12.117 -0.5333 -1.2208  2.1050
   9123SM  H13C12193   7.665   3.889  12.129 -0.2841  0.9462 -1.5311
   9123SM   C1212194   7.642   3.902  11.905 -0.4009 -0.2732 -0.1687
   9123SM  H12A12195   7.679   3.890  11.805  2.7309  2.4192  0.4796
   9123SM  H12B12196   7.724   3.952  11.956 -2.0882 -0.2832  2.7645
   9123SM   C1112197   7.521   3.995  11.897  0.5822 -0.1787 -0.2271
   9123SM  H11A12198   7.539   4.086  11.837 -1.8289  0.1685 -0.5295
   9123SM  H11B12199   7.496   4.036  11.997  1.5784 -1.2237  0.4794
   9123SM     P12200   7.259   3.980  11.857 -0.0616  0.0409 -0.0065
   9123SM   O1312201   7.252   4.116  11.796  0.4817  0.0691 -0.0734
   9123SM   O1412202   7.173   3.876  11.797  0.0252  0.0623 -0.1216
   9123SM   O1112203   7.225   3.994  12.018  0.6774 -0.0592 -0.0226
   9123SM   O1212204   7.405   3.929  11.850  1.0677  0.3775  0.7821
   9123SM   C1S12205   7.216   3.874  12.099  0.3423  0.0929 -0.1503
   9123SM   H1S12206   7.319   3.835  12.110  0.3864  0.7331  2.3793
   9123SM   H1T12207   7.151   3.795  12.056 -0.0033 -0.5976  1.5336
   9123SM    NF12208   7.178   3.806  12.336  0.2476  0.4408  0.6566
   9123SM   HNF12209   7.102   3.749  12.366  1.0290 -1.1746 -0.3200
   9123SM   C2S12210   7.160   3.914  12.243  0.2763  0.4000  0.0603
   9123SM   H2S12211   7.218   4.006  12.266  0.9496  0.2075 -0.7932
   9123SM   C3S12212   7.013   3.960  12.238 -0.4968 -0.3591 -0.4233
   9123SM   H3S12213   6.952   3.871  12.214 -1.2736  0.1205 -0.2514
   9123SM    O312214   6.979   4.064  12.137  0.0556  0.7555  0.0080
   9123SM   HO312215   7.034   4.038  12.062  1.7604  1.2324  1.0434
   9123SM   C4S12216   6.978   4.008  12.378  0.3669 -0.3477  0.1502
   9123SM   H4S12217   6.983   3.922  12.445  1.0607  0.5734  1.3192
   9123SM   C5S12218   6.935   4.128  12.419  0.0320  0.5229  0.2575
   9123SM   H5S12219   6.921   4.212  12.349 -1.2897 -0.3916 -0.6111
   9123SM   C6S12220   6.868   4.152  12.556 -0.0074  0.1390  0.2563
   9123SM   H6S12221   6.763   4.182  12.535 -0.0183 -1.1305 -1.7594
   9123SM   H6T12222   6.915   4.238  12.608  0.2073 -1.7049  3.3878
   9123SM   C7S12223   6.843   4.041  12.646 -0.3782 -0.4577 -0.7437
   9123SM   H7S12224   6.935   3.988  12.677 -0.2544 -0.0878 -0.4705
   9123SM   H7T12225   6.785   3.962  12.593 -2.8490  0.5200  0.3438
   9123SM   C8S12226   6.771   4.086  12.777 -0.0227  0.4135  0.0153
   9123SM   H8S12227   6.735   4.003  12.841 -2.6100  1.0765 -0.4605
   9123SM   H8T12228   6.688   4.152  12.742  2.5093  2.5088 -2.5137
   9123SM   C9S12229   6.863   4.171  12.857 -0.1294 -0.1604  0.0320
   9123SM   H9S12230   6.908   4.259  12.807  2.3858 -1.5746 -0.3531
   9123SM   H9T12231   6.954   4.114  12.884  1.9503  2.4298 -0.9574
   9123SM  C10S12232   6.801   4.210  12.990  0.4097  0.0715 -0.2284
   9123SM  H10S12233   6.759   4.121  13.041 -1.6530 -0.6941 -3.0634
   9123SM  H10T12234   6.717   4.282  12.979  1.7747  1.8429  0.4436
   9123SM  C11S12235   6.895   4.285  13.089  0.8716 -1.1067  0.4563
   9123SM  H11S12236   6.952   4.359  13.029  0.8081 -0.2826  1.3945
   9123SM  H11T12237   6.976   4.221  13.131  0.7479 -0.9567  0.9270
   9123SM  C12S12238   6.809   4.341  13.203  0.1135  0.0335  0.2341
   9123SM  H12S12239   6.744   4.274  13.262  0.0947  1.2379  1.6486
   9123SM  H12T12240   6.737   4.419  13.170 -0.0164 -0.1338  0.1185
   9123SM  C13S12241   6.891   4.416  13.310 -0.4109 -0.3726 -0.0309
   9123SM  H13S12242   6.972   4.476  13.264 -0.0835 -0.3116  0.6074
   9123SM  H13T12243   6.948   4.334  13.360  0.1948  0.5413  0.8092
   9123SM  C14S12244   6.806   4.508  13.395  0.3653 -0.2218 -0.1784
   9123SM  H14S12245   6.732   4.457  13.461 -0.8053  0.4236 -0.9499
   9123SM  H14T12246   6.736   4.578  13.345  2.1823  1.2654 -0.7446
   9123SM  C15S12247   6.896   4.588  13.482  0.4498 -0.5815 -0.4464
   9123SM  H15S12248   6.969   4.642  13.418 -0.9763  0.9807 -0.7994
   9123SM  H15T12249   6.945   4.523  13.558  0.8948 -1.3876 -1.3931
   9123SM  C16S12250   6.826   4.693  13.581  0.4162 -0.0034  0.8086
   9123SM  H16S12251   6.790   4.775  13.515  0.2859  0.6429  1.6576
   9123SM  H16T12252   6.904   4.741  13.644 -1.4353  2.1749  1.5879
   9123SM  C17S12253   6.709   4.646  13.660 -0.8599 -0.3544 -0.5882
   9123SM  H17S12254   6.737   4.560  13.725  3.0512  2.0072  1.1635
   9123SM  H17T12255   6.632   4.608  13.589 -1.3655 -0.7539  0.1644
   9123SM  C18S12256   6.642   4.762  13.746 -0.5377 -0.0267 -0.5086
   9123SM  H18S12257   6.551   4.723  13.795 -0.5613  0.2037 -0.3703
   9123SM  H18T12258   6.625   4.850  13.681  0.8936 -0.2732 -1.2603
   9123SM  H18U12259   6.704   4.785  13.835  1.3317 -1.9578 -1.2114
   9123SM   C1F12260   7.293   3.771  12.390 -0.0604  0.5364  0.7105
   9123SM    OF12261   7.394   3.841  12.394  0.4817 -0.2959  0.1945
   9123SM   C2F12262   7.288   3.630  12.446  0.2603 -0.9869 -0.3525
   9123SM   H2F12263   7.320   3.561  12.365 -1.8773  0.7192 -2.8115
   9123SM   H2G12264   7.182   3.605  12.467 -0.3551  1.7004  0.1501
   9123SM   C3F12265   7.368   3.625  12.578 -0.1241  0.2328 -0.2558
   9123SM   H3F12266   7.312   3.687  12.651 -0.6044 -0.2510 -0.2085
   9123SM   H3G12267   7.473   3.660  12.565 -0.9256  2.7715 -0.4147
   9123SM   C4F12268   7.378   3.480  12.635 -0.3751 -0.2685 -0.1020
   9123SM   H4F12269   7.446   3.425  12.566  2.1433  1.8596  0.4969
   9123SM   H4G12270   7.273   3.445  12.630 -0.3538 -0.5217  1.0199
   9123SM   C5F12271   7.431   3.466  12.778 -0.0185  0.1364  0.0313
   9123SM   H5F12272   7.535   3.503  12.787 -0.2943  0.6280  1.2612
   9123SM   H5G12273   7.426   3.355  12.788 -2.0254 -0.4979 -4.7323
   9123SM   C6F12274   7.350   3.535  12.890 -0.5664  0.2656 -0.2200
   9123SM   H6F12275   7.240   3.533  12.873 -0.4043 -0.2985 -1.3179
   9123SM   H6G12276   7.375   3.643  12.894 -1.8892  0.5687  0.4798
   9123SM   C7F12277   7.387   3.470  13.026  0.3517  0.2508  0.6665
   9123SM   H7F12278   7.490   3.479  13.064  1.4718 -0.0411 -2.0664
   9123SM   H7G12279   7.381   3.361  13.007  0.0063 -0.0006  2.0878
   9123SM   C8F12280   7.303   3.501  13.148  0.1230  0.5558  0.6621
   9123SM   H8F12281   7.195   3.477  13.136  0.4750 -0.4378 -0.9328
   9123SM   H8G12282   7.320   3.606  13.179  1.1627  0.5732  0.1024
   9123SM   C9F12283   7.339   3.416  13.273  0.1202  0.6452  0.2653
   9123SM   H9F12284   7.446   3.411  13.304  0.3036 -2.8783 -0.4634
   9123SM   H9G12285   7.299   3.313  13.278  0.2335  0.4786 -1.5318
   9123SM  C10F12286   7.260   3.481  13.385  0.2727 -0.5282  0.8494
   9123SM  H10F12287   7.154   3.460  13.357  0.3727  0.0808 -0.0269
   9123SM  H10G12288   7.286   3.588  13.404 -0.5342 -0.2382  0.4185
   9123SM  C11F12289   7.301   3.425  13.519 -0.2122  0.7895 -0.2331
   9123SM  H11F12290   7.404   3.460  13.542 -1.1778  1.3220  4.0412
   9123SM  H11G12291   7.297   3.314  13.514  0.1117  0.7939 -0.6426
   9123SM  C12F12292   7.222   3.474  13.641 -0.3158 -0.2262 -0.0928
   9123SM  H12F12293   7.240   3.403  13.724  2.6396 -0.3689 -0.7377
   9123SM  H12G12294   7.116   3.490  13.614 -0.3909  1.0801  0.8680
   9123SM  C13F12295   7.256   3.619  13.688 -0.6700 -0.6579 -0.6246
   9123SM  H13F12296   7.239   3.694  13.607 -1.5317 -0.1205  0.0349
   9123SM  H13G12297   7.365   3.620  13.705 -0.2533  1.2849 -2.8069
   9123SM  C14F12298   7.184   3.661  13.815  0.0238  0.4772  0.6673
   9123SM  H14F12299   7.221   3.586  13.888  1.4830 -0.8266 -1.3098
   9123SM  H14G12300   7.076   3.635  13.805 -0.0161 -0.2268  2.4800
   9123SM  C15F12301   7.217   3.802  13.861  0.4152 -0.6955  0.1216
   9123SM  H15F12302   7.175   3.881  13.794 -1.3151 -1.4493  0.2474
   9123SM  H15G12303   7.327   3.807  13.868  0.3134  1.5609  0.9227
   9123SM  C16F12304   7.164   3.830  14.001 -0.4013 -0.5431  0.5964
   9123SM  H16F12305   7.182   3.739  14.062  3.5589 -0.0671  0.4560
   9123SM  H16G12306   7.056   3.855  14.002 -0.2512  0.1200  0.7231
   9123SM  C17F12307   7.241   3.938  14.075  0.5454 -0.1716  0.1236
   9123SM  H17F12308   7.224   4.035  14.025 -1.6977 -0.7083 -0.2566
   9123SM  H17G12309   7.349   3.915  14.064  0.3412 -0.5692 -1.2409
   9123SM  C18F12310   7.193   3.958  14.223 -0.4157  0.7787  0.0552
   9123SM  H18F12311   7.082   3.950  14.222 -0.3953  0.2652 -1.9394
   9123SM  H18G12312   7.213   4.060  14.262  1.0864  0.7071 -0.4764
   9123SM  C19F12313   7.255   3.861  14.326 -0.4748  0.1608  0.2993
   9123SM  H19F12314   7.365   3.873  14.331 -0.4528  0.6142 -0.8404
   9123SM  H19G12315   7.229   3.758  14.291  1.8496 -0.5133  0.4252
   9123SM  C20F12316   7.205   3.884  14.464 -0.5817  0.1299 -0.1952
   9123SM  H20F12317   7.109   3.830  14.464 -0.3321 -0.4440  2.6327
   9123SM  H20G12318   7.186   3.992  14.483 -0.5928  0.0679  0.1387
   9123SM  C21F12319   7.292   3.818  14.570 -0.8513 -0.3474  0.2220
   9123SM  H21F12320   7.389   3.870  14.571  0.3956 -2.5341 -0.4401
   9123SM  H21G12321   7.326   3.716  14.543 -1.3059 -0.6473  0.7482
   9123SM  C22F12322   7.240   3.828  14.718  0.6989  0.4766  0.2350
   9123SM  H22F12323   7.314   3.773  14.779 -0.2934 -2.0176 -0.6863
   9123SM  H22G12324   7.141   3.779  14.712 -0.0634  1.9726 -0.0537
   9123SM  C23F12325   7.241   3.974  14.756  0.3919 -0.5458  0.0893
   9123SM  H23F12326   7.175   4.030  14.686 -0.3244 -1.6994 -0.1840
   9123SM  H23G12327   7.343   4.016  14.749  0.7448 -1.1383  1.4134
   9123SM  H23H12328   7.209   3.986  14.862 -0.2074 -0.5671 -0.0830
   9223SM     N12329   7.550   1.583  12.194 -0.0048 -0.0319  0.6551
   9223SM   C1512330   7.537   1.471  12.090 -0.3314  0.0533  0.9901
   9223SM  H15A12331   7.523   1.517  11.993  0.7105  1.0905  1.3114
   9223SM  H15B12332   7.446   1.416  12.111 -0.8730  0.4700 -0.1601
   9223SM  H15C12333   7.618   1.401  12.080 -2.2746 -2.2322  0.3223
   9223SM   C1412334   7.675   1.662  12.159  0.7973  0.5350  0.0923
   9223SM  H14A12335   7.764   1.628  12.209  1.3102  1.2330 -0.3250
   9223SM  H14B12336   7.660   1.762  12.197 -4.2386  0.4102 -0.9315
   9223SM  H14C12337   7.689   1.671  12.052  0.7719  1.5501  0.1652
   9223SM   C1312338   7.435   1.679  12.173 -0.1719  0.3084  0.4215
   9223SM  H13A12339   7.431   1.738  12.264  0.0452 -2.3919  2.3283
   9223SM  H13B12340   7.342   1.626  12.158 -0.6864  1.1108  0.7023
   9223SM  H13C12341   7.455   1.733  12.082  1.1479  0.2066  0.6300
   9223SM   C1212342   7.556   1.535  12.337 -0.5717  0.6654  0.1955
   9223SM  H12A12343   7.592   1.618  12.396 -0.9366  2.0498 -1.4542
   9223SM  H12B12344   7.627   1.453  12.340  0.8443  1.8167 -0.2675
   9223SM   C1112345   7.423   1.497  12.406 -0.0224  0.1047  0.0932
   9223SM  H11A12346   7.454   1.423  12.483 -0.4053  0.5739  0.7061
   9223SM  H11B12347   7.374   1.441  12.324 -0.5791 -1.4546  1.4287
   9223SM     P12348   7.209   1.577  12.516  0.5048 -0.0701  0.0048
   9223SM   O1312349   7.177   1.690  12.606 -0.2152  0.1483  0.3833
   9223SM   O1412350   7.100   1.552  12.422  0.1156  0.1729  0.3303
   9223SM   O1112351   7.236   1.446  12.602 -0.2452 -0.3398  0.1770
   9223SM   O1212352   7.344   1.607  12.438 -0.3198  0.7542  0.0067
   9223SM   C1S12353   7.335   1.449  12.704  0.0091 -0.7269 -0.2851
   9223SM   H1S12354   7.402   1.538  12.707  0.5622 -1.1483  0.2692
   9223SM   H1T12355   7.400   1.359  12.711 -0.2902 -0.8974  0.4563
   9223SM    NF12356   7.353   1.454  12.956 -0.5909 -0.1302 -0.9903
   9223SM   HNF12357   7.390   1.372  12.997  1.3163  1.2078  0.1138
   9223SM   C2S12358   7.257   1.434  12.843 -0.6378  0.3419  0.6347
   9223SM   H2S12359   7.185   1.519  12.850 -1.0462  0.0482  0.0279
   9223SM   C3S12360   7.179   1.305  12.856  0.2673  0.3516  0.2008
   9223SM   H3S12361   7.238   1.211  12.863 -2.9392 -1.8853 -0.1715
   9223SM    O312362   7.099   1.267  12.738  0.6678 -0.5056  0.4241
   9223SM   HO312363   7.132   1.328  12.672 -0.7156 -0.8330 -0.6306
   9223SM   C4S12364   7.078   1.310  12.968 -0.1177 -0.1207  0.7897
   9223SM   H4S12365   7.031   1.409  12.969 -1.5272 -0.7263 -0.5827
   9223SM   C5S12366   7.053   1.205  13.055  0.2841  0.0724 -0.3428
   9223SM   H5S12367   7.097   1.106  13.035  0.3293 -0.0980  0.5461
   9223SM   C6S12368   6.966   1.210  13.173  0.0910 -0.0566  0.1352
   9223SM   H6S12369   6.874   1.150  13.157  0.4154 -0.5521  0.0905
   9223SM   H6T12370   6.928   1.312  13.196 -0.2477 -0.4830  1.5742
   9223SM   C7S12371   7.035   1.154  13.299  0.1875 -0.4756  0.0865
   9223SM   H7S12372   6.964   1.181  13.380 -1.0521 -2.1844 -0.3857
   9223SM   H7T12373   7.139   1.190  13.319 -0.0290 -0.9226  2.2406
   9223SM   C8S12374   7.047   0.998  13.301 -0.5405 -0.3607  0.1320
   9223SM   H8S12375   7.091   0.977  13.201 -2.0714 -0.3059 -0.5819
   9223SM   H8T12376   6.950   0.943  13.295 -1.3494  0.9159  0.8948
   9223SM   C9S12377   7.142   0.942  13.409 -0.0967 -0.1296  0.1923
   9223SM   H9S12378   7.096   0.975  13.505  0.5551 -0.9688  0.8038
   9223SM   H9T12379   7.236   1.001  13.405 -0.7091  0.8218 -0.6751
   9223SM  C10S12380   7.165   0.797  13.396 -0.4366  0.2335  0.1229
   9223SM  H10S12381   7.259   0.785  13.338  1.2543  1.2230  2.5073
   9223SM  H10T12382   7.082   0.742  13.346 -0.6448  0.7167 -0.0635
   9223SM  C11S12383   7.201   0.734  13.534 -0.9741 -0.0436  0.2858
   9223SM  H11S12384   7.268   0.803  13.589 -0.1970  0.7717 -1.5986
   9223SM  H11T12385   7.245   0.634  13.512 -1.5240 -0.1109 -0.5441
   9223SM  C12S12386   7.079   0.707  13.619  0.2206  1.0661 -1.0272
   9223SM  H12S12387   7.017   0.632  13.567  0.8922  0.3083 -0.7468
   9223SM  H12T12388   7.013   0.791  13.651 -0.5288 -0.4168  1.6593
   9223SM  C13S12389   7.133   0.639  13.752  0.2653  0.2685 -0.2407
   9223SM  H13S12390   7.216   0.705  13.786 -1.5040  1.2577  2.4168
   9223SM  H13T12391   7.188   0.548  13.719 -1.2447 -0.9748  0.5636
   9223SM  C14S12392   7.021   0.600  13.855 -0.4146  0.2332 -0.0403
   9223SM  H14S12393   7.058   0.507  13.902  3.4984 -0.2188 -3.4139
   9223SM  H14T12394   6.929   0.590  13.793 -0.0848 -0.5763 -0.4057
   9223SM  C15S12395   6.998   0.701  13.967  0.5992  0.2139 -0.1905
   9223SM  H15S12396   6.987   0.807  13.938  1.2101  0.1866 -0.5357
   9223SM  H15T12397   7.077   0.697  14.045 -1.0141  0.9607  1.5684
   9223SM  C16S12398   6.864   0.660  14.035  0.3623  0.2154  0.0018
   9223SM  H16S12399   6.882   0.554  14.064  0.5283  0.1015 -0.5150
   9223SM  H16T12400   6.783   0.663  13.959 -0.8536 -1.7634  1.1263
   9223SM  C17S12401   6.828   0.742  14.161 -0.0531  0.4755 -0.6330
   9223SM  H17S12402   6.827   0.850  14.134  4.4229  1.4298  2.0754
   9223SM  H17T12403   6.914   0.733  14.230 -0.1338  1.3916 -0.4029
   9223SM  C18S12404   6.693   0.710  14.235 -0.0969 -0.0498  1.1299
   9223SM  H18S12405   6.613   0.757  14.176  2.1199  2.7156  0.0981
   9223SM  H18T12406   6.696   0.762  14.333 -0.9030  1.0642  0.5781
   9223SM  H18U12407   6.661   0.604  14.238  0.8483 -0.5395 -2.1142
   9223SM   C1F12408   7.406   1.570  12.998 -0.2185 -0.5470 -0.2122
   9223SM    OF12409   7.364   1.670  12.940 -0.0742  0.1592  0.1563
   9223SM   C2F12410   7.502   1.568  13.112 -0.2603  0.0578  0.2474
   9223SM   H2F12411   7.484   1.486  13.185 -2.4131  0.6064  0.3872
   9223SM   H2G12412   7.491   1.661  13.173  1.5905  0.3709  0.1653
   9223SM   C3F12413   7.644   1.562  13.059 -0.5656 -0.0698 -0.2004
   9223SM   H3F12414   7.662   1.643  12.985  1.7352 -0.3425 -0.0038
   9223SM   H3G12415   7.661   1.468  13.003  0.1411 -0.9075  1.3636
   9223SM   C4F12416   7.737   1.550  13.180 -0.1939 -0.3783  0.5368
   9223SM   H4F12417   7.715   1.617  13.266  1.2828  1.9298 -0.7558
   9223SM   H4G12418   7.836   1.598  13.163 -0.1599 -0.7126 -0.2353
   9223SM   C5F12419   7.765   1.403  13.222 -0.1031 -0.6151 -0.1531
   9223SM   H5F12420   7.820   1.361  13.136  1.7746  1.1057  0.1285
   9223SM   H5G12421   7.664   1.356  13.229 -0.2562 -0.2519  0.0747
   9223SM   C6F12422   7.838   1.379  13.357  0.1014  0.4569 -0.1599
   9223SM   H6F12423   7.931   1.438  13.351 -0.0225  0.8680  1.4310
   9223SM   H6G12424   7.863   1.271  13.367  0.6366  0.5338 -0.6621
   9223SM   C7F12425   7.760   1.417  13.485 -0.3205 -0.2726  0.5549
   9223SM   H7F12426   7.728   1.524  13.489 -1.2799 -0.5480  0.4201
   9223SM   H7G12427   7.826   1.406  13.574 -1.3887  0.3476  1.4558
   9223SM   C8F12428   7.635   1.327  13.511 -0.5058 -0.3169  1.0028
   9223SM   H8F12429   7.677   1.225  13.526  1.2789  0.3848  1.0339
   9223SM   H8G12430   7.570   1.325  13.421 -0.4266  0.0664  0.9335
   9223SM   C9F12431   7.555   1.356  13.634 -0.3093  0.1478 -0.2386
   9223SM   H9F12432   7.527   1.463  13.645  1.6457  0.4700  3.0856
   9223SM   H9G12433   7.623   1.342  13.721 -0.7564  0.5302  0.1709
   9223SM  C10F12434   7.435   1.264  13.663  0.0769  0.3189 -0.2823
   9223SM  H10F12435   7.470   1.164  13.630 -1.1573  0.7540 -3.2736
   9223SM  H10G12436   7.355   1.294  13.592 -0.5647 -2.3848 -0.7888
   9223SM  C11F12437   7.378   1.262  13.805  0.0046 -0.0428 -0.6773
   9223SM  H11F12438   7.349   1.362  13.843  1.7537  0.6198 -1.0340
   9223SM  H11G12439   7.451   1.220  13.877 -1.0797  1.4817  1.4040
   9223SM  C12F12440   7.257   1.167  13.826 -0.5599 -0.0076 -0.4337
   9223SM  H12F12441   7.218   1.181  13.928 -0.0228 -0.9041 -0.0860
   9223SM  H12G12442   7.292   1.061  13.821  0.0096  0.1581 -0.0023
   9223SM  C13F12443   7.132   1.195  13.734  0.0416  0.6886 -0.0147
   9223SM  H13F12444   7.155   1.183  13.626 -1.6751 -1.1738 -0.2095
   9223SM  H13G12445   7.110   1.304  13.733 -0.0170  0.7085 -2.5718
   9223SM  C14F12446   7.001   1.122  13.764  0.0298 -0.1760  0.1485
   9223SM  H14F12447   6.999   1.019  13.721 -0.0932 -1.2327  2.5186
   9223SM  H14G12448   6.918   1.181  13.720  0.7780  1.0580  0.3531
   9223SM  C15F12449   6.971   1.099  13.912  0.1110  0.2923 -0.4663
   9223SM  H15F12450   7.051   1.033  13.952 -0.7340  0.4954  1.7124
   9223SM  H15G12451   6.876   1.041  13.920 -0.4678  1.3456  0.6713
   9223SM  C16F12452   6.960   1.228  13.996 -0.0703 -0.7679  0.3275
   9223SM  H16F12453   6.877   1.282  13.946  1.0035 -1.5304 -2.4561
   9223SM  H16G12454   7.040   1.303  13.979 -2.3948  1.5535 -1.1178
   9223SM  C17F12455   6.918   1.187  14.139  0.3049 -0.1421  0.1369
   9223SM  H17F12456   6.842   1.106  14.143  0.0135  0.1757  1.8441
   9223SM  H17G12457   6.869   1.270  14.194  3.2445  2.1091 -0.4408
   9223SM  C18F12458   7.039   1.146  14.226  0.4681  1.1685  0.6277
   9223SM  H18F12459   7.095   1.065  14.174 -1.2487 -1.3203  2.4029
   9223SM  H18G12460   7.013   1.119  14.331  0.0154 -1.4797 -0.0992
   9223SM  C19F12461   7.148   1.252  14.251 -0.2308 -0.0932  0.1345
   9223SM  H19F12462   7.113   1.357  14.258  2.0082  0.7470 -0.6204
   9223SM  H19G12463   7.233   1.249  14.179 -0.1214  1.2734  0.1945
   9223SM  C20F12464   7.204   1.224  14.391 -0.2066 -0.4007  0.3476
   9223SM  H20F12465   7.232   1.119  14.415  0.6711  0.0772  1.4783
   9223SM  H20G12466   7.121   1.256  14.457  0.4345  3.0430 -0.3307
   9223SM  C21F12467   7.326   1.307  14.435 -0.5451  0.2439 -0.6366
   9223SM  H21F12468   7.308   1.411  14.398  0.6277  0.2917 -1.1494
   9223SM  H21G12469   7.421   1.281  14.383  0.0035  1.2672 -0.1807
   9223SM  C22F12470   7.350   1.326  14.583 -0.6672  0.5352  0.2142
   9223SM  H22F12471   7.415   1.245  14.623 -0.0149  1.5828  1.3499
   9223SM  H22G12472   7.257   1.326  14.644 -1.3313  0.3767 -0.7789
   9223SM  C23F12473   7.415   1.461  14.622  0.0972  0.3869 -0.6065
   9223SM  H23F12474   7.373   1.545  14.564 -1.9608  0.6513  1.1398
   9223SM  H23G12475   7.519   1.455  14.584  0.6434 -0.0664  0.8851
   9223SM  H23H12476   7.416   1.485  14.731  2.0999  0.0082 -0.5082
   9323SM     N12477   8.439   3.496  12.117 -0.4879 -0.3648  0.3538
   9323SM   C1512478   8.548   3.580  12.168  0.3478  0.0238 -1.1472
   9323SM  H15A12479   8.614   3.611  12.088 -0.6594  0.0039 -2.0157
   9323SM  H15B12480   8.604   3.536  12.249 -0.4436 -1.4298 -1.3457
   9323SM  H15C12481   8.507   3.671  12.208  1.0201  0.4818 -1.4856
   9323SM   C1412482   8.378   3.560  11.995  0.1819  0.6649 -0.3694
   9323SM  H14A12483   8.439   3.539  11.908  0.1887 -0.3830 -0.1319
   9323SM  H14B12484   8.354   3.664  12.008  0.7659  0.8102 -0.4305
   9323SM  H14C12485   8.290   3.500  11.977  0.0855  0.8143 -0.3967
   9323SM   C1312486   8.505   3.367  12.067  0.6030  0.6908 -0.1158
   9323SM  H13A12487   8.440   3.289  12.030  1.1898  0.5700 -0.9144
   9323SM  H13B12488   8.554   3.329  12.156 -2.7853  0.8981  2.0073
   9323SM  H13C12489   8.577   3.394  11.991 -0.1900 -1.3091 -1.6671
   9323SM   C1212490   8.337   3.455  12.215 -0.1191 -0.2015 -0.5991
   9323SM  H12A12491   8.378   3.388  12.290  0.1495 -0.2908 -0.8208
   9323SM  H12B12492   8.258   3.398  12.169  0.9805 -2.0299 -0.3242
   9323SM   C1112493   8.262   3.573  12.289 -0.0674  0.7986  0.5207
   9323SM  H11A12494   8.183   3.528  12.352 -0.5866  1.1862  0.1460
   9323SM  H11B12495   8.221   3.638  12.209 -0.0957 -0.0970 -0.2056
   9323SM     P12496   8.385   3.595  12.524  0.0456  0.0972  0.1892
   9323SM   O1312497   8.395   3.447  12.518 -0.1040  0.5123 -0.7539
   9323SM   O1412498   8.497   3.676  12.576 -0.3061 -0.0093 -0.3199
   9323SM   O1112499   8.255   3.631  12.602  0.0666  0.0364  0.2885
   9323SM   O1212500   8.347   3.649  12.374 -0.1310  0.8581  0.4136
   9323SM   C1S12501   8.195   3.763  12.589  0.5530 -0.1012 -0.5504
   9323SM   H1S12502   8.112   3.774  12.517 -0.3795  1.1315  0.6555
   9323SM   H1T12503   8.265   3.844  12.561 -1.0965  1.0413 -1.5524
   9323SM    NF12504   8.060   3.933  12.718  0.0707 -0.2587 -0.0652
   9323SM   HNF12505   8.098   4.007  12.775 -0.1321 -1.3323  1.5413
   9323SM   C2S12506   8.131   3.810  12.723 -0.2035 -0.2705 -0.7203
   9323SM   H2S12507   8.055   3.734  12.749  0.2993 -0.7486 -0.6406
   9323SM   C3S12508   8.243   3.801  12.841 -0.0115 -0.0065  0.0461
   9323SM   H3S12509   8.330   3.865  12.819 -0.4541  0.5056 -0.2230
   9323SM    O312510   8.313   3.682  12.857 -0.2551  0.3674 -0.0355
   9323SM   HO312511   8.294   3.631  12.778  0.4439 -0.3300  0.2382
   9323SM   C4S12512   8.172   3.828  12.968  0.7694 -0.0480 -0.4327
   9323SM   H4S12513   8.078   3.772  12.982  0.2456  0.7616 -0.6185
   9323SM   C5S12514   8.196   3.931  13.051 -0.4190 -0.5579  0.5364
   9323SM   H5S12515   8.274   4.002  13.018 -2.3594  1.1700 -0.5998
   9323SM   C6S12516   8.125   3.970  13.180 -0.0057  0.5749  0.0686
   9323SM   H6S12517   8.025   3.925  13.192  0.0169  0.4854 -0.0769
   9323SM   H6T12518   8.108   4.077  13.208  0.0242 -0.1239  3.0529
   9323SM   C7S12519   8.204   3.920  13.305  0.0555 -0.4142  0.2739
   9323SM   H7S12520   8.303   3.971  13.293 -0.0039  0.2732  2.3123
   9323SM   H7T12521   8.224   3.811  13.296  1.8904 -0.1722  0.8752
   9323SM   C8S12522   8.144   3.958  13.441  0.1036  0.1949  0.1025
   9323SM   H8S12523   8.038   3.930  13.421 -0.6517  2.3264  0.8498
   9323SM   H8T12524   8.157   4.066  13.464 -0.1973  0.1904  0.2993
   9323SM   C9S12525   8.201   3.880  13.561 -0.4015 -0.0155  0.3085
   9323SM   H9S12526   8.162   3.776  13.559 -0.9077  0.1527  1.0387
   9323SM   H9T12527   8.151   3.930  13.646 -0.5351  0.6211 -0.1378
   9323SM  C10S12528   8.349   3.861  13.562  0.0060 -0.1507  0.0688
   9323SM  H10S12529   8.410   3.948  13.528 -0.0007 -0.6644 -1.3090
   9323SM  H10T12530   8.376   3.784  13.486 -2.0323  0.1022 -0.9819
   9323SM  C11S12531   8.413   3.819  13.694 -0.0734 -0.4486 -0.0389
   9323SM  H11S12532   8.425   3.900  13.769 -1.4921  0.1187 -0.3970
   9323SM  H11T12533   8.515   3.777  13.681  0.6041  0.2671  2.3252
   9323SM  C12S12534   8.323   3.709  13.759  0.1909 -0.7266 -0.3181
   9323SM  H12S12535   8.309   3.626  13.687 -1.3784 -1.3413  0.6499
   9323SM  H12T12536   8.218   3.736  13.782 -0.2304 -0.4864 -2.3640
   9323SM  C13S12537   8.391   3.670  13.887  0.7594 -0.0031 -0.6332
   9323SM  H13S12538   8.353   3.732  13.971  1.1389 -1.8998  1.0275
   9323SM  H13T12539   8.501   3.677  13.892  0.6401  2.7425 -0.6220
   9323SM  C14S12540   8.348   3.524  13.941 -0.5478  0.3320 -0.1863
   9323SM  H14S12541   8.397   3.449  13.876  0.2367 -0.1335  0.9050
   9323SM  H14T12542   8.239   3.528  13.921  0.0673 -0.8827 -5.0832
   9323SM  C15S12543   8.370   3.505  14.094  0.5681  0.0535  0.2203
   9323SM  H15S12544   8.345   3.596  14.151  0.6027 -0.0681  0.4319
   9323SM  H15T12545   8.297   3.434  14.139  0.9723  1.5214  3.4823
   9323SM  C16S12546   8.521   3.470  14.126  0.9469  0.4089  0.0212
   9323SM  H16S12547   8.580   3.561  14.106 -1.4723  2.6232  2.1536
   9323SM  H16T12548   8.549   3.383  14.064  0.4442 -1.4853  2.2842
   9323SM  C17S12549   8.544   3.447  14.279  0.5292 -0.2631 -0.1883
   9323SM  H17S12550   8.511   3.537  14.335  1.0407  1.0176 -1.8465
   9323SM  H17T12551   8.654   3.459  14.274  0.3798  1.5551  0.1254
   9323SM  C18S12552   8.497   3.308  14.319 -0.4245 -0.3315 -0.4165
   9323SM  H18S12553   8.535   3.233  14.247  0.5690 -0.3239  0.0798
   9323SM  H18T12554   8.387   3.299  14.316 -0.7106 -0.4723  3.8965
   9323SM  H18U12555   8.540   3.274  14.416  2.9681  0.7895 -1.3747
   9323SM   C1F12556   7.938   3.948  12.657  0.5694 -0.5311  0.2329
   9323SM    OF12557   7.889   3.868  12.579 -0.3576  0.0112  0.4879
   9323SM   C2F12558   7.859   4.071  12.701  0.0128  0.1466  0.0776
   9323SM   H2F12559   7.839   4.131  12.610 -0.9373  1.6229  1.2121
   9323SM   H2G12560   7.916   4.134  12.773 -1.6180 -2.5222  4.0760
   9323SM   C3F12561   7.717   4.037  12.769 -0.7424 -0.1966  0.6506
   9323SM   H3F12562   7.676   3.952  12.709 -0.6628 -2.0286  3.0004
   9323SM   H3G12563   7.649   4.123  12.757  0.1734  0.5478  0.7035
   9323SM   C4F12564   7.733   4.003  12.915 -0.1412  0.8515 -0.1643
   9323SM   H4F12565   7.772   4.091  12.970 -0.0542  0.3195  0.6324
   9323SM   H4G12566   7.794   3.913  12.937 -1.9270 -0.3555  0.0071
   9323SM   C5F12567   7.591   3.971  12.975  0.5740  0.0869 -0.4437
   9323SM   H5F12568   7.554   3.883  12.918 -0.2089  0.8106 -1.0723
   9323SM   H5G12569   7.523   4.059  12.965  1.0604  0.6965  1.3322
   9323SM   C6F12570   7.598   3.934  13.123  0.0465  0.1517 -0.0398
   9323SM   H6F12571   7.669   3.849  13.139  0.5446  0.7259  0.8783
   9323SM   H6G12572   7.506   3.876  13.144  1.3147 -1.5144  1.1909
   9323SM   C7F12573   7.619   4.056  13.216 -0.2602  0.3967 -1.3538
   9323SM   H7F12574   7.533   4.124  13.198 -0.8390  0.4069  1.1185
   9323SM   H7G12575   7.717   4.096  13.183  0.5446 -0.9957 -0.7411
   9323SM   C8F12576   7.626   4.010  13.361 -0.0957 -0.1681 -0.0654
   9323SM   H8F12577   7.717   3.948  13.381  2.1317  2.1050 -2.3860
   9323SM   H8G12578   7.539   3.943  13.375  0.5265 -0.8655  0.5844
   9323SM   C9F12579   7.631   4.118  13.464 -0.7589  0.3975 -0.1184
   9323SM   H9F12580   7.542   4.183  13.450 -3.4650 -2.9489  0.1388
   9323SM   H9G12581   7.728   4.172  13.456 -0.9602  1.0872  1.5982
   9323SM  C10F12582   7.632   4.050  13.606  0.3259 -0.7785 -0.4513
   9323SM  H10F12583   7.684   3.952  13.606 -0.8185 -1.5064  2.8696
   9323SM  H10G12584   7.526   4.032  13.635  0.8486 -0.4030  1.8707
   9323SM  C11F12585   7.696   4.134  13.723 -0.4975 -0.5577  0.4727
   9323SM  H11F12586   7.682   4.071  13.814  0.5022 -0.9336  0.3737
   9323SM  H11G12587   7.639   4.229  13.731  2.3057  1.3937 -1.2741
   9323SM  C12F12588   7.844   4.158  13.720 -0.9034 -0.1058 -0.3727
   9323SM  H12F12589   7.883   4.246  13.665  0.9707 -0.4725  0.2858
   9323SM  H12G12590   7.898   4.068  13.684  0.9126 -0.8446  3.6211
   9323SM  C13F12591   7.888   4.188  13.870 -0.1889  0.0196  0.5700
   9323SM  H13F12592   7.999   4.198  13.875 -0.3163  1.3859  1.1579
   9323SM  H13G12593   7.862   4.105  13.939  2.7810 -0.6045  1.0886
   9323SM  C14F12594   7.833   4.319  13.920  0.5289  0.3841 -0.4544
   9323SM  H14F12595   7.724   4.300  13.935  0.1741  1.7679 -1.0646
   9323SM  H14G12596   7.842   4.402  13.846  0.4380  0.3386 -0.5185
   9323SM  C15F12597   7.889   4.362  14.055  0.1325  0.7430  0.2165
   9323SM  H15F12598   7.997   4.387  14.047  0.4130 -0.2487  0.8197
   9323SM  H15G12599   7.880   4.283  14.132 -2.0117  0.4187 -0.3103
   9323SM  C16F12600   7.815   4.483  14.097  0.2539  0.5666 -0.5877
   9323SM  H16F12601   7.707   4.460  14.110  0.3764 -0.5924 -1.4058
   9323SM  H16G12602   7.816   4.559  14.016  0.5012  0.4241 -0.7227
   9323SM  C17F12603   7.867   4.551  14.222  0.6142 -0.0586  0.6172
   9323SM  H17F12604   7.960   4.600  14.187  0.0672  0.5761  0.0324
   9323SM  H17G12605   7.879   4.476  14.304  0.0069 -0.9080 -0.0431
   9323SM  C18F12606   7.769   4.658  14.264 -0.1704  0.3926 -0.7034
   9323SM  H18F12607   7.683   4.608  14.313  1.5206 -0.0470  2.0375
   9323SM  H18G12608   7.748   4.729  14.181  0.3455 -0.5828 -1.6939
   9323SM  C19F12609   7.828   4.751  14.371  0.3175  0.1754 -0.7391
   9323SM  H19F12610   7.913   4.807  14.326  0.3988  0.6889  0.0359
   9323SM  H19G12611   7.868   4.691  14.455 -3.3293  1.5351  2.2274
   9323SM  C20F12612   7.720   4.845  14.436 -0.0968 -0.2405  0.0024
   9323SM  H20F12613   7.625   4.793  14.464  0.8601 -0.8879  2.2169
   9323SM  H20G12614   7.687   4.915  14.356 -0.3983  0.8683  1.0736
   9323SM  C21F12615   7.781   4.910  14.558  0.3758 -0.5219  0.5964
   9323SM  H21F12616   7.869   4.970  14.527 -1.2235  1.7647  0.2048
   9323SM  H21G12617   7.802   4.829  14.631 -1.5847 -0.1445  1.6759
   9323SM  C22F12618   7.687   5.003  14.625 -1.1333  0.5673 -0.7659
   9323SM  H22F12619   7.594   4.953  14.658 -1.0353  0.8073 -0.1092
   9323SM  H22G12620   7.660   5.084  14.554  1.1243  0.6808 -1.5827
   9323SM  C23F12621   7.752   5.073  14.751 -0.3457 -0.0496 -0.6974
   9323SM  H23F12622   7.686   5.098  14.837  0.9910 -0.5257  0.5063
   9323SM  H23G12623   7.814   5.162  14.727  1.0505 -0.6878  0.4547
   9323SM  H23H12624   7.816   4.995  14.797 -0.8861 -0.7881 -1.1703
   9423SM     N12625   5.498   6.501  12.320 -0.2086  0.5129  0.1860
   9423SM   C1512626   5.637   6.560  12.336  0.0019  0.5472  0.1791
   9423SM  H15A12627   5.647   6.658  12.292  1.0273 -0.2606 -1.5359
   9423SM  H15B12628   5.716   6.505  12.286 -0.3808 -0.2609  0.4468
   9423SM  H15C12629   5.656   6.580  12.440  1.7949  2.3804 -0.4437
   9423SM   C1412630   5.467   6.505  12.169 -0.1244  0.5021 -0.0379
   9423SM  H14A12631   5.361   6.490  12.157 -0.0942 -0.1822  0.4609
   9423SM  H14B12632   5.509   6.422  12.115 -0.7651  0.4155 -0.4094
   9423SM  H14C12633   5.499   6.598  12.125  0.7614 -0.1101 -0.7315
   9423SM   C1312634   5.501   6.361  12.374 -0.3466 -0.3533 -1.4069
   9423SM  H13A12635   5.398   6.327  12.373 -1.5080  2.2199  2.6260
   9423SM  H13B12636   5.528   6.368  12.479  1.1982  0.0009 -1.7983
   9423SM  H13C12637   5.564   6.296  12.316 -2.3031 -3.0983 -0.6832
   9423SM   C1212638   5.402   6.584  12.403 -0.2071  0.0587  0.0216
   9423SM  H12A12639   5.299   6.561  12.377  0.1503 -2.1307  0.3671
   9423SM  H12B12640   5.408   6.686  12.370 -0.1405 -0.1847 -0.7436
   9423SM   C1112641   5.403   6.579  12.560  0.6169  0.4323 -0.1675
   9423SM  H11A12642   5.383   6.478  12.601 -0.3775  1.2999  1.6124
   9423SM  H11B12643   5.321   6.644  12.597 -0.8770 -0.2908 -2.0054
   9423SM     P12644   5.558   6.783  12.609 -0.1584  0.7059 -0.0956
   9423SM   O1312645   5.709   6.807  12.611 -0.1179  0.2334  0.0483
   9423SM   O1412646   5.480   6.843  12.501  0.3073 -0.2152  0.1939
   9423SM   O1112647   5.497   6.828  12.746  0.0405  0.1348 -0.2682
   9423SM   O1212648   5.530   6.630  12.611  0.0875  0.6156  0.0638
   9423SM   C1S12649   5.524   6.755  12.867  0.6381  0.3149 -0.3256
   9423SM   H1S12650   5.633   6.765  12.884  0.8122  0.6854 -1.5391
   9423SM   H1T12651   5.493   6.649  12.852 -1.5653  0.9440 -0.5617
   9423SM    NF12652   5.468   6.763  13.111 -0.1210  0.2294 -0.5467
   9423SM   HNF12653   5.409   6.695  13.155 -1.3427  1.2818 -0.5014
   9423SM   C2S12654   5.435   6.810  12.979  0.4665 -0.4004  0.5262
   9423SM   H2S12655   5.455   6.920  12.979 -1.6262  0.0265  0.0045
   9423SM   C3S12656   5.279   6.797  12.944  0.0155  0.6010  0.1468
   9423SM   H3S12657   5.253   6.689  12.946  1.4175  0.2468  0.0262
   9423SM    O312658   5.247   6.830  12.815 -0.2536  0.1407 -0.5471
   9423SM   HO312659   5.333   6.828  12.773  0.4897 -1.9127  0.8981
   9423SM   C4S12660   5.184   6.871  13.036 -0.9477  0.1081  0.9832
   9423SM   H4S12661   5.213   6.976  13.050 -0.1895  0.0690 -0.1595
   9423SM   C5S12662   5.082   6.826  13.106  0.4390  0.4664 -0.1478
   9423SM   H5S12663   5.064   6.717  13.100  1.8210  0.2041  0.2449
   9423SM   C6S12664   4.984   6.904  13.189  0.1623 -0.4105 -0.8774
   9423SM   H6S12665   5.015   7.010  13.194  1.1054 -0.7229  0.6240
   9423SM   H6T12666   4.985   6.855  13.289 -1.2371  1.7596  0.2683
   9423SM   C7S12667   4.845   6.918  13.124  0.4066 -0.0753 -0.1160
   9423SM   H7S12668   4.799   6.817  13.121 -0.0152  0.1187 -0.2304
   9423SM   H7T12669   4.858   6.943  13.016 -1.1381  1.2975 -0.0210
   9423SM   C8S12670   4.743   7.016  13.190 -0.3930  0.2071  0.2710
   9423SM   H8S12671   4.653   7.016  13.125  0.9436 -1.1617 -1.6979
   9423SM   H8T12672   4.776   7.122  13.183  0.7611 -0.2498 -2.5514
   9423SM   C9S12673   4.716   6.971  13.337 -0.3765 -0.6473 -0.4260
   9423SM   H9S12674   4.791   7.025  13.400  1.6468 -1.7488 -1.7753
   9423SM   H9T12675   4.733   6.862  13.344 -0.7821 -0.7322 -0.7770
   9423SM  C10S12676   4.568   6.990  13.388 -0.2504 -0.0198 -0.2666
   9423SM  H10S12677   4.506   6.922  13.326  1.0516 -1.8855  0.4087
   9423SM  H10T12678   4.546   7.099  13.378  1.5420  0.1890 -3.5739
   9423SM  C11S12679   4.563   6.950  13.538 -0.6245  0.0491  0.5003
   9423SM  H11S12680   4.658   6.982  13.587 -0.7812 -2.5164  2.7167
   9423SM  H11T12681   4.567   6.839  13.534  1.1055  0.1111 -1.2322
   9423SM  C12S12682   4.448   7.012  13.613 -0.1909 -0.2617  1.2291
   9423SM  H12S12683   4.351   6.972  13.578 -0.0583  0.1651  0.3437
   9423SM  H12T12684   4.446   7.121  13.593  0.3916 -0.4837 -0.2419
   9423SM  C13S12685   4.460   6.992  13.764 -0.3394 -0.5469 -0.6890
   9423SM  H13S12686   4.548   7.050  13.800 -1.6904  1.1968 -0.1039
   9423SM  H13T12687   4.487   6.885  13.779 -2.7864 -0.8956  2.2429
   9423SM  C14S12688   4.324   7.029  13.838 -0.5602 -0.2648 -0.5760
   9423SM  H14S12689   4.321   6.996  13.944 -0.5558  3.4580  0.7143
   9423SM  H14T12690   4.248   6.977  13.775  0.9749  0.1881 -2.9482
   9423SM  C15S12691   4.292   7.179  13.837 -0.3866  0.0592 -0.2941
   9423SM  H15S12692   4.294   7.224  13.735  0.5588 -0.7139 -0.6355
   9423SM  H15T12693   4.381   7.231  13.880 -1.3121  0.7086  0.8715
   9423SM  C16S12694   4.170   7.219  13.917  0.0035  0.2727 -0.4483
   9423SM  H16S12695   4.198   7.199  14.023  3.3967 -0.8062 -1.4371
   9423SM  H16T12696   4.087   7.153  13.886  2.1351 -2.3774 -0.8990
   9423SM  C17S12697   4.129   7.367  13.900  0.7933 -0.4809 -1.0146
   9423SM  H17S12698   4.109   7.377  13.791 -2.0643 -0.7983 -0.6142
   9423SM  H17T12699   4.220   7.429  13.912  1.4964 -1.9110  2.1177
   9423SM  C18S12700   4.016   7.412  13.995  0.6533 -0.1402 -0.5581
   9423SM  H18S12701   4.042   7.384  14.099  1.6391  0.5720 -0.5966
   9423SM  H18T12702   3.920   7.360  13.973 -0.2594  0.3239  2.0118
   9423SM  H18U12703   4.000   7.522  13.998 -1.1345 -0.3832  0.9194
   9423SM   C1F12704   5.584   6.773  13.172 -0.7523  0.1289  0.0188
   9423SM    OF12705   5.666   6.854  13.133  0.1034 -0.1595 -0.3068
   9423SM   C2F12706   5.618   6.685  13.286 -0.0788  0.2611 -0.0563
   9423SM   H2F12707   5.635   6.581  13.251  0.7855  0.4012 -0.0705
   9423SM   H2G12708   5.533   6.686  13.358 -0.0344  4.2590  0.1386
   9423SM   C3F12709   5.749   6.722  13.355 -0.4096  0.4504 -0.7400
   9423SM   H3F12710   5.759   6.831  13.375  0.0129  0.2760  0.0565
   9423SM   H3G12711   5.830   6.701  13.282 -0.5088 -2.6632 -0.0686
   9423SM   C4F12712   5.776   6.650  13.490 -0.2545  0.2359  0.0548
   9423SM   H4F12713   5.887   6.642  13.491 -0.3794 -2.6592 -0.8075
   9423SM   H4G12714   5.742   6.545  13.483  0.1642  0.1995 -2.3230
   9423SM   C5F12715   5.728   6.719  13.617 -0.4964 -0.6005 -0.1068
   9423SM   H5F12716   5.617   6.722  13.620 -0.6008 -1.1034 -1.9913
   9423SM   H5G12717   5.764   6.824  13.617  0.1867 -0.8043  1.7040
   9423SM   C6F12718   5.784   6.644  13.745  0.6924  0.1372  0.1428
   9423SM   H6F12719   5.894   6.647  13.728  0.7462  1.4676  0.5774
   9423SM   H6G12720   5.746   6.540  13.750 -0.1934  0.4248 -0.3762
   9423SM   C7F12721   5.752   6.705  13.881  0.0986 -0.6130 -0.0311
   9423SM   H7F12722   5.648   6.677  13.909 -0.0456 -1.6501 -1.5396
   9423SM   H7G12723   5.758   6.816  13.872  0.2380 -0.3165  2.7638
   9423SM   C8F12724   5.856   6.669  13.986 -0.8002  0.6290  0.4182
   9423SM   H8F12725   5.958   6.683  13.944 -0.2373  0.6026  1.7172
   9423SM   H8G12726   5.852   6.560  14.006  2.7708  0.4073  0.5941
   9423SM   C9F12727   5.834   6.736  14.127  0.4266 -0.2195  0.2226
   9423SM   H9F12728   5.725   6.737  14.151  0.6217 -0.1258  1.1254
   9423SM   H9G12729   5.849   6.844  14.107  0.3270  0.2226  2.3441
   9423SM  C10F12730   5.926   6.685  14.242  0.2550 -0.6428  0.2679
   9423SM  H10F12731   6.029   6.704  14.205  0.5118  0.8252  1.6301
   9423SM  H10G12732   5.907   6.578  14.265  0.7879 -0.7469  0.2408
   9423SM  C11F12733   5.906   6.761  14.368 -0.8836 -0.4451  0.2315
   9423SM  H11F12734   5.800   6.746  14.399 -1.0677 -0.3121 -0.3206
   9423SM  H11G12735   5.930   6.867  14.344 -0.1574 -0.9005 -1.1603
   9423SM  C12F12736   5.998   6.708  14.475 -0.4045 -0.7051  0.0502
   9423SM  H12F12737   6.096   6.673  14.436  0.5867  0.9680  0.9443
   9423SM  H12G12738   5.963   6.615  14.525 -2.6335 -1.1668 -2.1794
   9423SM  C13F12739   6.023   6.818  14.584  0.1782  0.0110  1.0561
   9423SM  H13F12740   5.927   6.839  14.636 -0.8813 -1.4321 -0.2184
   9423SM  H13G12741   6.065   6.910  14.539 -0.4427  0.0520  0.5394
   9423SM  C14F12742   6.124   6.771  14.685 -0.2757 -0.3260  0.0341
   9423SM  H14F12743   6.220   6.733  14.642 -0.8706 -2.7612  0.6995
   9423SM  H14G12744   6.079   6.687  14.742  1.4779 -1.5696 -0.3203
   9423SM  C15F12745   6.169   6.879  14.792  1.0289  0.1193 -0.3695
   9423SM  H15F12746   6.082   6.938  14.826  1.3116  0.2224  0.1829
   9423SM  H15G12747   6.229   6.951  14.731  0.8654  1.0683  0.5772
   9423SM  C16F12748   6.252   6.840  14.914  0.4254  0.1141 -0.3299
   9423SM  H16F12749   6.206   6.763  14.979  0.2411  1.3121  0.9890
   9423SM  H16G12750   6.258   6.927  14.982  0.4861 -0.2783  0.1707
   9423SM  C17F12751   6.391   6.787  14.867 -0.0199 -0.0596  0.0582
   9423SM  H17F12752   6.437   6.854  14.791  0.7040 -0.4365  0.1595
   9423SM  H17G12753   6.359   6.694  14.816  0.5229 -0.2747  0.1004
   9423SM  C18F12754   6.482   6.748  14.987  0.6664 -0.7006 -0.0706
   9423SM  H18F12755   6.423   6.682  15.054  1.5562 -0.1945  1.2371
   9423SM  H18G12756   6.502   6.844  15.039  3.5804 -1.2157 -0.0842
   9423SM  C19F12757   6.613   6.675  14.956 -0.6173 -0.0732  1.3132
   9423SM  H19F12758   6.649   6.714  14.859 -0.2276 -2.5366  0.3781
   9423SM  H19G12759   6.594   6.569  14.928 -1.6057  0.4894 -0.2091
   9423SM  C20F12760   6.723   6.684  15.057 -0.5590  0.2912  0.2852
   9423SM  H20F12761   6.757   6.789  15.069  1.4636 -0.1807 -0.8162
   9423SM  H20G12762   6.816   6.632  15.024 -1.0601  0.7812 -2.0787
   9423SM  C21F12763   6.688   6.651  15.207 -0.3109 -0.0807 -0.0154
   9423SM  H21F12764   6.619   6.724  15.255 -0.7456 -1.5279  1.6882
   9423SM  H21G12765   6.772   6.649  15.280 -1.1327  0.1851  0.9624
   9423SM  C22F12766   6.630   6.507  15.226  0.0696  0.5417 -0.5106
   9423SM  H22F12767   6.714   6.443  15.191  0.6633 -1.0997  3.4046
   9423SM  H22G12768   6.544   6.507  15.156 -0.1767 -1.5183 -0.2774
   9423SM  C23F12769   6.590   6.465  15.367 -0.0645  0.4180 -0.2735
   9423SM  H23F12770   6.659   6.515  15.439  0.4664  0.9185 -1.1205
   9423SM  H23G12771   6.608   6.356  15.361 -0.5647  0.0875  2.6823
   9423SM  H23H12772   6.486   6.498  15.391  0.5153  1.4656  0.9510
   9523SM     N12773   4.049   2.930  12.167 -0.5371  0.5737 -0.2810
   9523SM   C1512774   3.973   2.862  12.051  0.1885 -0.7032 -0.1400
   9523SM  H15A12775   3.980   2.913  11.956  1.5823 -2.1083 -0.8385
   9523SM  H15B12776   3.868   2.858  12.076  0.3153 -0.8777  0.3771
   9523SM  H15C12777   4.012   2.762  12.035  0.0087 -0.8226  0.1586
   9523SM   C1412778   4.194   2.931  12.141  0.1985 -0.4612 -0.4297
   9523SM  H14A12779   4.238   2.833  12.126 -1.3636 -1.4553  1.1165
   9523SM  H14B12780   4.231   2.983  12.228  0.3421  1.3616 -1.5266
   9523SM  H14C12781   4.215   2.988  12.051  1.0251  1.7661  1.0897
   9523SM   C1312782   4.012   3.073  12.168  0.0306  0.7275  0.1406
   9523SM  H13A12783   3.907   3.077  12.192 -0.3656 -1.7116 -0.9014
   9523SM  H13B12784   4.040   3.113  12.072  2.1256 -0.9691 -0.0355
   9523SM  H13C12785   4.070   3.127  12.242 -1.0106 -0.5266  1.9657
   9523SM   C1212786   4.023   2.855  12.291  0.1502  0.0743 -0.2125
   9523SM  H12A12787   4.093   2.882  12.368 -1.2984 -0.9902  1.5674
   9523SM  H12B12788   4.039   2.749  12.273  0.1378 -0.0332  0.3933
   9523SM   C1112789   3.881   2.873  12.361  0.8592 -0.0825 -0.3054
   9523SM  H11A12790   3.871   2.977  12.398  0.2023  0.2367 -1.3256
   9523SM  H11B12791   3.889   2.799  12.443 -0.3539 -1.3473 -1.2697
   9523SM     P12792   3.628   2.847  12.325 -0.3732  0.0643  0.2856
   9523SM   O1312793   3.579   2.986  12.339  0.5651 -0.0460  0.1484
   9523SM   O1412794   3.554   2.758  12.229 -0.1633 -0.5302  0.1566
   9523SM   O1112795   3.644   2.787  12.470  0.3201  0.1387 -0.5804
   9523SM   O1212796   3.773   2.846  12.273  0.2471  0.1558 -0.2804
   9523SM   C1S12797   3.525   2.738  12.534 -0.2589 -0.0425 -0.3360
   9523SM   H1S12798   3.438   2.717  12.468 -2.0444  1.4444  1.4277
   9523SM   H1T12799   3.476   2.812  12.602  2.2961  2.0171 -0.5493
   9523SM    NF12800   3.451   2.539  12.673  0.6364 -0.0436  0.6027
   9523SM   HNF12801   3.423   2.567  12.764  0.3400  2.1539 -0.1199
   9523SM   C2S12802   3.562   2.609  12.610 -0.5627  0.1378  0.0971
   9523SM   H2S12803   3.613   2.543  12.536  0.5279 -1.2244  1.9454
   9523SM   C3S12804   3.665   2.646  12.723 -0.3685 -0.5556  0.7239
   9523SM   H3S12805   3.603   2.711  12.788 -2.5523  0.8812 -2.4756
   9523SM    O312806   3.783   2.716  12.679 -0.5822 -0.5111  0.1336
   9523SM   HO312807   3.754   2.732  12.589 -0.9513  0.8113  0.4620
   9523SM   C4S12808   3.703   2.524  12.798  0.2238  0.9194  0.3111
   9523SM   H4S12809   3.672   2.522  12.904  2.3227  0.6264  0.9783
   9523SM   C5S12810   3.775   2.424  12.740  0.7054  0.1085  0.1604
   9523SM   H5S12811   3.828   2.439  12.645  2.6586 -0.5546  1.0962
   9523SM   C6S12812   3.820   2.294  12.803 -0.8439 -0.4128 -0.3659
   9523SM   H6S12813   3.930   2.293  12.820 -1.0351 -3.5359  1.5636
   9523SM   H6T12814   3.809   2.199  12.747  1.7141 -1.1226  0.2007
   9523SM   C7S12815   3.769   2.271  12.950  0.2540 -0.1008  0.5115
   9523SM   H7S12816   3.781   2.364  13.009 -2.0066  1.2345 -0.9905
   9523SM   H7T12817   3.836   2.199  13.002  3.0701  1.4880 -0.6608
   9523SM   C8S12818   3.624   2.210  12.959  0.0315  0.5090 -0.4149
   9523SM   H8S12819   3.616   2.131  12.881 -2.1256  1.2225 -0.9850
   9523SM   H8T12820   3.553   2.292  12.935 -1.7938  0.0123  2.7978
   9523SM   C9S12821   3.580   2.160  13.098  0.0015 -0.0089  0.7428
   9523SM   H9S12822   3.636   2.068  13.124  0.7686  0.7823  1.9954
   9523SM   H9T12823   3.474   2.127  13.089  0.6101 -1.7668 -0.5273
   9523SM  C10S12824   3.604   2.262  13.211  0.6732 -0.1391  0.4269
   9523SM  H10S12825   3.504   2.273  13.257 -0.2220  0.2538 -1.5107
   9523SM  H10T12826   3.626   2.361  13.166  1.9043  0.0379  1.3706
   9523SM  C11S12827   3.690   2.202  13.324  0.6503 -0.2148 -0.8295
   9523SM  H11S12828   3.798   2.210  13.302  1.2433 -0.5450  1.7142
   9523SM  H11T12829   3.659   2.098  13.347  2.7712 -0.9179 -0.9817
   9523SM  C12S12830   3.682   2.281  13.460 -0.0284  0.2708  0.3128
   9523SM  H12S12831   3.577   2.315  13.466  0.0575  0.4219  1.0559
   9523SM  H12T12832   3.748   2.369  13.446 -1.1238  0.9244 -0.9425
   9523SM  C13S12833   3.720   2.195  13.576 -0.4269  0.0131  0.1859
   9523SM  H13S12834   3.660   2.101  13.576 -0.3013 -0.0977  2.0944
   9523SM  H13T12835   3.701   2.245  13.673  0.2979 -0.6586  0.6846
   9523SM  C14S12836   3.869   2.141  13.575 -0.6909  0.5234 -0.6855
   9523SM  H14S12837   3.878   2.071  13.489  0.0394 -0.2632  0.0169
   9523SM  H14T12838   3.868   2.066  13.658 -0.4435 -1.7113 -2.5974
   9523SM  C15S12839   3.975   2.252  13.576  0.0347  0.4842  0.4605
   9523SM  H15S12840   3.939   2.344  13.627  1.2514  1.7880 -0.9212
   9523SM  H15T12841   4.007   2.274  13.472  0.5410  0.5906  0.6373
   9523SM  C16S12842   4.106   2.194  13.635 -0.3045 -0.1000  0.3828
   9523SM  H16S12843   4.121   2.090  13.599 -0.3145  0.4349 -1.2716
   9523SM  H16T12844   4.083   2.190  13.743  3.0855  2.3553  1.3844
   9523SM  C17S12845   4.222   2.295  13.608 -0.4120 -0.4699 -0.4204
   9523SM  H17S12846   4.183   2.397  13.627  2.9911  0.9429 -0.2206
   9523SM  H17T12847   4.249   2.297  13.500 -1.0618 -0.2605 -0.5790
   9523SM  C18S12848   4.357   2.274  13.681  0.1170  0.4085  0.2467
   9523SM  H18S12849   4.378   2.168  13.655 -0.8438  0.2347  0.1452
   9523SM  H18T12850   4.367   2.294  13.790 -0.0781  1.7253  0.0431
   9523SM  H18U12851   4.436   2.334  13.631  0.2103  0.0298 -0.0734
   9523SM   C1F12852   3.371   2.469  12.595  0.5636  0.1645 -0.0077
   9523SM    OF12853   3.394   2.456  12.474 -1.0338 -0.0165 -0.4025
   9523SM   C2F12854   3.250   2.415  12.667  0.2053 -0.3559  0.0690
   9523SM   H2F12855   3.154   2.444  12.620  1.0459 -0.6196 -1.8714
   9523SM   H2G12856   3.243   2.451  12.773 -0.2260  1.1360 -0.4335
   9523SM   C3F12857   3.242   2.263  12.663 -0.3465 -0.1330 -0.2892
   9523SM   H3F12858   3.296   2.218  12.577  0.9828  2.3588 -0.8718
   9523SM   H3G12859   3.140   2.220  12.655 -0.4654  0.1006 -0.0568
   9523SM   C4F12860   3.320   2.203  12.781  0.9229 -0.3376  0.0319
   9523SM   H4F12861   3.402   2.273  12.806  0.8457 -0.9114  2.1080
   9523SM   H4G12862   3.352   2.105  12.740  1.3074 -0.2632  0.1493
   9523SM   C5F12863   3.229   2.164  12.904 -0.4457  0.0264 -0.2078
   9523SM   H5F12864   3.280   2.113  12.988 -0.7577  0.8873  0.5247
   9523SM   H5G12865   3.149   2.101  12.858  0.3793  0.2776 -2.1053
   9523SM   C6F12866   3.169   2.288  12.974  0.2195  0.1363  0.1420
   9523SM   H6F12867   3.078   2.323  12.922 -1.1161  0.9897  2.9011
   9523SM   H6G12868   3.244   2.368  12.955  0.4493 -0.7054 -3.1072
   9523SM   C7F12869   3.132   2.271  13.120  0.2028  0.2854  0.8921
   9523SM   H7F12870   3.089   2.365  13.160  1.8006  1.0521  0.8725
   9523SM   H7G12871   3.219   2.247  13.185 -0.8501 -0.9875  1.9310
   9523SM   C8F12872   3.034   2.152  13.142  0.3436  0.5153 -0.7545
   9523SM   H8F12873   3.087   2.064  13.100 -0.4584  0.8071 -2.4167
   9523SM   H8G12874   2.952   2.166  13.069 -1.2197 -0.5120  0.7423
   9523SM   C9F12875   3.003   2.139  13.293  0.1825  0.4571  0.4280
   9523SM   H9F12876   2.960   2.235  13.329  2.5134  1.8383 -0.3170
   9523SM   H9G12877   3.092   2.116  13.354  0.7116  0.4890 -0.3210
   9523SM  C10F12878   2.890   2.037  13.321  0.3610  0.9296  0.5916
   9523SM  H10F12879   2.945   1.941  13.317  2.1155  1.9303 -1.7765
   9523SM  H10G12880   2.821   2.038  13.234  2.3606 -1.7741 -1.2048
   9523SM  C11F12881   2.823   2.058  13.461  0.0789  0.2212 -0.5631
   9523SM  H11F12882   2.722   2.013  13.469  0.9364 -1.7498 -0.3301
   9523SM  H11G12883   2.787   2.163  13.462 -0.8316 -0.0716  1.1352
   9523SM  C12F12884   2.918   2.023  13.578 -0.0539 -0.1190 -0.0996
   9523SM  H12F12885   3.007   2.090  13.567  0.2043 -0.4755 -0.1925
   9523SM  H12G12886   2.943   1.915  13.574 -1.4585 -0.4275 -1.7962
   9523SM  C13F12887   2.853   2.056  13.713 -0.0736 -0.2146 -0.4807
   9523SM  H13F12888   2.795   2.151  13.709 -1.5552 -1.1106 -1.2342
   9523SM  H13G12889   2.932   2.070  13.790  0.4832 -0.3238 -1.0271
   9523SM  C14F12890   2.766   1.944  13.766 -0.4721 -0.3020  0.4484
   9523SM  H14F12891   2.828   1.855  13.788 -0.3635 -0.3393  0.0037
   9523SM  H14G12892   2.691   1.913  13.690  0.4632  1.7972 -1.4269
   9523SM  C15F12893   2.692   1.971  13.900 -0.3809  0.0364  0.4455
   9523SM  H15F12894   2.624   2.051  13.862  2.2898  2.9369  1.2893
   9523SM  H15G12895   2.751   2.016  13.983 -0.0267  1.0016 -0.3034
   9523SM  C16F12896   2.617   1.851  13.947  0.2861 -0.4236 -0.5330
   9523SM  H16F12897   2.669   1.816  14.038 -0.5871  0.7262  0.4386
   9523SM  H16G12898   2.622   1.774  13.867  0.9945 -1.1473  0.1967
   9523SM  C17F12899   2.470   1.878  13.987  0.5878  0.2785  0.7493
   9523SM  H17F12900   2.418   1.900  13.891  2.0091  0.1463 -0.0749
   9523SM  H17G12901   2.462   1.970  14.048  1.0233 -0.1916  1.5322
   9523SM  C18F12902   2.391   1.751  14.042  0.0847 -0.5013  0.4793
   9523SM  H18F12903   2.413   1.667  13.972 -0.3826 -0.1994 -0.0379
   9523SM  H18G12904   2.281   1.766  14.031  0.3864  1.0358 -0.8329
   9523SM  C19F12905   2.431   1.725  14.188 -0.7354  0.3170  0.4161
   9523SM  H19F12906   2.534   1.686  14.197 -0.7230 -0.8972 -3.2659
   9523SM  H19G12907   2.361   1.649  14.228 -1.5841  1.2182  0.6804
   9523SM  C20F12908   2.392   1.850  14.271  0.0925 -0.4502 -0.4139
   9523SM  H20F12909   2.300   1.900  14.232  0.9446  0.1997 -1.6397
   9523SM  H20G12910   2.470   1.926  14.249 -2.3401  1.5691 -2.7974
   9523SM  C21F12911   2.393   1.820  14.420  0.0571  0.9483  0.4830
   9523SM  H21F12912   2.493   1.779  14.448  1.5243  2.7570 -1.7313
   9523SM  H21G12913   2.323   1.736  14.438  0.7293 -0.1877 -1.8934
   9523SM  C22F12914   2.355   1.948  14.501  0.7011  0.6723  0.1696
   9523SM  H22F12915   2.418   2.034  14.471 -0.6815  1.5257 -0.3601
   9523SM  H22G12916   2.370   1.933  14.610 -0.3840  0.7008  0.3387
   9523SM  C23F12917   2.206   1.986  14.491 -0.1361 -0.3170  0.8323
   9523SM  H23F12918   2.180   2.063  14.568  0.4807  0.5625  0.1723
   9523SM  H23G12919   2.142   1.896  14.504 -1.3713 -0.1270 -2.7262
   9523SM  H23H12920   2.189   2.031  14.391  0.1668 -1.5219  0.2254
   9623SM     N12921   3.694   6.447  11.936  0.1819  0.6045  0.0302
   9623SM   C1512922   3.589   6.336  11.959 -0.8396  0.1956 -0.1737
   9623SM  H15A12923   3.581   6.302  12.061 -0.8327 -2.1441 -0.8896
   9623SM  H15B12924   3.599   6.255  11.889 -0.8616  0.4421 -0.4670
   9623SM  H15C12925   3.492   6.383  11.948 -1.2354 -0.4266  0.5538
   9623SM   C1412926   3.831   6.375  11.917  0.3587  0.2806 -1.0184
   9623SM  H14A12927   3.803   6.287  11.861 -0.0687 -0.2909  0.0482
   9623SM  H14B12928   3.866   6.331  12.010 -2.5014 -1.1397 -0.4949
   9623SM  H14C12929   3.895   6.442  11.862  2.4134 -0.0565  0.8066
   9623SM   C1312930   3.663   6.528  11.814  0.6045 -0.6843 -0.3599
   9623SM  H13A12931   3.637   6.464  11.730 -0.3530 -0.1678 -0.4729
   9623SM  H13B12932   3.753   6.584  11.792  1.6945 -1.1545  2.5243
   9623SM  H13C12933   3.578   6.592  11.835 -1.2666 -2.6057 -1.5920
   9623SM   C1212934   3.710   6.549  12.052 -0.0795 -0.6605  0.0169
   9623SM  H12A12935   3.618   6.584  12.097  0.3662  2.3474 -1.1824
   9623SM  H12B12936   3.760   6.635  12.011  1.5038 -1.4412  0.2439
   9623SM   C1112937   3.798   6.516  12.174 -1.1592 -0.1657  0.1632
   9623SM  H11A12938   3.799   6.609  12.236 -1.0654 -0.8577  1.2246
   9623SM  H11B12939   3.901   6.501  12.137 -1.0558  1.4406 -0.2867
   9623SM     P12940   3.624   6.399  12.333  0.4441 -0.1910  0.2075
   9623SM   O1312941   3.542   6.517  12.309  0.8404  0.3211 -0.4018
   9623SM   O1412942   3.557   6.273  12.294 -0.3180  0.1532 -0.3016
   9623SM   O1112943   3.673   6.396  12.482  0.2772  0.5768 -0.1476
   9623SM   O1212944   3.757   6.403  12.247  0.5591  0.6455 -0.2049
   9623SM   C1S12945   3.756   6.480  12.554 -0.8010 -0.5100 -0.0464
   9623SM   H1S12946   3.783   6.566  12.488  0.8501 -0.8813  0.1017
   9623SM   H1T12947   3.852   6.426  12.570 -1.0277 -0.8465  0.1789
   9623SM    NF12948   3.770   6.626  12.760  0.3046 -0.0854 -0.1718
   9623SM   HNF12949   3.838   6.590  12.824 -0.7864  0.1056  1.1536
   9623SM   C2S12950   3.695   6.522  12.686  0.0095 -0.7761 -0.3234
   9623SM   H2S12951   3.597   6.572  12.669  0.1161 -0.5038 -0.1307
   9623SM   C3S12952   3.668   6.393  12.771 -0.2941  0.3619 -0.6839
   9623SM   H3S12953   3.769   6.350  12.785 -0.5501  0.2127  0.8518
   9623SM    O312954   3.594   6.294  12.704  0.1164  0.2248  0.0310
   9623SM   HO312955   3.598   6.318  12.611 -0.8295 -0.6444 -0.2434
   9623SM   C4S12956   3.610   6.409  12.915 -0.5422 -0.1425  0.6351
   9623SM   H4S12957   3.690   6.441  12.984  1.4152 -0.2205 -1.4745
   9623SM   C5S12958   3.492   6.388  12.955  0.7563 -0.0675  0.2016
   9623SM   H5S12959   3.418   6.347  12.885  0.7916  0.2328 -0.0131
   9623SM   C6S12960   3.461   6.403  13.101  0.3910 -0.8304  0.3623
   9623SM   H6S12961   3.438   6.300  13.137 -3.3891 -0.2453  0.1213
   9623SM   H6T12962   3.360   6.450  13.099  0.6575 -0.1485  1.7830
   9623SM   C7S12963   3.535   6.497  13.194 -0.4172  0.3188  0.4210
   9623SM   H7S12964   3.538   6.601  13.153  1.4587  0.0040 -0.3134
   9623SM   H7T12965   3.641   6.466  13.202 -0.8668 -1.6770 -0.6216
   9623SM   C8S12966   3.470   6.507  13.331  0.1199 -0.4679 -0.2726
   9623SM   H8S12967   3.467   6.407  13.379 -0.2480  0.0741  0.8903
   9623SM   H8T12968   3.370   6.554  13.320  1.2954  2.4174  0.3030
   9623SM   C9S12969   3.538   6.610  13.431 -0.5415  0.1991 -0.1001
   9623SM   H9S12970   3.543   6.709  13.382  1.3021  0.6743  0.9661
   9623SM   H9T12971   3.642   6.582  13.457 -0.6408  0.5713  0.7468
   9623SM  C10S12972   3.454   6.607  13.564 -0.4926  0.0466 -0.6219
   9623SM  H10S12973   3.442   6.506  13.610 -2.4512  0.6252  0.2504
   9623SM  H10T12974   3.352   6.648  13.549 -1.5515 -2.2940 -0.3068
   9623SM  C11S12975   3.527   6.690  13.675 -0.2154 -0.0913 -0.6834
   9623SM  H11S12976   3.538   6.787  13.623  0.8590  0.2317  0.1073
   9623SM  H11T12977   3.628   6.648  13.699  2.0699  3.6282 -2.7706
   9623SM  C12S12978   3.441   6.692  13.802  0.6562  0.4619 -0.1018
   9623SM  H12S12979   3.461   6.594  13.850  1.6861  1.5359  1.7789
   9623SM  H12T12980   3.336   6.688  13.765  0.4671 -1.9571  0.5329
   9623SM  C13S12981   3.477   6.802  13.902  0.6573 -0.4782 -0.4718
   9623SM  H13S12982   3.494   6.900  13.852 -2.3066  0.8217  0.7963
   9623SM  H13T12983   3.573   6.770  13.947  0.2175  0.7329  1.4558
   9623SM  C14S12984   3.365   6.832  14.006  0.0190 -0.8412 -0.3310
   9623SM  H14S12985   3.286   6.881  13.945  0.2128  0.0698  0.1293
   9623SM  H14T12986   3.408   6.908  14.074 -2.6134 -0.6330  1.2204
   9623SM  C15S12987   3.320   6.700  14.083  0.1310  0.8642 -0.6309
   9623SM  H15S12988   3.411   6.658  14.132  1.0568  3.1200 -0.2903
   9623SM  H15T12989   3.273   6.625  14.017 -0.6731 -0.2906  1.1612
   9623SM  C16S12990   3.213   6.717  14.192 -0.3895  0.2374  0.3745
   9623SM  H16S12991   3.187   6.619  14.237 -0.6280  0.9317  1.8121
   9623SM  H16T12992   3.121   6.758  14.145 -0.9008  1.3384  2.2373
   9623SM  C17S12993   3.259   6.819  14.301 -0.0752 -0.1515  1.1445
   9623SM  H17S12994   3.276   6.918  14.253 -0.6619 -0.7463 -0.3711
   9623SM  H17T12995   3.349   6.782  14.353 -0.0384  0.3474  1.4460
   9623SM  C18S12996   3.144   6.832  14.401 -0.3485  0.5442 -0.2366
   9623SM  H18S12997   3.169   6.919  14.465  0.9984  1.0104 -1.3278
   9623SM  H18T12998   3.147   6.735  14.455  2.4690 -0.4730 -1.9743
   9623SM  H18U12999   3.040   6.844  14.365  0.1491  3.1641 -1.0340
   9623SM   C1F13000   3.750   6.760  12.750  0.1744 -0.2211 -0.2668
   9623SM    OF13001   3.667   6.802  12.665 -0.1385  0.2033  0.7021
   9623SM   C2F13002   3.840   6.854  12.829 -0.3335 -0.1183 -0.6416
   9623SM   H2F13003   3.884   6.934  12.765 -0.7750  1.4237  0.9216
   9623SM   H2G13004   3.930   6.797  12.861  0.3945  0.4889 -1.5415
   9623SM   C3F13005   3.777   6.917  12.954 -0.1928  0.5532 -0.0555
   9623SM   H3F13006   3.697   6.986  12.919 -0.6391 -0.8162 -1.9117
   9623SM   H3G13007   3.856   6.976  13.006  0.5794 -0.8920  0.4674
   9623SM   C4F13008   3.727   6.814  13.047  0.2049  0.2089 -0.1788
   9623SM   H4F13009   3.802   6.733  13.056  2.5893  2.2244 -0.8844
   9623SM   H4G13010   3.640   6.766  12.997  0.1929  0.1969 -0.1462
   9623SM   C5F13011   3.680   6.874  13.180  0.1490 -0.6720  0.3367
   9623SM   H5F13012   3.616   6.800  13.233  0.6149 -1.0598  0.3678
   9623SM   H5G13013   3.618   6.962  13.153 -1.2848 -2.3130 -2.0987
   9623SM   C6F13014   3.802   6.912  13.266 -0.4768  0.3761  0.5782
   9623SM   H6F13015   3.849   7.005  13.229  0.7464 -0.9498 -1.3929
   9623SM   H6G13016   3.876   6.831  13.250 -3.1471 -2.2279  0.5247
   9623SM   C7F13017   3.779   6.925  13.419 -0.1495  0.4439  0.7514
   9623SM   H7F13018   3.879   6.956  13.457  0.9288 -0.0497 -1.4757
   9623SM   H7G13019   3.748   6.824  13.453  0.7467 -0.8368 -1.9610
   9623SM   C8F13020   3.673   7.035  13.468 -0.8846  0.3390 -0.0123
   9623SM   H8F13021   3.664   7.020  13.578 -0.3262  1.3228  0.1814
   9623SM   H8G13022   3.574   7.003  13.428 -0.3535  0.2561 -1.3048
   9623SM   C9F13023   3.707   7.180  13.444  0.3687  0.4330  0.5447
   9623SM   H9F13024   3.694   7.195  13.335  0.0973  0.0452  0.5173
   9623SM   H9G13025   3.809   7.192  13.486  0.0086 -1.7983  2.3002
   9623SM  C10F13026   3.615   7.275  13.521 -0.4675 -0.1023 -0.5308
   9623SM  H10F13027   3.620   7.254  13.630 -0.9599 -0.3047 -0.5436
   9623SM  H10G13028   3.510   7.250  13.495 -0.5527  0.5124 -0.7917
   9623SM  C11F13029   3.639   7.424  13.502  0.2072  0.1287 -0.4636
   9623SM  H11F13030   3.610   7.443  13.397 -3.0889  0.5858  0.4016
   9623SM  H11G13031   3.748   7.430  13.523  0.0169  0.8450  0.4008
   9623SM  C12F13032   3.550   7.526  13.589  0.4131 -0.4786  0.4137
   9623SM  H12F13033   3.578   7.508  13.695  0.4131 -1.4084  0.2585
   9623SM  H12G13034   3.443   7.499  13.581  0.4578 -0.5925  0.1969
   9623SM  C13F13035   3.578   7.667  13.544  0.7072 -0.7706 -0.2860
   9623SM  H13F13036   3.566   7.672  13.433  0.4548  0.7870 -0.2063
   9623SM  H13G13037   3.685   7.690  13.563  0.4939 -1.0700  1.4172
   9623SM  C14F13038   3.488   7.767  13.618  0.8158 -0.7597 -0.1610
   9623SM  H14F13039   3.519   7.867  13.581  0.4389 -0.5883 -0.0216
   9623SM  H14G13040   3.510   7.765  13.727 -0.3544 -0.1489  0.1032
   9623SM  C15F13041   3.332   7.748  13.590  0.0345 -0.1117  0.3446
   9623SM  H15F13042   3.288   7.839  13.635 -1.8060 -0.7038 -0.1844
   9623SM  H15G13043   3.295   7.662  13.650 -3.6396  0.5273 -0.7571
   9623SM  C16F13044   3.284   7.744  13.447  0.1661 -0.4520  1.2293
   9623SM  H16F13045   3.360   7.710  13.373  0.0756  0.4747  0.6986
   9623SM  H16G13046   3.268   7.851  13.424  0.2949 -0.3338  1.6824
   9623SM  C17F13047   3.146   7.673  13.413  0.0829 -0.6637  0.8828
   9623SM  H17F13048   3.071   7.723  13.478  0.2915  1.2267 -0.2503
   9623SM  H17G13049   3.168   7.566  13.432 -0.6117 -1.0740 -0.4743
   9623SM  C18F13050   3.087   7.690  13.269 -1.3582 -0.3726 -0.3929
   9623SM  H18F13051   3.165   7.650  13.201 -2.0060  0.7240 -1.8480
   9623SM  H18G13052   3.068   7.799  13.257 -0.8779 -0.2109  0.2357
   9623SM  C19F13053   2.951   7.610  13.258 -0.0940  0.2215 -0.5746
   9623SM  H19F13054   2.976   7.504  13.281 -0.2980  0.2692 -0.1125
   9623SM  H19G13055   2.926   7.613  13.150 -1.5511 -1.8867 -0.3795
   9623SM  C20F13056   2.839   7.646  13.354  0.2565 -0.7830 -0.1947
   9623SM  H20F13057   2.872   7.684  13.454 -0.3710 -0.6396 -0.0409
   9623SM  H20G13058   2.793   7.549  13.384  2.0660 -1.7938 -0.4971
   9623SM  C21F13059   2.725   7.730  13.309 -0.2769  0.9622  0.2924
   9623SM  H21F13060   2.667   7.664  13.241  0.6492  0.0489  0.3502
   9623SM  H21G13061   2.761   7.816  13.249  1.6114  0.1125  0.1275
   9623SM  C22F13062   2.632   7.772  13.424  0.2075 -0.4810  0.2055
   9623SM  H22F13063   2.679   7.857  13.476 -3.2929  1.7345  0.0946
   9623SM  H22G13064   2.612   7.684  13.489  0.3035 -1.1221 -0.6106
   9623SM  C23F13065   2.495   7.814  13.361  0.5794  1.0740 -0.4259
   9623SM  H23F13066   2.458   7.732  13.296  0.4398 -0.1514  1.1708
   9623SM  H23G13067   2.502   7.913  13.309 -0.0931  0.0888 -2.4861
   9623SM  H23H13068   2.431   7.811  13.451  1.3481 -1.5048  0.0995
   9723SM     N13069   4.346   0.174  12.194  0.3243  0.1504 -0.0490
   9723SM   C1513070   4.221   0.175  12.109 -0.2933 -0.1507  0.5125
   9723SM  H15A13071   4.139   0.226  12.157 -1.8743  0.4832 -2.5469
   9723SM  H15B13072   4.193   0.073  12.087 -0.0722 -0.2050  0.4773
   9723SM  H15C13073   4.236   0.239  12.023 -1.2194  0.8862  1.0917
   9723SM   C1413074   4.459   0.137  12.099 -0.1682 -0.5030 -0.0565
   9723SM  H14A13075   4.451   0.037  12.061  1.1553 -0.6805  0.0660
   9723SM  H14B13076   4.553   0.133  12.152  0.8506 -2.2902 -1.8805
   9723SM  H14C13077   4.473   0.206  12.016 -2.3274 -1.7090 -1.5145
   9723SM   C1313078   4.361   0.311  12.256  0.1915  0.3343  0.0347
   9723SM  H13A13079   4.370   0.386  12.178 -0.5886 -0.4610 -0.8462
   9723SM  H13B13080   4.452   0.309  12.314  0.7104  0.5886 -0.7452
   9723SM  H13C13081   4.271   0.324  12.314 -1.6929 -4.4003 -1.3575
   9723SM   C1213082   4.334   0.068  12.304 -0.2901 -0.0402  0.0499
   9723SM  H12A13083   4.413   0.085  12.376 -1.5515  3.3397  0.7714
   9723SM  H12B13084   4.350  -0.033  12.267 -2.5703 -0.4679  0.1123
   9723SM   C1113085   4.206   0.064  12.391  0.0237  0.5213 -0.4238
   9723SM  H11A13086   4.196  -0.026  12.455 -0.8418 -0.3253 -1.6929
   9723SM  H11B13087   4.125   0.054  12.315 -0.5917 -1.4356  0.4241
   9723SM     P13088   4.266   0.213  12.589 -0.0456  0.0986 -0.4539
   9723SM   O1313089   4.275   0.359  12.599  0.1763 -0.4215 -0.3769
   9723SM   O1413090   4.206   0.134  12.703 -0.0038  0.0438  0.8846
   9723SM   O1113091   4.409   0.146  12.566 -0.8442  0.3504 -0.5036
   9723SM   O1213092   4.178   0.186  12.460 -0.4760 -0.0371  0.0966
   9723SM   C1S13093   4.526   0.203  12.627 -0.1330 -0.6663 -0.6223
   9723SM   H1S13094   4.523   0.313  12.641  0.6685 -0.8437  1.2263
   9723SM   H1T13095   4.617   0.195  12.564  1.3288  1.4418  1.0866
   9723SM    NF13096   4.673   0.223  12.826  0.3117  0.7215  0.9903
   9723SM   HNF13097   4.758   0.170  12.827 -0.2736 -0.6844 -3.0959
   9723SM   C2S13098   4.561   0.146  12.764 -0.1296  0.1940  0.0894
   9723SM   H2S13099   4.474   0.160  12.831 -1.0389 -0.7788 -0.8444
   9723SM   C3S13100   4.589  -0.008  12.758  0.5061  0.0887 -0.4607
   9723SM   H3S13101   4.691   0.001  12.715 -1.2743  1.3405 -4.9840
   9723SM    O313102   4.512  -0.081  12.663  0.9303  0.1845  0.2068
   9723SM   HO313103   4.451  -0.012  12.634  1.0496  1.5810  2.9536
   9723SM   C4S13104   4.588  -0.068  12.904  0.1351  0.0408 -0.3880
   9723SM   H4S13105   4.685  -0.052  12.951  0.2001  1.6089 -0.9880
   9723SM   C5S13106   4.481  -0.106  12.978  0.2638  0.4762  0.1647
   9723SM   H5S13107   4.383  -0.082  12.934 -0.0955 -0.2155  0.5679
   9723SM   C6S13108   4.482  -0.117  13.128  0.4121  0.0415  0.1992
   9723SM   H6S13109   4.522  -0.217  13.156 -1.7746 -1.1672 -0.7505
   9723SM   H6T13110   4.378  -0.099  13.164  0.2006  3.3623 -1.6332
   9723SM   C7S13111   4.556  -0.005  13.201 -0.3790 -0.0593 -1.1538
   9723SM   H7S13112   4.534   0.097  13.161  0.0162  0.3339 -0.3778
   9723SM   H7T13113   4.665  -0.016  13.183 -0.6171 -0.9667 -2.1712
   9723SM   C8S13114   4.534  -0.002  13.354  0.1605 -0.7392  0.4300
   9723SM   H8S13115   4.557  -0.103  13.393  0.7897 -0.5959  0.4302
   9723SM   H8T13116   4.424   0.008  13.368 -0.5522 -2.0273 -3.1311
   9723SM   C9S13117   4.621   0.100  13.426 -0.4837  0.4026  0.1605
   9723SM   H9S13118   4.726   0.100  13.390  0.1511  0.6001  1.8797
   9723SM   H9T13119   4.633   0.071  13.533  3.3130  1.7542  0.2315
   9723SM  C10S13120   4.575   0.246  13.437  0.9506  0.2550 -0.1032
   9723SM  H10S13121   4.541   0.286  13.339  0.4466 -0.6230 -0.3021
   9723SM  H10T13122   4.658   0.312  13.469 -0.5332  2.2143 -0.0821
   9723SM  C11S13123   4.453   0.254  13.534 -0.0305 -0.0148  0.7891
   9723SM  H11S13124   4.472   0.210  13.634  0.7511  1.7556  1.4463
   9723SM  H11T13125   4.370   0.193  13.492 -0.4649  0.5981  0.7421
   9723SM  C12S13126   4.412   0.401  13.547  0.0003 -0.0005  0.1008
   9723SM  H12S13127   4.310   0.408  13.590  0.0831 -1.5391  0.6035
   9723SM  H12T13128   4.412   0.444  13.444 -0.6189 -2.2200 -0.8832
   9723SM  C13S13129   4.505   0.480  13.640 -0.0304 -0.6389 -0.2555
   9723SM  H13S13130   4.604   0.511  13.600 -1.0927  2.7448 -0.6003
   9723SM  H13T13131   4.528   0.416  13.727  3.5357 -1.5539 -1.6679
   9723SM  C14S13132   4.441   0.612  13.687  0.0628 -0.3005  0.1477
   9723SM  H14S13133   4.349   0.596  13.749 -0.8726  2.3282 -0.4227
   9723SM  H14T13134   4.399   0.663  13.597  0.1067 -0.2761  0.1407
   9723SM  C15S13135   4.527   0.700  13.780  0.5648  0.3272  0.0130
   9723SM  H15S13136   4.466   0.779  13.828  1.2683  0.8119  0.1258
   9723SM  H15T13137   4.604   0.750  13.717  0.2072 -0.9974 -1.5673
   9723SM  C16S13138   4.589   0.631  13.902  0.5034 -0.0443 -0.1428
   9723SM  H16S13139   4.662   0.550  13.883  0.6361 -0.7853  2.9422
   9723SM  H16T13140   4.511   0.577  13.959  2.2060 -0.9333  1.4755
   9723SM  C17S13141   4.635   0.731  14.000 -0.2148 -0.1476 -0.5873
   9723SM  H17S13142   4.551   0.796  14.030  1.9195  2.4177  0.1545
   9723SM  H17T13143   4.704   0.803  13.952 -0.4617  0.9462  0.6636
   9723SM  C18S13144   4.695   0.665  14.122  0.1224  0.3373 -0.1111
   9723SM  H18S13145   4.617   0.616  14.184  1.2715  2.2125  2.9981
   9723SM  H18T13146   4.727   0.745  14.191 -2.8842  0.6027  1.1250
   9723SM  H18U13147   4.783   0.601  14.098 -1.6311 -2.2067 -0.1603
   9723SM   C1F13148   4.663   0.341  12.871 -0.3195  0.4466 -0.0414
   9723SM    OF13149   4.557   0.401  12.855  0.2875  0.1847 -0.4011
   9723SM   C2F13150   4.774   0.401  12.951  0.2891  0.1373  0.6311
   9723SM   H2F13151   4.804   0.496  12.902  0.6216 -1.8714 -3.4425
   9723SM   H2G13152   4.858   0.329  12.947 -0.9736 -1.3626  0.1806
   9723SM   C3F13153   4.740   0.437  13.097 -0.4383  0.0024 -0.5514
   9723SM   H3F13154   4.727   0.340  13.148  0.0850  0.2233  0.0180
   9723SM   H3G13155   4.649   0.496  13.120 -0.4138 -0.3291  0.4403
   9723SM   C4F13156   4.866   0.513  13.159  0.3333  0.1712  0.2100
   9723SM   H4F13157   4.842   0.620  13.139 -1.7593 -0.2974  0.0360
   9723SM   H4G13158   4.957   0.480  13.104 -0.2285 -2.4398  0.7136
   9723SM   C5F13159   4.886   0.482  13.307  0.0177  1.0425  0.4381
   9723SM   H5F13160   4.798   0.514  13.367 -0.3830  1.6869 -0.4714
   9723SM   H5G13161   4.970   0.549  13.336 -0.3089  2.0248 -0.7910
   9723SM   C6F13162   4.929   0.338  13.335  0.0010  0.5648 -0.0911
   9723SM   H6F13163   5.021   0.313  13.276  0.0332  1.2461 -0.3455
   9723SM   H6G13164   4.845   0.272  13.305 -0.1682  0.8656 -0.2841
   9723SM   C7F13165   4.949   0.307  13.490  0.3573 -0.0962  0.9258
   9723SM   H7F13166   4.860   0.334  13.552  1.0258 -0.3058  2.0031
   9723SM   H7G13167   5.025   0.380  13.526  0.5446  1.4043 -2.1985
   9723SM   C8F13168   4.986   0.162  13.522 -0.1583  0.9830 -0.2765
   9723SM   H8F13169   5.074   0.127  13.463  0.0365 -0.2121  0.6550
   9723SM   H8G13170   4.908   0.091  13.487  1.1709 -0.3518 -0.6392
   9723SM   C9F13171   4.995   0.131  13.669 -0.5739 -0.3673 -0.7988
   9723SM   H9F13172   5.041   0.030  13.680  0.5398  0.0203 -1.6539
   9723SM   H9G13173   4.896   0.118  13.717 -0.8688  1.4226 -0.8745
   9723SM  C10F13174   5.079   0.234  13.754 -0.4854  0.7179 -0.3456
   9723SM  H10F13175   5.020   0.327  13.741 -1.8107  0.5975  3.5102
   9723SM  H10G13176   5.180   0.240  13.708 -0.8408 -1.9871 -1.7476
   9723SM  C11F13177   5.092   0.196  13.898 -0.1659 -0.4909 -0.1809
   9723SM  H11F13178   5.142   0.099  13.918 -0.2234 -0.0309  2.6830
   9723SM  H11G13179   4.997   0.172  13.949  1.2590 -0.5506  2.6391
   9723SM  C12F13180   5.165   0.298  13.984 -0.7795  0.2470 -0.1600
   9723SM  H12F13181   5.095   0.380  14.012 -0.7851  0.2672 -0.2350
   9723SM  H12G13182   5.237   0.341  13.912 -0.6572  2.9605  1.4464
   9723SM  C13F13183   5.241   0.249  14.108 -0.1655  0.6581  0.2604
   9723SM  H13F13184   5.307   0.329  14.148  1.0772 -0.0279 -0.3478
   9723SM  H13G13185   5.302   0.160  14.079  2.2248  2.2309  0.1255
   9723SM  C14F13186   5.142   0.212  14.220  0.1071  0.7437 -0.6613
   9723SM  H14F13187   5.071   0.140  14.173 -0.0862  1.5353 -1.6146
   9723SM  H14G13188   5.079   0.297  14.253 -2.4771 -0.9298 -0.9072
   9723SM  C15F13189   5.215   0.127  14.328  0.6875  0.4706 -0.2163
   9723SM  H15F13190   5.305   0.176  14.372 -0.1451 -0.7136  3.1436
   9723SM  H15G13191   5.254   0.033  14.282  3.3358  0.5846  1.5933
   9723SM  C16F13192   5.136   0.103  14.455  0.5514 -0.1934  0.0926
   9723SM  H16F13193   5.045   0.048  14.421  1.1465 -1.4976  0.5475
   9723SM  H16G13194   5.102   0.199  14.499 -2.4009 -0.7535 -0.7069
   9723SM  C17F13195   5.212   0.020  14.560 -0.7104 -0.8925  0.4118
   9723SM  H17F13196   5.295   0.082  14.600 -0.2996 -0.6261 -0.8050
   9723SM  H17G13197   5.252  -0.077  14.523 -0.5987 -0.7955  0.2761
   9723SM  C18F13198   5.117  -0.026  14.672  0.4779  0.4329  0.1492
   9723SM  H18F13199   5.036  -0.091  14.632 -0.1666 -0.9635  3.3946
   9723SM  H18G13200   5.064   0.065  14.705 -0.2971  0.2933 -0.6627
   9723SM  C19F13201   5.199  -0.094  14.786  0.3886 -0.0150  0.0887
   9723SM  H19F13202   5.293  -0.036  14.802 -0.0588  0.7230  0.0942
   9723SM  H19G13203   5.232  -0.195  14.755  1.6330  0.2269  0.5642
   9723SM  C20F13204   5.130  -0.091  14.924  0.7414  0.5022 -0.5470
   9723SM  H20F13205   5.031  -0.142  14.926  1.1522 -0.3687 -1.4643
   9723SM  H20G13206   5.106   0.014  14.952  1.0448  0.8422 -1.5209
   9723SM  C21F13207   5.216  -0.144  15.034 -0.4655 -0.0195  0.2479
   9723SM  H21F13208   5.224  -0.255  15.027 -0.4405  0.0740 -1.6989
   9723SM  H21G13209   5.167  -0.111  15.129 -0.1809 -2.2656  1.2474
   9723SM  C22F13210   5.368  -0.096  15.058  0.1405 -0.0431  0.5473
   9723SM  H22F13211   5.362   0.013  15.075 -1.0826 -0.4034  2.9513
   9723SM  H22G13212   5.425  -0.117  14.966 -2.0914 -1.7166 -0.5641
   9723SM  C23F13213   5.442  -0.163  15.176 -0.1326  0.2170  0.4854
   9723SM  H23F13214   5.388  -0.154  15.273 -1.5628 -0.7398 -0.1788
   9723SM  H23G13215   5.540  -0.115  15.194  0.9154 -1.9646  0.9117
   9723SM  H23H13216   5.473  -0.268  15.160 -0.4614 -0.1456  2.0241
   9823SM     N13217   0.869   6.155  11.836  0.9660 -0.0973  0.2304
   9823SM   C1513218   1.012   6.190  11.807  0.0333  0.5946  0.2041
   9823SM  H15A13219   1.028   6.278  11.747  3.1728 -0.0325 -0.0481
   9823SM  H15B13220   1.056   6.105  11.756  0.6577  1.4270 -0.6713
   9823SM  H15C13221   1.058   6.198  11.904 -1.8154  1.0282  1.0872
   9823SM   C1413222   0.809   6.287  11.857  0.0550 -0.0965 -0.1780
   9823SM  H14A13223   0.849   6.326  11.950 -0.3708 -1.8742  0.7921
   9823SM  H14B13224   0.704   6.270  11.875  0.1282 -0.9621 -0.5379
   9823SM  H14C13225   0.826   6.355  11.775  0.2683  0.4271  0.2953
   9823SM   C1313226   0.805   6.103  11.706  0.3866  0.1939 -0.2096
   9823SM  H13A13227   0.851   6.007  11.686  1.9351  0.9077 -0.1667
   9823SM  H13B13228   0.818   6.169  11.621 -0.6656  1.4161  0.5536
   9823SM  H13C13229   0.700   6.079  11.719  0.6480  0.3386  2.6068
   9823SM   C1213230   0.857   6.061  11.953  0.3593 -0.0408  0.3525
   9823SM  H12A13231   0.904   5.966  11.929 -0.2860 -0.6115  1.2744
   9823SM  H12B13232   0.752   6.049  11.974  0.1143 -0.4021 -1.0001
   9823SM   C1113233   0.919   6.123  12.080  0.3800  0.3362  0.2139
   9823SM  H11A13234   0.888   6.069  12.173 -0.7362  0.2379 -0.1995
   9823SM  H11B13235   0.886   6.227  12.097 -0.4112  0.7245 -3.1644
   9823SM     P13236   1.142   5.998  12.087  0.1305  0.0874  0.0722
   9823SM   O1313237   1.076   5.883  12.018  0.4808  0.2028  0.3469
   9823SM   O1413238   1.287   6.021  12.058  0.3149 -0.2008 -0.2998
   9823SM   O1113239   1.136   5.967  12.239  0.5723 -0.8455 -0.2739
   9823SM   O1213240   1.056   6.131  12.070 -0.2060 -0.2060 -0.2631
   9823SM   C1S13241   1.133   6.062  12.337  0.2913 -0.6211 -1.1131
   9823SM   H1S13242   1.031   6.103  12.350  1.1612  1.2132  0.5130
   9823SM   H1T13243   1.192   6.154  12.317 -1.0018  0.3755 -0.4568
   9823SM    NF13244   1.141   6.098  12.596 -0.2531 -0.4996 -0.1121
   9823SM   HNF13245   1.224   6.108  12.651 -0.3829  2.5775 -0.2764
   9823SM   C2S13246   1.171   6.001  12.482  0.0171 -0.4034 -0.7001
   9823SM   H2S13247   1.108   5.916  12.515  0.4148 -0.7531 -0.8276
   9823SM   C3S13248   1.322   5.956  12.469 -0.4176 -0.5022 -0.2258
   9823SM   H3S13249   1.386   6.047  12.464  0.2945 -0.7385  2.7933
   9823SM    O313250   1.355   5.885  12.351  0.0097  0.4252  0.8521
   9823SM   HO313251   1.282   5.912  12.296  0.1055  0.2684  0.6466
   9823SM   C4S13252   1.363   5.870  12.590 -0.5504 -0.6878  0.4727
   9823SM   H4S13253   1.389   5.936  12.674  0.1851  0.4099 -0.5789
   9823SM   C5S13254   1.375   5.739  12.602 -0.6733  0.1592 -0.1381
   9823SM   H5S13255   1.359   5.679  12.511 -0.1174  1.1705 -0.9346
   9823SM   C6S13256   1.420   5.667  12.730  0.2058  0.3373  0.3214
   9823SM   H6S13257   1.508   5.611  12.694 -1.3077 -0.9517 -1.6157
   9823SM   H6T13258   1.346   5.593  12.768  0.9192 -0.6504 -0.1814
   9823SM   C7S13259   1.467   5.760  12.851  0.4327  0.8662 -0.1806
   9823SM   H7S13260   1.375   5.810  12.888  0.8220  1.1907  0.3713
   9823SM   H7T13261   1.532   5.843  12.818  0.6079  0.4594 -0.8700
   9823SM   C8S13262   1.508   5.686  12.979  0.2685  0.0289  0.7799
   9823SM   H8S13263   1.608   5.638  12.969 -0.2801 -0.9500 -0.1624
   9823SM   H8T13264   1.445   5.598  13.001  0.9952 -0.8762 -0.5705
   9823SM   C9S13265   1.500   5.764  13.110  0.2637 -0.4589  0.5958
   9823SM   H9S13266   1.402   5.815  13.108  1.3111  1.6562 -1.2048
   9823SM   H9T13267   1.577   5.844  13.100 -1.1673  0.7549 -1.1392
   9823SM  C10S13268   1.509   5.684  13.233  0.1441  0.3772 -0.0621
   9823SM  H10S13269   1.568   5.590  13.225 -1.2571 -0.5853  0.5608
   9823SM  H10T13270   1.409   5.645  13.261  0.1303  0.5321  0.1050
   9823SM  C11S13271   1.560   5.772  13.350  0.5123 -0.2575 -0.5660
   9823SM  H11S13272   1.491   5.859  13.353  0.1862 -0.4979 -0.9908
   9823SM  H11T13273   1.665   5.806  13.331  0.2566  0.8860 -0.0397
   9823SM  C12S13274   1.561   5.691  13.482  0.2965  0.5187 -0.3145
   9823SM  H12S13275   1.613   5.759  13.553  0.3052 -0.0210  0.2137
   9823SM  H12T13276   1.612   5.593  13.467 -0.6400 -0.0015 -0.1595
   9823SM  C13S13277   1.424   5.658  13.534  0.4407  0.4971  0.1701
   9823SM  H13S13278   1.414   5.572  13.603 -3.1950  0.0255 -0.7098
   9823SM  H13T13279   1.348   5.633  13.456  0.0631 -0.4359  0.8206
   9823SM  C14S13280   1.369   5.776  13.625 -0.3324  0.6533 -0.2576
   9823SM  H14S13281   1.397   5.870  13.573 -0.7078  0.6461 -0.4752
   9823SM  H14T13282   1.412   5.773  13.727 -0.8218  1.9765  0.0100
   9823SM  C15S13283   1.224   5.776  13.644 -1.3885 -0.1313 -0.5367
   9823SM  H15S13284   1.191   5.684  13.697 -1.5125  2.0126  3.6012
   9823SM  H15T13285   1.177   5.790  13.544 -0.2323  0.4100 -1.0179
   9823SM  C16S13286   1.176   5.894  13.738 -0.1243 -0.2418 -0.4642
   9823SM  H16S13287   1.236   5.980  13.703 -1.3808  1.9840  2.4512
   9823SM  H16T13288   1.209   5.875  13.842 -0.1675  3.2384  0.3046
   9823SM  C17S13289   1.024   5.927  13.737 -0.2410 -0.0738 -0.0502
   9823SM  H17S13290   0.975   5.827  13.748  2.4046 -1.6226 -1.2356
   9823SM  H17T13291   1.003   5.960  13.633 -1.3267  0.0356  0.1994
   9823SM  C18S13292   0.987   6.038  13.829 -0.4941 -0.1977 -0.0882
   9823SM  H18S13293   0.878   6.062  13.821 -0.7313 -1.1790 -0.0079
   9823SM  H18T13294   1.024   6.138  13.800  0.5004  0.6658  3.5872
   9823SM  H18U13295   1.022   6.016  13.932 -0.7055 -0.1320 -0.0007
   9823SM   C1F13296   1.022   6.141  12.626 -0.1523 -0.3724  0.1248
   9823SM    OF13297   0.932   6.137  12.544  0.1903 -0.4353  0.7100
   9823SM   C2F13298   0.998   6.215  12.758  0.1929  0.3794  0.6302
   9823SM   H2F13299   1.016   6.324  12.747  1.5040 -0.0134 -1.9382
   9823SM   H2G13300   1.082   6.181  12.822  0.5446  1.8508  0.9948
   9823SM   C3F13301   0.862   6.182  12.826  0.4692  0.5034 -0.1934
   9823SM   H3F13302   0.877   6.175  12.936 -1.3971 -0.9913  0.0253
   9823SM   H3G13303   0.829   6.078  12.801 -2.4510  1.2922 -0.0087
   9823SM   C4F13304   0.742   6.272  12.790  0.5969  0.1087 -0.0528
   9823SM   H4F13305   0.732   6.271  12.679  0.8476 -0.4554 -0.0742
   9823SM   H4G13306   0.772   6.374  12.824  1.4605 -1.2029  3.5653
   9823SM   C5F13307   0.608   6.234  12.845  0.7172 -0.4185 -0.1180
   9823SM   H5F13308   0.592   6.130  12.808  1.2203  0.1217 -1.9543
   9823SM   H5G13309   0.521   6.291  12.806 -1.3501 -2.4580  1.2020
   9823SM   C6F13310   0.601   6.232  13.001  0.4010 -0.2774 -0.0070
   9823SM   H6F13311   0.619   6.336  13.035  1.6578  0.0855 -1.6877
   9823SM   H6G13312   0.677   6.160  13.037 -0.3934 -1.7379 -1.1508
   9823SM   C7F13313   0.463   6.184  13.050  0.1261 -0.2165  0.1699
   9823SM   H7F13314   0.442   6.083  13.007  1.3518 -0.5036  0.2008
   9823SM   H7G13315   0.382   6.249  13.010  0.0284 -0.0762  0.5887
   9823SM   C8F13316   0.458   6.179  13.198 -0.0426 -0.1740  0.3628
   9823SM   H8F13317   0.350   6.181  13.222 -0.0189 -1.4269  0.6462
   9823SM   H8G13318   0.514   6.265  13.240  0.4602 -0.1285 -0.3891
   9823SM   C9F13319   0.535   6.064  13.271 -0.5436  0.1724 -0.4750
   9823SM   H9F13320   0.644   6.078  13.257 -0.3061  0.7469  1.6503
   9823SM   H9G13321   0.510   5.970  13.216  1.0334 -0.3509 -0.3458
   9823SM  C10F13322   0.483   6.042  13.414 -0.0397  0.4987  0.2178
   9823SM  H10F13323   0.476   6.141  13.465  0.9204 -0.0011  1.3743
   9823SM  H10G13324   0.549   5.982  13.480  1.0305  0.9879 -0.3757
   9823SM  C11F13325   0.351   5.970  13.404 -0.0959 -0.1817 -0.2626
   9823SM  H11F13326   0.371   5.865  13.372 -0.0121 -0.5922  1.0488
   9823SM  H11G13327   0.280   6.016  13.333 -0.5435 -1.3772 -0.6158
   9823SM  C12F13328   0.282   5.957  13.538 -0.4949  0.3306  0.3203
   9823SM  H12F13329   0.261   6.062  13.567  0.3498  0.2127  1.4452
   9823SM  H12G13330   0.348   5.905  13.611  0.7368 -1.7917 -2.1534
   9823SM  C13F13331   0.152   5.883  13.519  0.3961  0.0674 -0.3114
   9823SM  H13F13332   0.125   5.848  13.417 -1.6999 -0.1619  0.2687
   9823SM  H13G13333   0.064   5.949  13.536 -1.4702 -2.4067  0.2313
   9823SM  C14F13334   0.133   5.759  13.606 -0.0844 -0.1834 -0.1357
   9823SM  H14F13335   0.035   5.715  13.581 -0.9520  0.8183  1.3424
   9823SM  H14G13336   0.136   5.787  13.713 -0.0081  0.6633 -0.3495
   9823SM  C15F13337   0.231   5.643  13.577  0.3619  0.2119 -0.5897
   9823SM  H15F13338   0.214   5.564  13.653  2.2557 -0.2140 -0.5750
   9823SM  H15G13339   0.330   5.687  13.598 -0.1855  0.7927  0.9622
   9823SM  C16F13340   0.219   5.571  13.447  0.1396 -0.2331  0.3870
   9823SM  H16F13341   0.309   5.508  13.462  0.0673 -0.3764  0.2217
   9823SM  H16G13342   0.229   5.649  13.368  2.2306 -0.4330  0.4069
   9823SM  C17F13343   0.088   5.491  13.425 -0.6945  0.7693 -0.1293
   9823SM  H17F13344   0.003   5.562  13.426 -0.8081  0.6991  2.7502
   9823SM  H17G13345   0.056   5.405  13.489  0.0452 -0.7791 -1.7531
   9823SM  C18F13346   0.092   5.435  13.283 -0.3925  0.5164  0.6763
   9823SM  H18F13347   0.180   5.367  13.277 -1.9995 -1.9142  2.5098
   9823SM  H18G13348   0.095   5.517  13.209 -1.3656  0.7538  0.8827
   9823SM  C19F13349  -0.032   5.350  13.254 -0.0748  0.1296  0.1194
   9823SM  H19F13350  -0.132   5.391  13.282 -0.9338 -1.2916 -0.7529
   9823SM  H19G13351  -0.015   5.261  13.318 -2.6401 -1.1749 -0.8687
   9823SM  C20F13352  -0.038   5.298  13.108  0.1953  0.2179 -0.3530
   9823SM  H20F13353   0.065   5.279  13.069  0.7820  2.0315  0.2097
   9823SM  H20G13354  -0.088   5.375  13.046 -0.4690  0.2938  0.2577
   9823SM  C21F13355  -0.130   5.175  13.099  0.3211 -0.3895 -1.0214
   9823SM  H21F13356  -0.232   5.213  13.124  1.8397  1.7995  2.6534
   9823SM  H21G13357  -0.105   5.110  13.185 -0.2763  0.6124 -0.0563
   9823SM  C22F13358  -0.104   5.109  12.964 -0.4981  0.3510 -0.0001
   9823SM  H22F13359  -0.144   5.005  12.970  1.2483 -0.3306  0.3572
   9823SM  H22G13360   0.003   5.101  12.937 -0.8478  0.3347 -1.5069
   9823SM  C23F13361  -0.176   5.172  12.849 -0.2482  0.3320 -0.1814
   9823SM  H23F13362  -0.144   5.279  12.854  1.1715 -0.1129  1.9316
   9823SM  H23G13363  -0.286   5.161  12.858 -0.2686  0.2685 -0.5036
   9823SM  H23H13364  -0.140   5.141  12.749 -0.6007  2.9172 -1.1903
   9923SM     N13365   0.001   7.944  11.999  0.2564 -0.1957 -0.0038
   9923SM   C1513366  -0.043   7.802  11.983  0.0310 -0.1536 -0.2576
   9923SM  H15A13367  -0.150   7.796  11.966 -0.1269 -1.8934  1.1161
   9923SM  H15B13368  -0.019   7.742  12.069  0.4246  3.3280  2.2590
   9923SM  H15C13369   0.007   7.768  11.893 -0.4753  2.0889 -1.4787
   9923SM   C1413370   0.147   7.954  12.027 -0.0382 -0.0545  0.2830
   9923SM  H14A13371   0.177   8.051  12.065 -0.5731 -0.9075  3.0662
   9923SM  H14B13372   0.204   7.933  11.938  1.2642  0.9713  0.8378
   9923SM  H14C13373   0.178   7.871  12.088  0.7885  0.7572  1.0159
   9923SM   C1313374  -0.010   8.009  11.869 -0.1231 -0.0177 -0.5038
   9923SM  H13A13375  -0.115   8.020  11.848  0.1804  1.6375 -1.3535
   9923SM  H13B13376   0.032   7.954  11.786  3.3806 -2.2034  2.4108
   9923SM  H13C13377   0.026   8.111  11.879 -2.2254  0.7435 -0.1416
   9923SM   C1213378  -0.073   8.016  12.112  0.7019 -0.3359 -0.2509
   9923SM  H12A13379  -0.070   7.943  12.192  2.4562 -0.7886 -0.6857
   9923SM  H12B13380  -0.179   8.011  12.091  0.6343 -3.0835  0.3371
   9923SM   C1113381  -0.030   8.157  12.163 -0.4189 -0.0488 -0.1790
   9923SM  H11A13382  -0.112   8.197  12.226 -1.3992 -1.1564 -0.7086
   9923SM  H11B13383  -0.028   8.221  12.073  0.6087 -1.8238 -1.4845
   9923SM     P13384   0.166   8.291  12.265  0.1184  0.1872  0.2000
   9923SM   O1313385   0.309   8.269  12.307  1.2568 -0.1981 -0.2140
   9923SM   O1413386   0.151   8.394  12.158  0.8141  0.1778  0.3325
   9923SM   O1113387   0.074   8.323  12.390  0.9838 -0.6656  0.4342
   9923SM   O1213388   0.102   8.155  12.219 -0.3865  0.1109 -0.1296
   9923SM   C1S13389   0.052   8.225  12.496 -0.5530  0.4118 -0.1748
   9923SM   H1S13390   0.111   8.131  12.491  1.4529  1.5296  0.9502
   9923SM   H1T13391  -0.055   8.195  12.504 -0.7347  1.1221  0.1262
   9923SM    NF13392   0.072   8.199  12.750 -0.8748  0.4273  0.2954
   9923SM   HNF13393  -0.017   8.202  12.795 -1.3255  1.5647 -0.6558
   9923SM   C2S13394   0.092   8.285  12.637 -0.3679 -0.6096  0.2985
   9923SM   H2S13395   0.201   8.305  12.633 -0.0106 -2.2263  1.1196
   9923SM   C3S13396   0.027   8.428  12.653 -0.1049  0.2249 -0.2151
   9923SM   H3S13397  -0.082   8.408  12.649  0.2934 -2.0110 -1.2547
   9923SM    O313398   0.063   8.522  12.554  0.2121 -0.1444  0.1698
   9923SM   HO313399   0.112   8.473  12.487 -0.3053 -1.2757  0.6053
   9923SM   C4S13400   0.051   8.489  12.787  0.0809  0.5178  0.2460
   9923SM   H4S13401   0.156   8.481  12.821  0.3147  0.6838 -0.4220
   9923SM   C5S13402  -0.037   8.560  12.862  0.0258  0.0831 -0.6230
   9923SM   H5S13403  -0.139   8.574  12.822 -0.8183 -0.1671  1.2995
   9923SM   C6S13404  -0.013   8.624  12.996  0.2810  0.1818 -0.4098
   9923SM   H6S13405   0.039   8.718  12.968  1.4054 -0.4268 -0.4353
   9923SM   H6T13406   0.060   8.556  13.046  0.9941  0.8980 -0.4552
   9923SM   C7S13407  -0.135   8.640  13.090 -0.2126 -0.0423 -0.1556
   9923SM   H7S13408  -0.209   8.558  13.088 -2.2637  1.5983  2.0589
   9923SM   H7T13409  -0.191   8.728  13.050 -1.7538 -1.5933 -1.5482
   9923SM   C8S13410  -0.092   8.670  13.233 -0.3497 -0.1730 -0.3485
   9923SM   H8S13411  -0.043   8.770  13.233 -0.4111 -0.1381  0.3651
   9923SM   H8T13412  -0.022   8.590  13.264 -0.3783 -0.0458  0.0520
   9923SM   C9S13413  -0.210   8.655  13.327  0.0096 -0.0738  0.0916
   9923SM   H9S13414  -0.222   8.545  13.332  5.0063 -0.7777  1.9679
   9923SM   H9T13415  -0.296   8.711  13.283  0.9557  0.9420 -0.5092
   9923SM  C10S13416  -0.174   8.688  13.474 -0.1702 -0.3471  0.2154
   9923SM  H10S13417  -0.262   8.689  13.542 -0.4254  0.9007 -0.1077
   9923SM  H10T13418  -0.133   8.791  13.471 -0.4531 -0.2475 -1.3706
   9923SM  C11S13419  -0.080   8.595  13.537 -0.1153  0.1831  0.1817
   9923SM  H11S13420   0.011   8.587  13.473 -0.4356 -1.1444 -0.1251
   9923SM  H11T13421  -0.121   8.492  13.539  0.8014 -0.2266 -1.1308
   9923SM  C12S13422  -0.013   8.637  13.668  0.2131  0.3260 -0.0863
   9923SM  H12S13423  -0.091   8.628  13.746  0.4275  0.6680  0.1735
   9923SM  H12T13424   0.007   8.746  13.675 -0.3994  0.4598 -0.3283
   9923SM  C13S13425   0.108   8.554  13.697  0.0241  0.2463  0.9058
   9923SM  H13S13426   0.189   8.582  13.626  1.6453 -0.4753  2.4041
   9923SM  H13T13427   0.092   8.448  13.671  1.0613  0.2576  0.1526
   9923SM  C14S13428   0.160   8.584  13.845 -0.3267 -0.5597  0.0890
   9923SM  H14S13429   0.206   8.499  13.899 -0.9603  0.2415  1.9752
   9923SM  H14T13430   0.067   8.601  13.903 -0.0368  1.8731 -0.0606
   9923SM  C15S13431   0.248   8.716  13.864 -0.1215  0.2954  0.2248
   9923SM  H15S13432   0.269   8.722  13.973 -1.1040 -3.6227  0.7712
   9923SM  H15T13433   0.197   8.807  13.825 -0.5739 -0.9101 -2.1953
   9923SM  C16S13434   0.375   8.713  13.775  0.5060  0.0844  0.4659
   9923SM  H16S13435   0.435   8.806  13.789  0.1616  0.5547 -0.9759
   9923SM  H16T13436   0.346   8.723  13.668  0.6712 -0.0717  0.4050
   9923SM  C17S13437   0.471   8.594  13.783 -0.0750  1.2713 -0.4296
   9923SM  H17S13438   0.422   8.499  13.750  0.1824  1.1202 -0.3839
   9923SM  H17T13439   0.506   8.580  13.888 -0.5773 -1.1429 -0.5080
   9923SM  C18S13440   0.595   8.615  13.694  0.2450 -0.1205 -0.0620
   9923SM  H18S13441   0.676   8.681  13.729  2.8647 -3.4964  0.7561
   9923SM  H18T13442   0.566   8.655  13.594  1.6184 -2.7361 -1.6575
   9923SM  H18U13443   0.643   8.518  13.669  3.1098  1.5905 -1.7396
   9923SM   C1F13444   0.164   8.090  12.765 -0.0004  0.3718 -0.1043
   9923SM    OF13445   0.279   8.093  12.724 -0.2158  0.1497 -0.2553
   9923SM   C2F13446   0.109   7.978  12.843  0.0319 -0.4383  0.4380
   9923SM   H2F13447   0.164   7.888  12.808 -1.7250 -0.9986 -0.9905
   9923SM   H2G13448   0.002   7.962  12.819 -0.2118  0.1929  1.0486
   9923SM   C3F13449   0.109   7.995  12.996  0.2584 -0.2949 -0.9031
   9923SM   H3F13450   0.040   8.080  13.015  1.2620  0.5874 -1.1244
   9923SM   H3G13451   0.205   8.029  13.041 -0.1901 -0.7108  0.4167
   9923SM   C4F13452   0.054   7.882  13.087  0.3246 -0.0935 -0.1754
   9923SM   H4F13453  -0.040   7.849  13.038 -0.5780  0.3993  1.1583
   9923SM   H4G13454   0.012   7.917  13.184 -1.8209 -1.4256 -0.5585
   9923SM   C5F13455   0.146   7.760  13.109  0.1347 -0.1981  0.9635
   9923SM   H5F13456   0.254   7.777  13.131  0.6364 -1.1341 -0.6669
   9923SM   H5G13457   0.137   7.705  13.013  0.1523 -0.3973  1.0775
   9923SM   C6F13458   0.087   7.671  13.217  0.4955  0.5844 -0.7069
   9923SM   H6F13459  -0.006   7.625  13.177  0.5360 -2.1648  2.0300
   9923SM   H6G13460   0.059   7.737  13.302  0.6472  0.0407 -0.2342
   9923SM   C7F13461   0.163   7.543  13.257 -0.3541  0.4258 -0.1608
   9923SM   H7F13462   0.271   7.568  13.259 -0.0960 -0.6802  1.6037
   9923SM   H7G13463   0.141   7.480  13.169 -0.6988  1.2409 -0.6706
   9923SM   C8F13464   0.105   7.483  13.388 -0.8144  0.1449 -0.3320
   9923SM   H8F13465   0.120   7.555  13.471 -1.2529 -1.1873  0.9502
   9923SM   H8G13466   0.175   7.399  13.411 -1.0168  0.0731  0.0290
   9923SM   C9F13467  -0.040   7.425  13.382  0.2473 -1.0506 -0.2856
   9923SM   H9F13468  -0.055   7.371  13.286 -0.6883  1.8740 -1.9155
   9923SM   H9G13469  -0.105   7.515  13.380  1.8947  0.1900 -0.4876
   9923SM  C10F13470  -0.076   7.345  13.504  0.0065 -0.3901 -0.6857
   9923SM  H10F13471   0.011   7.280  13.528  0.7855  0.7570 -0.2832
   9923SM  H10G13472  -0.169   7.286  13.497 -1.8298  2.4645 -3.8034
   9923SM  C11F13473  -0.093   7.428  13.633  0.0098 -0.0327  0.1804
   9923SM  H11F13474  -0.174   7.504  13.625  1.9866  2.0667 -1.0814
   9923SM  H11G13475   0.007   7.471  13.657  0.5125 -1.2601  0.3925
   9923SM  C12F13476  -0.144   7.337  13.747  0.2372  0.3140  0.4108
   9923SM  H12F13477  -0.056   7.280  13.784  1.3550  0.7217 -1.4796
   9923SM  H12G13478  -0.222   7.274  13.700 -0.5207  1.0519  0.6594
   9923SM  C13F13479  -0.213   7.407  13.865  0.4233 -0.3770  0.1765
   9923SM  H13F13480  -0.316   7.412  13.824  0.4011 -1.7610  0.0023
   9923SM  H13G13481  -0.165   7.505  13.880  1.2331 -0.6625 -0.4512
   9923SM  C14F13482  -0.209   7.332  14.002  0.3459 -0.7046  0.1938
   9923SM  H14F13483  -0.104   7.321  14.036  0.6157  0.3504 -0.2787
   9923SM  H14G13484  -0.251   7.230  13.985 -2.4254  0.5249 -0.9747
   9923SM  C15F13485  -0.290   7.410  14.114 -0.2413  0.1029 -0.2523
   9923SM  H15F13486  -0.300   7.350  14.207 -1.2173  1.8642  0.8346
   9923SM  H15G13487  -0.387   7.422  14.063 -1.9667 -2.7864  1.9890
   9923SM  C16F13488  -0.223   7.545  14.156 -0.0559  0.3003  0.5107
   9923SM  H16F13489  -0.273   7.577  14.250  0.1397  1.2003  0.3140
   9923SM  H16G13490  -0.248   7.616  14.074 -1.8664  0.9146  1.5233
   9923SM  C17F13491  -0.068   7.543  14.176  0.3097 -0.2523 -0.3365
   9923SM  H17F13492  -0.011   7.530  14.082  4.2062 -0.0958  1.8259
   9923SM  H17G13493  -0.047   7.468  14.255  0.2696  0.7129  0.6138
   9923SM  C18F13494  -0.025   7.677  14.236 -0.3237 -0.2448  0.4240
   9923SM  H18F13495  -0.081   7.708  14.327 -0.7954  0.6054 -0.1411
   9923SM  H18G13496  -0.058   7.746  14.155 -0.2983  0.2572  0.8317
   9923SM  C19F13497   0.131   7.676  14.253  0.5415 -0.7046 -0.2424
   9923SM  H19F13498   0.156   7.779  14.287  1.6094 -0.8262 -0.6298
   9923SM  H19G13499   0.184   7.659  14.158  0.1237  2.3116 -1.1224
   9923SM  C20F13500   0.193   7.573  14.347 -0.3403 -0.5368 -0.2081
   9923SM  H20F13501   0.202   7.478  14.291  0.8069  0.4466 -1.7818
   9923SM  H20G13502   0.139   7.561  14.443 -0.2715 -1.5055 -0.2840
   9923SM  C21F13503   0.334   7.612  14.390 -0.6106 -1.0091  0.2997
   9923SM  H21F13504   0.341   7.716  14.430 -2.9244 -0.9328  0.6673
   9923SM  H21G13505   0.397   7.602  14.300 -0.5185 -0.8810  0.3484
   9923SM  C22F13506   0.383   7.514  14.494  0.4071  0.3935 -0.2800
   9923SM  H22F13507   0.411   7.417  14.447  1.3952  0.0575  0.9512
   9923SM  H22G13508   0.308   7.490  14.573  3.0210 -2.1052  1.6638
   9923SM  C23F13509   0.512   7.554  14.567  0.2806 -0.0181 -0.6236
   9923SM  H23F13510   0.541   7.472  14.635 -0.7828 -0.2434 -0.4176
   9923SM  H23G13511   0.505   7.651  14.620 -0.7812 -0.0747 -0.6284
   9923SM  H23H13512   0.603   7.549  14.504  1.7889 -1.9150  1.5955
  10023SM     N13513   8.235   0.099  12.213 -0.6743  0.2467 -0.5593
  10023SM   C1513514   8.104   0.149  12.163  0.3066 -0.3866 -0.5202
  10023SM  H15A13515   8.049   0.193  12.245 -2.0494  1.8702 -3.0951
  10023SM  H15B13516   8.052   0.068  12.116 -1.0989  0.2228 -0.0727
  10023SM  H15C13517   8.120   0.223  12.086  0.4714 -0.9105 -0.9939
  10023SM   C1413518   8.325   0.071  12.095 -0.8110 -0.6482  0.5282
  10023SM  H14A13519   8.303  -0.019  12.038  0.4575  1.2497 -3.3678
  10023SM  H14B13520   8.429   0.065  12.123 -0.2822  1.1341 -0.8665
  10023SM  H14C13521   8.311   0.158  12.033  0.8833 -0.3997  0.4402
  10023SM   C1313522   8.301   0.218  12.278 -0.1784  0.1462  0.6405
  10023SM  H13A13523   8.374   0.180  12.348  0.3816  0.6681  0.3521
  10023SM  H13B13524   8.228   0.274  12.335 -1.9819  0.0367 -1.4579
  10023SM  H13C13525   8.336   0.285  12.201 -1.8760 -0.7273 -0.9515
  10023SM   C1213526   8.224  -0.016  12.303  0.5547 -0.1233 -0.9494
  10023SM  H12A13527   8.323  -0.060  12.311  0.4452 -0.2278  0.0137
  10023SM  H12B13528   8.171  -0.091  12.246  0.4534 -0.8395  0.0398
  10023SM   C1113529   8.156   0.011  12.446  0.4606 -0.0098  0.2553
  10023SM  H11A13530   8.226   0.065  12.514 -1.0661  0.2537  1.6708
  10023SM  H11B13531   8.138  -0.091  12.487 -0.4269 -0.1219 -0.3995
  10023SM     P13532   7.964   0.155  12.558 -0.3612 -0.1082  0.1466
  10023SM   O1313533   8.020   0.294  12.533 -0.0456  0.0184 -0.2068
  10023SM   O1413534   7.817   0.156  12.563  0.0514 -0.0545 -0.2990
  10023SM   O1113535   8.033   0.097  12.689  0.1840 -0.0907 -0.8631
  10023SM   O1213536   8.016   0.056  12.439  0.5118 -0.0600 -0.4618
  10023SM   C1S13537   8.024  -0.040  12.736  0.0322 -0.0453  0.4535
  10023SM   H1S13538   8.107  -0.096  12.688  0.8121  1.6385 -0.2584
  10023SM   H1T13539   7.932  -0.090  12.699  0.3889 -0.4878  0.1463
  10023SM    NF13540   8.040  -0.197  12.923 -0.0926  0.3754 -0.1847
  10023SM   HNF13541   7.951  -0.233  12.952  0.3469  0.4615  1.3128
  10023SM   C2S13542   8.040  -0.055  12.886 -0.3620  0.5494 -0.5903
  10023SM   H2S13543   8.136  -0.002  12.902 -0.7738  1.7658 -1.9874
  10023SM   C3S13544   7.936   0.035  12.961  0.5646  0.1638 -0.2807
  10023SM   H3S13545   7.833   0.000  12.940  0.1042  1.7505 -0.7671
  10023SM    O313546   7.934   0.167  12.914 -0.3116  0.1519  0.6618
  10023SM   HO313547   7.981   0.169  12.830  0.6637  0.0792  1.1933
  10023SM   C4S13548   7.948   0.039  13.111  0.4993 -0.3624 -0.6059
  10023SM   H4S13549   8.029   0.101  13.152 -1.3031  1.2530  0.6804
  10023SM   C5S13550   7.869  -0.036  13.193 -0.2179  0.0996  0.5952
  10023SM   H5S13551   7.791  -0.103  13.154 -0.9724  0.3461  1.6549
  10023SM   C6S13552   7.888  -0.041  13.344 -0.6061  0.7765  0.1857
  10023SM   H6S13553   7.807   0.021  13.388  0.0975  1.9631 -0.1160
  10023SM   H6T13554   7.980   0.004  13.388 -0.9074 -0.1532  1.8048
  10023SM   C7S13555   7.874  -0.177  13.415 -0.0599 -0.3796  0.1893
  10023SM   H7S13556   7.945  -0.245  13.364  0.7541  0.0380  0.7492
  10023SM   H7T13557   7.771  -0.214  13.397  0.2490 -1.3433  0.3210
  10023SM   C8S13558   7.897  -0.170  13.571  0.2290  0.1871  0.0610
  10023SM   H8S13559   7.893  -0.276  13.607 -4.3742 -0.0862 -0.7089
  10023SM   H8T13560   7.811  -0.115  13.613  0.7780  0.6310  0.6277
  10023SM   C9S13561   8.036  -0.114  13.619  0.0842 -0.5643 -0.4552
  10023SM   H9S13562   8.038  -0.006  13.595 -1.6243 -0.7909 -1.8726
  10023SM   H9T13563   8.115  -0.166  13.560 -0.2548 -1.3643 -0.2304
  10023SM  C10S13564   8.046  -0.133  13.772  0.5883  0.3944 -0.3703
  10023SM  H10S13565   8.147  -0.101  13.807  0.4559 -0.5127  0.9335
  10023SM  H10T13566   8.039  -0.242  13.795 -1.7800  0.1556 -1.9672
  10023SM  C11S13567   7.950  -0.048  13.853 -0.0633 -0.4355 -0.5682
  10023SM  H11S13568   7.975  -0.069  13.958  2.3211  0.6663 -0.8559
  10023SM  H11T13569   7.845  -0.084  13.843  0.4871 -2.6490  1.0502
  10023SM  C12S13570   7.949   0.101  13.821  0.8145  0.3006  0.0516
  10023SM  H12S13571   7.867   0.146  13.880  0.2182 -0.5318 -0.1201
  10023SM  H12T13572   7.922   0.119  13.715  2.2660  2.8594  0.0367
  10023SM  C13S13573   8.086   0.167  13.826  0.2502  0.0130 -0.6354
  10023SM  H13S13574   8.142   0.148  13.732 -2.3501 -1.5761 -1.9640
  10023SM  H13T13575   8.143   0.131  13.915  0.3830  1.7822  0.0425
  10023SM  C14S13576   8.065   0.316  13.836 -0.5275  0.5449  0.3134
  10023SM  H14S13577   7.998   0.344  13.919 -1.6725 -1.4063  0.1106
  10023SM  H14T13578   8.014   0.349  13.743 -0.4478 -1.9842 -0.7194
  10023SM  C15S13579   8.205   0.389  13.851 -0.2359 -0.1919  0.2412
  10023SM  H15S13580   8.263   0.358  13.761 -0.9511 -2.1618  0.4301
  10023SM  H15T13581   8.256   0.353  13.943 -1.6346  0.8116  1.4524
  10023SM  C16S13582   8.189   0.541  13.868 -0.0570  0.3537 -0.1330
  10023SM  H16S13583   8.128   0.562  13.959 -0.9637 -1.6198 -0.2442
  10023SM  H16T13584   8.151   0.580  13.771  1.5386  0.5650 -0.7017
  10023SM  C17S13585   8.320   0.623  13.879 -0.1362 -0.5931 -0.1877
  10023SM  H17S13586   8.295   0.730  13.892  3.1073  0.1786  0.5079
  10023SM  H17T13587   8.384   0.625  13.788 -1.2911  3.0854 -1.1054
  10023SM  C18S13588   8.400   0.593  14.006 -0.0727  0.6310 -0.5169
  10023SM  H18S13589   8.343   0.613  14.099 -1.8612  1.2047 -1.6885
  10023SM  H18T13590   8.494   0.651  14.013 -0.3034  1.5644 -3.5758
  10023SM  H18U13591   8.440   0.489  14.010  0.1200  0.6296 -2.0794
  10023SM   C1F13592   8.150  -0.273  12.900  0.5036 -0.0337 -0.0098
  10023SM    OF13593   8.237  -0.238  12.825  0.4546  0.5881  0.1868
  10023SM   C2F13594   8.153  -0.412  12.963  0.5832  0.0876  0.2585
  10023SM   H2F13595   8.182  -0.394  13.069 -0.2385  0.5344  0.4136
  10023SM   H2G13596   8.236  -0.469  12.917  0.6111 -1.8704  2.5485
  10023SM   C3F13597   8.029  -0.508  12.951  0.0032 -0.2793  0.6447
  10023SM   H3F13598   7.988  -0.494  12.848  2.0466 -0.4210 -0.2435
  10023SM   H3G13599   7.966  -0.455  13.025  0.7900  1.1226  0.3525
  10023SM   C4F13600   8.055  -0.646  12.992 -0.2954  0.0857 -0.3819
  10023SM   H4F13601   8.119  -0.705  12.923 -0.9299 -0.6540 -0.3551
  10023SM   H4G13602   7.960  -0.703  13.001 -0.0257 -0.2445  0.5587
  10023SM   C5F13603   8.116  -0.641  13.129 -0.4118  0.4334 -0.2302
  10023SM   H5F13604   8.206  -0.578  13.145  0.2728 -0.6151  0.1880
  10023SM   H5G13605   8.153  -0.745  13.143  1.3806  1.2867  2.0344
  10023SM   C6F13606   8.016  -0.617  13.241  0.6460  0.4213  0.4315
  10023SM   H6F13607   7.938  -0.697  13.235 -1.6166  2.5732 -1.1731
  10023SM   H6G13608   7.954  -0.531  13.207 -2.1767 -1.2565  1.0006
  10023SM   C7F13609   8.070  -0.588  13.380 -0.3444 -0.7989  0.0290
  10023SM   H7F13610   7.983  -0.592  13.448 -0.6402 -0.2468 -0.3072
  10023SM   H7G13611   8.106  -0.483  13.374  0.6593 -1.0712  1.0545
  10023SM   C8F13612   8.182  -0.683  13.432  0.3269  0.0654 -0.0758
  10023SM   H8F13613   8.269  -0.669  13.365  1.8332 -0.6210  1.6718
  10023SM   H8G13614   8.148  -0.787  13.415 -0.0290  0.1433  0.1388
  10023SM   C9F13615   8.216  -0.658  13.581 -0.7283  0.5309 -0.2864
  10023SM   H9F13616   8.259  -0.556  13.588  0.7496 -0.1609  1.2972
  10023SM   H9G13617   8.299  -0.730  13.597 -1.8052 -0.6795  0.0792
  10023SM  C10F13618   8.113  -0.685  13.686  0.5769 -0.4890 -0.1728
  10023SM  H10F13619   8.086  -0.792  13.681  1.6188 -0.7238 -3.8188
  10023SM  H10G13620   8.018  -0.634  13.659  1.3198  1.1426  0.1767
  10023SM  C11F13621   8.152  -0.645  13.823 -0.6246 -0.5359  0.2939
  10023SM  H11F13622   8.212  -0.552  13.818  1.7443 -1.9654  0.2212
  10023SM  H11G13623   8.204  -0.727  13.877  0.1925  0.0672  0.4496
  10023SM  C12F13624   8.038  -0.609  13.919  0.1882  0.3368 -0.1046
  10023SM  H12F13625   7.972  -0.698  13.919  0.8649 -0.1820 -0.3351
  10023SM  H12G13626   7.973  -0.536  13.868 -0.1507 -0.7329 -1.2590
  10023SM  C13F13627   8.076  -0.562  14.061  0.1890  1.0942  0.5595
  10023SM  H13F13628   8.176  -0.603  14.086  1.0500  2.2056 -0.8997
  10023SM  H13G13629   8.005  -0.602  14.137 -1.7594  0.3912 -1.5050
  10023SM  C14F13630   8.078  -0.413  14.070  0.1092 -0.5475 -0.1593
  10023SM  H14F13631   7.986  -0.361  14.035  2.4492  3.6422 -0.7730
  10023SM  H14G13632   8.156  -0.374  14.001 -0.3281  1.5420  0.4446
  10023SM  C15F13633   8.120  -0.371  14.210 -0.1472 -0.6282  0.2779
  10023SM  H15F13634   8.057  -0.423  14.285  1.5851 -0.9290  1.5908
  10023SM  H15G13635   8.111  -0.262  14.227 -0.7911 -0.4655 -1.0013
  10023SM  C16F13636   8.269  -0.408  14.235  0.4308  0.1702  0.0533
  10023SM  H16F13637   8.325  -0.402  14.138  0.2411 -3.9204 -0.4535
  10023SM  H16G13638   8.269  -0.508  14.283 -0.9083 -0.1359 -0.5505
  10023SM  C17F13639   8.365  -0.316  14.329  0.1527  0.6736  0.1172
  10023SM  H17F13640   8.341  -0.348  14.433  0.6815 -4.2908 -1.0402
  10023SM  H17G13641   8.346  -0.210  14.302  1.5047  0.5242 -1.5701
  10023SM  C18F13642   8.515  -0.344  14.319 -0.5173  0.2808 -0.3262
  10023SM  H18F13643   8.552  -0.323  14.216  1.6288  0.1525  0.3599
  10023SM  H18G13644   8.536  -0.453  14.322  2.3953  0.6756 -2.1583
  10023SM  C19F13645   8.597  -0.245  14.417  0.4366  0.5059 -0.3871
  10023SM  H19F13646   8.569  -0.274  14.520  1.0146  2.3904  0.3455
  10023SM  H19G13647   8.564  -0.139  14.410  0.1002  0.4248  0.0161
  10023SM  C20F13648   8.748  -0.249  14.407  0.2681  0.6211 -0.0824
  10023SM  H20F13649   8.783  -0.192  14.496  1.0785  0.0449 -0.0189
  10023SM  H20G13650   8.779  -0.198  14.313  0.7278 -2.3343 -1.6479
  10023SM  C21F13651   8.803  -0.393  14.421  0.0491 -0.4130 -0.3789
  10023SM  H21F13652   8.789  -0.445  14.324 -0.5366 -2.9750  0.9973
  10023SM  H21G13653   8.740  -0.455  14.488  2.8163 -1.4750  1.3961
  10023SM  C22F13654   8.957  -0.407  14.450  0.4000 -0.5566  0.4175
  10023SM  H22F13655   8.986  -0.514  14.439  3.3140 -0.2067  3.1469
  10023SM  H22G13656   8.968  -0.382  14.557  0.8583 -0.1043  0.2706
  10023SM  C23F13657   9.046  -0.311  14.363  0.2743  0.4578  0.4396
  10023SM  H23F13658   9.023  -0.203  14.370  0.4620  0.4355  1.4478
  10023SM  H23G13659   9.037  -0.340  14.256 -3.0180  1.4227  0.3603
  10023SM  H23H13660   9.152  -0.308  14.396  0.7009  0.2470 -0.8224
  101CHL1    C313661   5.072   4.851  15.605  0.4107 -0.1666  0.3492
  101CHL1    H313662   5.085   4.961  15.607 -0.2880 -0.0361 -1.2649
  101CHL1    O313663   5.109   4.806  15.734 -0.1422  0.0572 -0.1530
  101CHL1   H3'13664   5.084   4.714  15.745  1.5617 -0.4311 -0.2101
  101CHL1    C413665   4.925   4.802  15.575 -0.7589  0.1944  0.2911
  101CHL1   H4A13666   4.924   4.691  15.585  0.5382  0.1443  0.0602
  101CHL1   H4B13667   4.852   4.844  15.647  1.3644  0.9441  2.1042
  101CHL1    C513668   4.889   4.835  15.431 -0.3363  0.0045  0.0930
  101CHL1    C613669   4.784   4.912  15.393  0.1956 -0.6194 -0.0288
  101CHL1    H613670   4.724   4.960  15.472  0.1144  1.1896 -1.1265
  101CHL1    C713671   4.748   4.921  15.249  0.2080 -0.8809  0.6077
  101CHL1   H7A13672   4.640   4.912  15.227  0.5266 -1.0133 -1.0531
  101CHL1   H7B13673   4.764   5.028  15.223  1.7808 -1.3437 -0.5197
  101CHL1    C813674   4.815   4.827  15.157  0.3754  0.0432  0.2462
  101CHL1    H813675   4.771   4.727  15.175  0.5178 -0.0913 -0.1307
  101CHL1   C1413676   4.791   4.873  15.008 -0.1849 -0.0540  0.2611
  101CHL1   H1413677   4.848   4.969  15.008  1.2596 -0.7810  3.5817
  101CHL1   C1513678   4.647   4.892  14.957 -0.1719  0.3297  0.2481
  101CHL1  H15A13679   4.588   4.800  14.971  0.5964 -0.3096 -0.6214
  101CHL1  H15B13680   4.581   4.975  14.992 -0.6962 -1.0951  2.8669
  101CHL1   C1613681   4.669   4.902  14.804  0.4246 -0.3439  0.2133
  101CHL1  H16A13682   4.597   4.837  14.751 -0.2051 -0.3510  1.0526
  101CHL1  H16B13683   4.647   5.005  14.771  1.8144 -0.4584 -1.2020
  101CHL1   C1713684   4.816   4.856  14.775 -0.9220 -0.7281  0.5426
  101CHL1   H1713685   4.879   4.948  14.767  1.2789 -2.1791  0.4288
  101CHL1   C1313686   4.861   4.788  14.908 -0.0303  0.0703 -0.1436
  101CHL1   C1813687   4.808   4.643  14.905 -0.7080 -0.0496 -0.4614
  101CHL1  H18A13688   4.704   4.631  14.866 -0.5666  1.4386 -1.4007
  101CHL1  H18B13689   4.881   4.587  14.844  1.7214  0.6707  1.6216
  101CHL1  H18C13690   4.811   4.596  15.006 -0.4177  0.1945 -0.3553
  101CHL1   C1213691   5.006   4.794  14.931  0.1043  0.0632 -1.0465
  101CHL1  H12A13692   5.070   4.731  14.866 -0.7272 -0.3551 -1.4706
  101CHL1  H12B13693   5.044   4.899  14.932  0.8715 -0.1902  0.8735
  101CHL1   C1113694   5.040   4.735  15.073  0.4586  0.1065 -0.4418
  101CHL1  H11A13695   5.007   4.629  15.076 -2.2496  0.8380 -1.1814
  101CHL1  H11B13696   5.150   4.727  15.086  0.3570 -0.8694 -0.1136
  101CHL1    C913697   4.966   4.816  15.186 -0.5639  0.2439  0.5387
  101CHL1    H913698   5.004   4.920  15.177  0.2107 -0.0883 -0.1532
  101CHL1   C1013699   4.988   4.765  15.327  0.6189  0.0843 -0.7660
  101CHL1   C1913700   4.966   4.613  15.326  0.0870  0.1336 -0.1909
  101CHL1  H19A13701   4.867   4.580  15.287  1.0979 -2.8702 -0.5232
  101CHL1  H19B13702   5.040   4.553  15.269 -0.1515  1.8538 -2.4406
  101CHL1  H19C13703   4.958   4.578  15.431 -1.1500 -1.1048 -0.6586
  101CHL1    C113704   5.128   4.804  15.366  0.2071 -0.2166 -0.4899
  101CHL1   H1A13705   5.196   4.736  15.311 -1.2177 -2.3422  0.2460
  101CHL1   H1B13706   5.155   4.910  15.349 -1.7371  0.9206  2.6852
  101CHL1    C213707   5.171   4.781  15.512  0.7553 -0.4489  0.8280
  101CHL1   H2A13708   5.273   4.825  15.520  0.2226  0.9477  0.1281
  101CHL1   H2B13709   5.172   4.671  15.526 -0.5482 -0.7395 -1.0424
  101CHL1   C2013710   4.838   4.783  14.640 -0.9747  0.4432  0.2103
  101CHL1   H2013711   4.825   4.674  14.655  1.1520  0.4028  2.2874
  101CHL1   C2113712   4.983   4.805  14.586  0.1766  0.4846 -0.6562
  101CHL1  H21A13713   5.002   4.750  14.492 -0.5249  0.1369 -0.6013
  101CHL1  H21B13714   5.058   4.767  14.658 -0.3732 -0.5627 -0.6179
  101CHL1  H21C13715   5.005   4.912  14.563 -2.1127  1.1851  0.1446
  101CHL1   C2213716   4.741   4.827  14.527 -0.2068  0.5825 -0.1953
  101CHL1  H22A13717   4.782   4.776  14.437 -1.7729 -0.6027 -0.2843
  101CHL1  H22B13718   4.643   4.776  14.544  0.5562 -0.9612 -0.2849
  101CHL1   C2313719   4.723   4.975  14.494  0.1082  0.3108  0.3148
  101CHL1  H23A13720   4.675   5.021  14.583 -1.2312 -0.4409  0.0119
  101CHL1  H23B13721   4.821   5.026  14.490 -0.3299  1.0755 -2.0152
  101CHL1   C2413722   4.645   4.993  14.365 -0.2581  0.0659 -0.0293
  101CHL1  H24A13723   4.712   4.960  14.283 -0.8383 -0.6701 -0.2127
  101CHL1  H24B13724   4.552   4.933  14.367  0.1645 -0.6421 -0.9686
  101CHL1   C2513725   4.614   5.146  14.333  0.6040  0.0632 -0.1405
  101CHL1   H2513726   4.548   5.182  14.415 -1.6050 -0.9947 -1.3471
  101CHL1   C2613727   4.734   5.236  14.345  1.5435 -0.0204 -0.3468
  101CHL1  H26A13728   4.698   5.337  14.315 -0.0759 -0.1497  1.0009
  101CHL1  H26B13729   4.768   5.233  14.451  1.8309 -2.8304 -0.4440
  101CHL1  H26C13730   4.821   5.193  14.293  2.9176 -2.3814  3.4843
  101CHL1   C2713731   4.550   5.158  14.192  0.1954  0.6245  0.5217
  101CHL1  H27A13732   4.509   5.260  14.180 -2.9521 -0.6741 -1.0017
  101CHL1  H27B13733   4.635   5.147  14.121 -0.8613  0.1751 -0.7154
  101CHL1  H27C13734   4.468   5.083  14.184  2.7781 -2.4384  0.8828
  102CHL1    C313735   2.350   5.255  15.932 -0.5520 -0.1459  0.1508
  102CHL1    H313736   2.371   5.147  15.943  0.0183  0.0114  0.6796
  102CHL1    O313737   2.266   5.299  16.035  0.1024  0.2650 -0.2117
  102CHL1   H3'13738   2.203   5.227  16.043  1.9689 -1.4307 -0.1557
  102CHL1    C413739   2.487   5.332  15.940 -1.2177  0.6593  1.0193
  102CHL1   H4A13740   2.464   5.437  15.970  1.4071  1.3475  0.8404
  102CHL1   H4B13741   2.543   5.288  16.025 -0.8229 -1.3240 -0.1929
  102CHL1    C513742   2.570   5.333  15.814  0.9560  0.2814  0.0545
  102CHL1    C613743   2.704   5.307  15.809  0.6588 -0.4034  0.2396
  102CHL1    H613744   2.745   5.281  15.907  1.6173  0.9005  0.2031
  102CHL1    C713745   2.794   5.315  15.690  0.3724 -0.5534  0.4136
  102CHL1   H7A13746   2.874   5.388  15.713  1.0519 -0.9213 -0.7259
  102CHL1   H7B13747   2.852   5.223  15.667  1.6244  0.6071 -1.2579
  102CHL1    C813748   2.725   5.369  15.566 -0.2208  0.8091  0.0732
  102CHL1    H813749   2.717   5.479  15.562 -0.1762  0.7763 -1.3831
  102CHL1   C1413750   2.807   5.336  15.439 -0.3364 -0.0887 -0.9687
  102CHL1   H1413751   2.822   5.226  15.441  0.7660  0.0644  0.8269
  102CHL1   C1513752   2.953   5.392  15.426  0.2178 -0.1662 -0.3502
  102CHL1  H15A13753   2.939   5.497  15.458 -1.6389 -0.5871  0.3808
  102CHL1  H15B13754   3.027   5.334  15.485  0.8522  0.4572 -0.5263
  102CHL1   C1613755   2.976   5.377  15.275 -0.4245  0.1294  0.2583
  102CHL1  H16A13756   2.989   5.478  15.230 -3.2379 -0.3133 -1.7518
  102CHL1  H16B13757   3.061   5.307  15.260 -0.2210  0.3282  0.4663
  102CHL1   C1713758   2.849   5.315  15.210  0.3823  0.0671  0.7482
  102CHL1   H1713759   2.867   5.206  15.226  0.2676 -0.2871 -1.2784
  102CHL1   C1313760   2.739   5.362  15.307  0.5747 -0.3615  0.4458
  102CHL1   C1813761   2.721   5.513  15.286 -0.1061 -0.3394  0.9035
  102CHL1  H18A13762   2.644   5.538  15.362  0.8841  1.7667  1.2931
  102CHL1  H18B13763   2.810   5.579  15.297 -0.6683  0.1773  2.6001
  102CHL1  H18C13764   2.680   5.539  15.186  1.1557 -2.2485 -0.1565
  102CHL1   C1213765   2.602   5.290  15.295  0.0306  0.0527 -0.5019
  102CHL1  H12A13766   2.534   5.305  15.208  0.0764  0.6829 -0.4370
  102CHL1  H12B13767   2.628   5.182  15.295  0.1513  0.0628  1.0231
  102CHL1   C1113768   2.507   5.317  15.418  0.0591 -0.2098 -0.0721
  102CHL1  H11A13769   2.464   5.419  15.403  1.7590  1.5596  5.0724
  102CHL1  H11B13770   2.422   5.245  15.423 -1.3026  1.2738 -0.7506
  102CHL1    C913771   2.582   5.310  15.558  0.3738  0.3433  0.7361
  102CHL1    H913772   2.593   5.201  15.580  0.8297 -0.5130 -3.0613
  102CHL1   C1013773   2.493   5.355  15.680  0.0250 -0.0487 -0.1033
  102CHL1   C1913774   2.463   5.508  15.669 -0.6580  0.0798 -0.5959
  102CHL1  H19A13775   2.558   5.566  15.663  0.0012 -1.0089 -0.9530
  102CHL1  H19B13776   2.398   5.518  15.579 -2.2564 -1.4193  0.3232
  102CHL1  H19C13777   2.406   5.543  15.758  0.0361  0.3822 -0.2642
  102CHL1    C113778   2.363   5.269  15.669  0.1243 -0.1453 -0.1658
  102CHL1   H1A13779   2.296   5.324  15.599 -2.5880  0.8386  2.9394
  102CHL1   H1B13780   2.390   5.175  15.617  2.0014  1.7475 -2.8612
  102CHL1    C213781   2.279   5.268  15.799  0.6157 -0.3719  0.7554
  102CHL1   H2A13782   2.211   5.181  15.792  2.9298 -2.3388  1.4594
  102CHL1   H2B13783   2.225   5.365  15.793 -0.7518 -1.1064  0.8144
  102CHL1   C2013784   2.822   5.327  15.057 -0.7024  0.7425 -0.5741
  102CHL1   H2013785   2.717   5.303  15.030 -0.8039  0.5387 -0.0128
  102CHL1   C2113786   2.915   5.212  14.993 -0.0349 -0.2178 -0.5299
  102CHL1  H21A13787   3.019   5.251  14.999 -0.5647  1.1529  0.4728
  102CHL1  H21B13788   2.886   5.198  14.887 -0.1702  0.6777 -0.6228
  102CHL1  H21C13789   2.901   5.111  15.037 -0.6710  0.4764  0.9489
  102CHL1   C2213790   2.867   5.466  14.989 -0.4252  0.7261  0.0606
  102CHL1  H22A13791   2.845   5.553  15.054  1.4611  0.3634  1.2916
  102CHL1  H22B13792   2.978   5.477  14.992 -0.1932 -0.8772 -1.0819
  102CHL1   C2313793   2.806   5.491  14.854 -0.1667 -0.5142  0.0263
  102CHL1  H23A13794   2.828   5.407  14.784 -0.9220 -0.1597 -0.6558
  102CHL1  H23B13795   2.695   5.497  14.860 -0.3692 -1.9507 -1.5356
  102CHL1   C2413796   2.860   5.622  14.787  0.2461  0.1147  0.4994
  102CHL1  H24A13797   2.832   5.698  14.864 -0.6711  0.4514 -0.1515
  102CHL1  H24B13798   2.971   5.622  14.782  0.2693 -0.9734  0.8019
  102CHL1   C2513799   2.804   5.651  14.641  0.5790  0.2082 -0.6062
  102CHL1   H2513800   2.693   5.646  14.650  0.4282  2.0754 -1.0281
  102CHL1   C2613801   2.830   5.801  14.599 -0.1607 -0.5185 -0.5411
  102CHL1  H26A13802   2.767   5.824  14.511 -0.4311  1.1903  0.0681
  102CHL1  H26B13803   2.810   5.881  14.674  2.3438  0.2283 -0.5671
  102CHL1  H26C13804   2.940   5.808  14.588 -0.2695  1.0914 -0.8485
  102CHL1   C2713805   2.843   5.546  14.530 -0.2691 -0.0537 -0.4313
  102CHL1  H27A13806   2.953   5.536  14.539 -0.1239  2.5249  4.1477
  102CHL1  H27B13807   2.807   5.441  14.535 -1.6078  0.3726 -0.7282
  102CHL1  H27C13808   2.819   5.600  14.436 -1.2839  0.9069  0.3387
  103CHL1    C313809   4.455   2.109  15.293 -0.0294  0.0417 -0.2899
  103CHL1    H313810   4.554   2.160  15.288 -0.5977  1.1339 -0.6534
  103CHL1    O313811   4.456   2.017  15.395 -0.0397  0.1854 -0.0693
  103CHL1   H3'13812   4.365   1.985  15.396 -0.0962  0.3396 -0.2754
  103CHL1    C413813   4.345   2.207  15.323 -0.3057  1.1650 -0.2038
  103CHL1   H4A13814   4.245   2.158  15.324 -0.6122  1.3530 -4.2626
  103CHL1   H4B13815   4.362   2.253  15.423 -0.3903  1.4501 -0.3180
  103CHL1    C513816   4.334   2.311  15.210  0.4504  0.3100 -0.1800
  103CHL1    C613817   4.351   2.438  15.236  0.6770  0.2100 -0.4356
  103CHL1    H613818   4.367   2.478  15.338 -1.1894 -1.7527  0.7205
  103CHL1    C713819   4.341   2.545  15.135  0.4048 -0.0746  0.6690
  103CHL1   H7A13820   4.280   2.630  15.173 -0.3053 -0.6261  0.7955
  103CHL1   H7B13821   4.445   2.570  15.107 -0.7771  2.3373 -2.1582
  103CHL1    C813822   4.266   2.494  15.005 -0.8811 -0.1627 -0.0498
  103CHL1    H813823   4.160   2.493  15.037 -0.1625  0.2288  2.5905
  103CHL1   C1413824   4.275   2.594  14.890 -0.2659 -0.0245  0.1917
  103CHL1   H1413825   4.383   2.608  14.872 -1.0222  2.1701 -3.7068
  103CHL1   C1513826   4.232   2.742  14.917 -0.1693  0.2704 -0.3928
  103CHL1  H15A13827   4.132   2.750  14.964  0.6840  3.6003  1.1956
  103CHL1  H15B13828   4.300   2.810  14.973 -0.3934  0.9514 -0.9333
  103CHL1   C1613829   4.219   2.798  14.774 -0.6424 -0.7452 -0.0116
  103CHL1  H16A13830   4.112   2.822  14.760 -0.3892 -0.2457 -1.2579
  103CHL1  H16B13831   4.281   2.889  14.759  1.8672 -2.0040  1.9506
  103CHL1   C1713832   4.257   2.680  14.678 -0.5125  0.1378 -0.2347
  103CHL1   H1713833   4.367   2.692  14.672 -0.4176  0.3719  1.4079
  103CHL1   C1313834   4.227   2.546  14.754  0.6157 -0.0860 -0.3165
  103CHL1   C1813835   4.069   2.535  14.755 -0.6365  1.0314  0.3165
  103CHL1  H18A13836   4.029   2.499  14.658  4.3250 -0.1435 -1.5639
  103CHL1  H18B13837   4.036   2.464  14.833 -0.0637  1.9655  1.4392
  103CHL1  H18C13838   4.027   2.635  14.779 -1.6690  0.2090  2.1220
  103CHL1   C1213839   4.292   2.420  14.706 -0.9650 -0.3651 -0.2222
  103CHL1  H12A13840   4.243   2.381  14.614  0.8139 -0.6782 -1.0863
  103CHL1  H12B13841   4.399   2.439  14.685 -0.0713 -0.7182  3.4108
  103CHL1   C1113842   4.279   2.315  14.818  0.4595 -0.0898  0.7305
  103CHL1  H11A13843   4.170   2.291  14.818  1.1171 -3.5910  1.2612
  103CHL1  H11B13844   4.340   2.227  14.789 -1.2265 -1.2841  0.6865
  103CHL1    C913845   4.323   2.365  14.962  0.1548 -0.3117  0.3838
  103CHL1    H913846   4.430   2.390  14.945  0.6570 -2.3722  0.2023
  103CHL1   C1013847   4.310   2.259  15.069 -0.8222  1.2859  0.7553
  103CHL1   C1913848   4.164   2.209  15.078  0.0760  0.1084  0.6332
  103CHL1  H19A13849   4.097   2.286  15.122 -1.1902 -0.8843  0.4988
  103CHL1  H19B13850   4.119   2.189  14.979  0.0400 -0.0350  0.6787
  103CHL1  H19C13851   4.160   2.123  15.148  0.0949 -0.2165  0.2322
  103CHL1    C113852   4.410   2.138  15.044 -0.5252  0.5036 -0.0665
  103CHL1   H1A13853   4.382   2.084  14.951 -0.4532  2.0499 -1.0322
  103CHL1   H1B13854   4.508   2.188  15.027 -1.3217  2.1379 -0.0772
  103CHL1    C213855   4.427   2.032  15.157 -0.0058 -0.9456  0.5513
  103CHL1   H2A13856   4.514   1.967  15.133  1.0512  1.2175 -2.0258
  103CHL1   H2B13857   4.329   1.979  15.158 -0.1657 -0.7270 -0.7911
  103CHL1   C2013858   4.200   2.683  14.536 -0.3341 -0.1828  0.7189
  103CHL1   H2013859   4.166   2.581  14.507  0.6468 -0.9998  2.3130
  103CHL1   C2113860   4.302   2.734  14.428 -0.3434  0.6934 -0.3600
  103CHL1  H21A13861   4.388   2.664  14.418 -1.4018 -0.4588 -1.7922
  103CHL1  H21B13862   4.347   2.832  14.456  1.1440 -0.3027  0.9358
  103CHL1  H21C13863   4.254   2.743  14.329 -1.9045  2.1308  0.4764
  103CHL1   C2213864   4.070   2.768  14.515  0.2259  0.3112 -0.2557
  103CHL1  H22A13865   4.003   2.743  14.600  1.4562  0.3678  0.7485
  103CHL1  H22B13866   4.088   2.878  14.514 -0.4693  0.4308 -0.8586
  103CHL1   C2313867   3.988   2.724  14.399 -0.9393 -0.1536 -0.0411
  103CHL1  H23A13868   4.049   2.741  14.308 -0.1154  1.7771  0.8344
  103CHL1  H23B13869   3.954   2.619  14.411 -1.5534  0.2450  2.0894
  103CHL1   C2413870   3.854   2.810  14.383 -0.0570  0.8455 -0.4097
  103CHL1  H24A13871   3.786   2.772  14.463  0.5885 -1.3229 -0.8311
  103CHL1  H24B13872   3.882   2.913  14.412 -0.1350  0.3713  1.5252
  103CHL1   C2513873   3.774   2.798  14.251 -0.0437  0.0740  0.0550
  103CHL1   H2513874   3.845   2.824  14.170  1.0012 -1.6313  0.3819
  103CHL1   C2613875   3.707   2.660  14.226  0.0516  0.3964  0.6921
  103CHL1  H26A13876   3.781   2.584  14.259  1.4289  1.4766  0.2039
  103CHL1  H26B13877   3.621   2.654  14.296  0.0788  0.9054  0.7708
  103CHL1  H26C13878   3.673   2.639  14.123 -1.3062 -0.3649  1.2658
  103CHL1   C2713879   3.656   2.895  14.244 -0.0847 -0.2521 -0.0490
  103CHL1  H27A13880   3.614   2.890  14.142  0.0793 -0.5513 -0.1003
  103CHL1  H27B13881   3.574   2.870  14.315 -1.1740  2.6763 -0.1281
  103CHL1  H27C13882   3.696   2.997  14.263  3.6471 -1.9198  2.3331
  104CHL1    C313883   6.103   5.823  15.852  0.1470  0.2060 -0.1117
  104CHL1    H313884   6.209   5.835  15.822 -0.2057  2.3693 -0.6138
  104CHL1    O313885   6.082   5.900  15.972  0.6068  0.0354 -0.3769
  104CHL1   H3'13886   5.994   5.875  16.003 -0.3283  0.3852 -2.5537
  104CHL1    C413887   6.006   5.863  15.753  0.4878  0.1585  0.1248
  104CHL1   H4A13888   5.908   5.852  15.804 -0.3625 -1.0028 -1.6431
  104CHL1   H4B13889   6.017   5.971  15.729  0.5349 -0.0399 -0.7958
  104CHL1    C513890   6.008   5.775  15.624 -0.1348 -0.0817 -0.9647
  104CHL1    C613891   6.047   5.818  15.500  0.2547  0.4273  1.1225
  104CHL1    H613892   6.053   5.924  15.471 -1.3657  0.1822 -0.3257
  104CHL1    C713893   6.042   5.727  15.381 -0.1050  0.0137  0.7738
  104CHL1   H7A13894   5.985   5.779  15.301  2.6681 -1.4638 -2.3992
  104CHL1   H7B13895   6.142   5.710  15.337 -1.3112 -0.1631 -2.1249
  104CHL1    C813896   5.975   5.588  15.403  0.2347 -0.4802  0.0398
  104CHL1    H813897   5.865   5.597  15.390  0.0872 -2.3886 -0.2130
  104CHL1   C1413898   6.018   5.493  15.290 -0.9277  0.3513 -0.3798
  104CHL1   H1413899   6.129   5.485  15.288 -0.6413  1.9980  2.8521
  104CHL1   C1513900   5.976   5.532  15.144  0.0218  0.0963 -0.3284
  104CHL1  H15A13901   5.868   5.557  15.153  0.0131 -0.1400  0.3378
  104CHL1  H15B13902   6.038   5.621  15.122  0.5793  0.0933  1.0692
  104CHL1   C1613903   6.003   5.405  15.056 -0.2233  0.2203 -0.2536
  104CHL1  H16A13904   5.924   5.401  14.978  0.4810  0.6192 -0.9996
  104CHL1  H16B13905   6.100   5.409  15.002  0.2510  0.7019  0.5992
  104CHL1   C1713906   6.019   5.288  15.168 -0.4524 -0.1772 -0.3396
  104CHL1   H1713907   6.128   5.279  15.186 -0.5894 -0.0877  0.5751
  104CHL1   C1313908   5.973   5.342  15.301  0.3892 -0.7433 -0.1481
  104CHL1   C1813909   5.815   5.348  15.307 -0.3268  0.0322  0.0038
  104CHL1  H18A13910   5.764   5.402  15.389 -1.7278 -0.0015 -0.8113
  104CHL1  H18B13911   5.771   5.363  15.206 -2.1340  0.1004  0.7777
  104CHL1  H18C13912   5.776   5.247  15.334  0.7612 -0.3583  0.1896
  104CHL1   C1213913   6.042   5.292  15.430  0.0334  0.4423  0.2671
  104CHL1  H12A13914   6.023   5.184  15.446  2.0953 -0.0334 -0.2302
  104CHL1  H12B13915   6.152   5.299  15.418  0.0150 -0.7665 -0.8605
  104CHL1   C1113916   6.003   5.380  15.553 -0.0537 -0.1352 -0.3981
  104CHL1  H11A13917   5.894   5.367  15.573 -0.5011  1.3022 -1.7458
  104CHL1  H11B13918   6.056   5.349  15.646  0.7068  0.5856 -0.5825
  104CHL1    C913919   6.030   5.532  15.529 -0.1611 -0.7797 -0.4197
  104CHL1    H913920   6.140   5.540  15.513  0.0603  0.0817  1.2872
  104CHL1   C1013921   5.994   5.621  15.650 -0.0391  0.6637  0.2899
  104CHL1   C1913922   5.850   5.598  15.685  0.0564 -0.1220  0.3023
  104CHL1  H19A13923   5.768   5.619  15.613 -0.7665  0.8597  1.4936
  104CHL1  H19B13924   5.822   5.497  15.721  1.3739 -1.5018 -2.2039
  104CHL1  H19C13925   5.822   5.652  15.777  1.9925 -1.6295  1.8842
  104CHL1    C113926   6.079   5.575  15.774  0.2145 -0.5836 -0.1496
  104CHL1   H1A13927   6.046   5.477  15.816  0.0528 -0.1734  0.6957
  104CHL1   H1B13928   6.182   5.544  15.747 -0.4388 -0.3397 -3.3353
  104CHL1    C213929   6.084   5.676  15.891  0.2925  0.2932  0.7851
  104CHL1   H2A13930   6.167   5.647  15.959 -1.5150 -2.1627  2.1316
  104CHL1   H2B13931   5.986   5.674  15.943 -0.6399  1.6813 -0.8004
  104CHL1   C2013932   5.977   5.147  15.126  0.3513 -1.2346  1.2297
  104CHL1   H2013933   5.878   5.167  15.082  1.3029 -0.7842 -0.8273
  104CHL1   C2113934   5.980   5.042  15.233 -0.3648  0.0586 -0.1514
  104CHL1  H21A13935   5.912   5.052  15.320 -0.3903  1.1993 -0.2964
  104CHL1  H21B13936   6.084   5.015  15.262 -0.2439 -0.2753 -0.8821
  104CHL1  H21C13937   5.954   4.947  15.181 -0.3518  0.8703 -1.7013
  104CHL1   C2213938   6.055   5.099  14.998 -0.2462  0.4785 -0.4889
  104CHL1  H22A13939   6.061   5.181  14.924  0.3454  0.0519 -0.9152
  104CHL1  H22B13940   6.150   5.061  15.043 -0.2743  2.1201  1.0835
  104CHL1   C2313941   6.000   4.973  14.923  0.2859  0.3209 -0.5074
  104CHL1  H23A13942   6.004   4.889  14.996 -1.1234  1.0637  0.4841
  104CHL1  H23B13943   5.891   4.994  14.915  0.4829  3.4280  2.3794
  104CHL1   C2413944   6.067   4.932  14.796 -0.3758  0.2839 -1.0922
  104CHL1  H24A13945   6.081   5.022  14.732 -1.9792  2.4752  1.4416
  104CHL1  H24B13946   6.165   4.883  14.814 -1.2122 -1.2579 -0.5847
  104CHL1   C2513947   5.976   4.834  14.722  0.3228 -0.2997 -0.2782
  104CHL1   H2513948   5.876   4.881  14.728 -0.2429 -1.6116  1.2727
  104CHL1   C2613949   6.008   4.824  14.575 -0.4059  0.1420  0.4779
  104CHL1  H26A13950   5.938   4.753  14.526  0.8088 -1.0216  0.3690
  104CHL1  H26B13951   6.002   4.923  14.526 -2.0465  0.3892  1.1053
  104CHL1  H26C13952   6.109   4.779  14.564 -0.6028  0.0664 -1.3065
  104CHL1   C2713953   5.959   4.696  14.785  0.3535  0.3748 -0.1034
  104CHL1  H27A13954   5.915   4.702  14.887 -2.1172 -3.1294 -0.7575
  104CHL1  H27B13955   5.883   4.643  14.723  0.5628 -0.9886  0.7561
  104CHL1  H27C13956   6.052   4.635  14.788  0.1592  0.1193  1.0262
  105CHL1    C313957   5.888   3.491  15.484  0.0790 -0.1200  0.0478
  105CHL1    H313958   5.825   3.401  15.499 -0.3433 -0.0242 -1.0914
  105CHL1    O313959   5.918   3.557  15.609 -0.4286  0.1903  0.7573
  105CHL1   H3'13960   5.836   3.561  15.658 -0.0266 -1.9295  1.7540
  105CHL1    C413961   6.024   3.458  15.411  0.8245  0.1265 -0.3208
  105CHL1   H4A13962   6.084   3.552  15.417  0.9077 -0.0048  2.1026
  105CHL1   H4B13963   6.078   3.386  15.476 -0.8109 -0.0867  0.8800
  105CHL1    C513964   6.003   3.404  15.270 -0.0533 -0.4544 -0.2506
  105CHL1    C613965   6.047   3.293  15.229  0.0894  0.1232 -0.7487
  105CHL1    H613966   6.111   3.236  15.297  0.3171  0.9575 -0.2525
  105CHL1    C713967   6.038   3.246  15.089  0.0432 -0.3291  0.6721
  105CHL1   H7A13968   6.130   3.190  15.063 -0.0783 -0.4172  0.4218
  105CHL1   H7B13969   5.953   3.175  15.083  0.8367 -1.2998  0.5978
  105CHL1    C813970   5.995   3.349  14.984  0.1737 -0.6070 -0.0720
  105CHL1    H813971   6.086   3.411  14.967  0.8588 -1.2532  1.1019
  105CHL1   C1413972   5.955   3.281  14.854 -0.3118  0.0577  0.6186
  105CHL1   H1413973   5.863   3.225  14.881  0.2397  0.1946  2.9810
  105CHL1   C1513974   6.048   3.171  14.795  0.3740  0.3427  0.2204
  105CHL1  H15A13975   6.155   3.201  14.808  0.5897 -0.8486  1.3420
  105CHL1  H15B13976   6.026   3.076  14.847 -0.7202 -0.4153 -1.5209
  105CHL1   C1613977   6.015   3.178  14.644  0.1179 -0.1159  0.1367
  105CHL1  H16A13978   6.107   3.200  14.586 -0.8931  0.3633 -1.3616
  105CHL1  H16B13979   5.978   3.078  14.613 -0.1404 -0.1129  0.4349
  105CHL1   C1713980   5.905   3.292  14.619 -0.1764 -0.4707 -0.4095
  105CHL1   H1713981   5.805   3.258  14.654 -0.7388  2.1712  0.7722
  105CHL1   C1313982   5.934   3.387  14.741  0.0149 -0.1015  0.2773
  105CHL1   C1813983   6.056   3.484  14.720  0.0985  0.1237 -0.2419
  105CHL1  H18A13984   6.032   3.551  14.635  0.9361  0.3880 -0.2770
  105CHL1  H18B13985   6.072   3.559  14.801 -1.0794 -0.0154  0.1449
  105CHL1  H18C13986   6.151   3.429  14.705  0.4282  0.3185  0.9708
  105CHL1   C1213987   5.816   3.469  14.783  0.2909  0.4011  0.2029
  105CHL1  H12A13988   5.794   3.546  14.706 -0.5593  0.3848  0.4139
  105CHL1  H12B13989   5.726   3.404  14.792 -0.9850  2.1702  0.8293
  105CHL1   C1113990   5.833   3.534  14.925 -0.0242  0.0334  0.5528
  105CHL1  H11A13991   5.903   3.620  14.914 -0.5881  0.8934  3.1086
  105CHL1  H11B13992   5.736   3.575  14.960  0.6975  2.9089 -0.5474
  105CHL1    C913993   5.880   3.433  15.031 -0.3581  0.0312 -0.8231
  105CHL1    H913994   5.795   3.364  15.047 -0.4574  0.1460 -0.8595
  105CHL1   C1013995   5.918   3.491  15.170 -0.2857  0.0267 -0.0294
  105CHL1   C1913996   5.985   3.629  15.144 -0.2912  0.1273  0.0993
  105CHL1  H19A13997   6.061   3.627  15.063 -1.6683  0.0632 -1.2614
  105CHL1  H19B13998   5.913   3.706  15.109 -1.0828  0.2424  1.8624
  105CHL1  H19C13999   6.030   3.671  15.236 -1.6102  1.4940  0.1642
  105CHL1    C114000   5.790   3.511  15.257 -0.2230 -0.7523 -0.4311
  105CHL1   H1A14001   5.710   3.570  15.208 -0.0045  0.0387  0.1527
  105CHL1   H1B14002   5.753   3.407  15.272 -0.6036 -0.7234 -1.1305
  105CHL1    C214003   5.809   3.581  15.396 -0.1443  0.1945  0.4817
  105CHL1   H2A14004   5.702   3.585  15.423 -0.9311 -5.4069 -0.4641
  105CHL1   H2B14005   5.851   3.683  15.384 -0.4325  0.1072 -1.6250
  105CHL1   C2014006   5.907   3.363  14.484 -0.2132 -0.0317 -0.2511
  105CHL1   H2014007   5.880   3.470  14.497  0.4167  0.0895  0.1271
  105CHL1   C2114008   5.793   3.296  14.398 -0.3307  0.0389 -0.3581
  105CHL1  H21A14009   5.700   3.298  14.459 -0.7367  1.4124 -0.9846
  105CHL1  H21B14010   5.821   3.194  14.365  1.2778  0.1455  0.6031
  105CHL1  H21C14011   5.776   3.358  14.307 -0.1681 -0.8346 -0.9995
  105CHL1   C2214012   6.041   3.370  14.399 -0.1750 -0.6383  1.2775
  105CHL1  H22A14013   6.128   3.408  14.457 -0.9227  1.2822  1.2047
  105CHL1  H22B14014   6.062   3.272  14.350  0.7257  1.0225 -1.9818
  105CHL1   C2314015   6.025   3.476  14.281  0.1706  0.4233 -0.3138
  105CHL1  H23A14016   5.954   3.441  14.203 -1.3467  0.8647  0.8049
  105CHL1  H23B14017   5.968   3.564  14.319  1.6873  1.8000 -1.1090
  105CHL1   C2414018   6.160   3.526  14.221 -0.8018  0.0325 -0.2572
  105CHL1  H24A14019   6.215   3.438  14.179  1.8485  0.6767  1.5945
  105CHL1  H24B14020   6.127   3.591  14.137  2.1713  0.8486 -0.9208
  105CHL1   C2514021   6.256   3.595  14.315 -0.8193  0.1332 -1.0003
  105CHL1   H2514022   6.291   3.528  14.396 -2.3929  0.1215 -0.2872
  105CHL1   C2614023   6.387   3.638  14.242  1.2933 -0.0471  0.7201
  105CHL1  H26A14024   6.365   3.656  14.134 -0.1575 -1.9427  0.6364
  105CHL1  H26B14025   6.438   3.725  14.288 -0.4509  0.9425  0.8714
  105CHL1  H26C14026   6.459   3.554  14.238  0.2214 -0.9677 -0.0884
  105CHL1   C2714027   6.188   3.708  14.374  0.1956  0.3277 -0.2281
  105CHL1  H27A14028   6.113   3.670  14.446  1.1896 -1.7179 -0.1877
  105CHL1  H27B14029   6.248   3.779  14.435 -1.6079  2.1189 -0.4405
  105CHL1  H27C14030   6.139   3.768  14.295  0.2145  0.6813  0.0251
  106CHL1    C314031   2.207   3.849  15.443  0.0993  0.7903  0.1260
  106CHL1    H314032   2.284   3.772  15.466 -0.0652  0.0031 -1.8142
  106CHL1    O314033   2.105   3.859  15.541  0.2526  0.1454  0.2564
  106CHL1   H3'14034   2.042   3.916  15.496 -0.0236 -0.1030  0.3219
  106CHL1    C414035   2.269   3.987  15.417 -0.3033  0.8806 -0.8785
  106CHL1   H4A14036   2.188   4.062  15.400  0.0943  1.0409 -2.2084
  106CHL1   H4B14037   2.325   4.012  15.509 -2.8036  2.6600  0.2802
  106CHL1    C514038   2.371   3.982  15.301 -0.1704  1.0529 -0.0900
  106CHL1    C614039   2.501   4.013  15.311  0.6875 -0.3865 -0.5397
  106CHL1    H614040   2.542   4.051  15.406  1.0136  0.6009 -1.0605
  106CHL1    C714041   2.596   4.010  15.194  0.0639  0.0026 -0.4539
  106CHL1   H7A14042   2.663   4.099  15.187  1.4072 -1.0039 -0.8798
  106CHL1   H7B14043   2.662   3.922  15.205 -1.5479 -0.9680  2.3296
  106CHL1    C814044   2.529   4.005  15.058 -0.4919  0.3648  0.1671
  106CHL1    H814045   2.474   4.100  15.040  1.3557  1.8618  1.9455
  106CHL1   C1414046   2.632   3.962  14.954 -0.2269 -0.5075  0.3952
  106CHL1   H1414047   2.674   3.861  14.975 -1.0999 -1.0407 -0.3338
  106CHL1   C1514048   2.752   4.052  14.923  0.0044 -0.6272  0.1721
  106CHL1  H15A14049   2.726   4.160  14.928  1.1376 -0.2689 -1.0949
  106CHL1  H15B14050   2.838   4.034  14.990  1.1475  0.8486 -0.8497
  106CHL1   C1614051   2.789   4.021  14.772  0.8009  0.2564  0.2982
  106CHL1  H16A14052   2.759   4.113  14.718 -1.1617 -1.5349 -1.9175
  106CHL1  H16B14053   2.895   3.992  14.756  0.1553 -2.0577 -0.1613
  106CHL1   C1714054   2.691   3.912  14.730  0.0227  0.3431 -0.3086
  106CHL1   H1714055   2.736   3.821  14.773  0.6449  0.6340 -0.3391
  106CHL1   C1314056   2.571   3.935  14.814  0.5321  0.0898  0.0806
  106CHL1   C1814057   2.501   4.060  14.759  0.7151 -0.7657  0.0613
  106CHL1  H18A14058   2.437   4.052  14.669 -0.9130  1.6454  0.9095
  106CHL1  H18B14059   2.435   4.118  14.827  2.0314  0.6709  0.1815
  106CHL1  H18C14060   2.572   4.141  14.729  0.7783 -1.1305 -0.7968
  106CHL1   C1214061   2.471   3.822  14.823  0.2145  0.4457  0.0006
  106CHL1  H12A14062   2.425   3.806  14.723  0.3323  1.5707 -0.2488
  106CHL1  H12B14063   2.519   3.732  14.866  0.9557  0.8047 -0.0559
  106CHL1   C1114064   2.362   3.853  14.925 -0.0197 -0.4115 -0.2234
  106CHL1  H11A14065   2.300   3.933  14.880 -1.4321 -1.5996 -0.4847
  106CHL1  H11B14066   2.297   3.763  14.925 -0.3314 -0.2022 -1.2330
  106CHL1    C914067   2.416   3.897  15.065 -0.3497 -0.3787  0.1843
  106CHL1    H914068   2.468   3.807  15.105 -0.7426 -0.4668  0.5005
  106CHL1   C1014069   2.312   3.926  15.174 -0.1307  0.5875  0.5435
  106CHL1   C1914070   2.207   4.022  15.120 -0.8985 -0.0403 -0.0018
  106CHL1  H19A14071   2.128   4.044  15.196  0.2913 -1.1727  1.6346
  106CHL1  H19B14072   2.256   4.117  15.089 -2.0623  0.7537  0.4854
  106CHL1  H19C14073   2.149   3.987  15.032 -0.8584  1.8450 -0.8231
  106CHL1    C114074   2.239   3.788  15.203  0.5181  0.3317 -0.0661
  106CHL1   H1A14075   2.185   3.748  15.114  0.9267 -1.3122  0.3881
  106CHL1   H1B14076   2.313   3.715  15.241 -0.3489 -0.4944  0.0799
  106CHL1    C214077   2.138   3.799  15.318 -0.2777  0.0392 -0.8054
  106CHL1   H2A14078   2.091   3.698  15.327 -0.6335  0.2140 -0.6384
  106CHL1   H2B14079   2.054   3.866  15.289 -1.0434 -1.3303 -1.8892
  106CHL1   C2014080   2.669   3.874  14.578 -0.3367 -0.6389  0.1971
  106CHL1   H2014081   2.568   3.911  14.549 -0.4584 -0.9900  0.1768
  106CHL1   C2114082   2.682   3.723  14.565  0.0853  0.1769  0.7859
  106CHL1  H21A14083   2.664   3.682  14.463 -1.1112  0.6097  0.7984
  106CHL1  H21B14084   2.591   3.684  14.615  1.1882  0.0903  2.8157
  106CHL1  H21C14085   2.773   3.681  14.612 -0.6796 -1.3587  0.9824
  106CHL1   C2214086   2.760   3.953  14.487  0.6573  0.2522  0.8805
  106CHL1  H22A14087   2.725   4.058  14.495 -1.4808 -0.3987  0.7936
  106CHL1  H22B14088   2.861   3.937  14.530  0.0800 -0.0841  2.1505
  106CHL1   C2314089   2.762   3.915  14.340 -0.8106 -0.1933 -0.5076
  106CHL1  H23A14090   2.832   3.990  14.297 -1.9271  1.9260  1.1689
  106CHL1  H23B14091   2.815   3.818  14.330 -0.0543  0.0336  0.8813
  106CHL1   C2414092   2.626   3.913  14.273 -0.4967 -0.0305  0.2995
  106CHL1  H24A14093   2.558   3.833  14.309 -2.2761  1.8611  1.3564
  106CHL1  H24B14094   2.584   4.015  14.287 -2.6533 -0.8510  0.2497
  106CHL1   C2514095   2.636   3.884  14.130  0.1310  0.0312 -0.1361
  106CHL1   H2514096   2.533   3.882  14.087  0.9061  1.2744 -2.1428
  106CHL1   C2614097   2.701   3.993  14.054 -0.8900  0.5226  0.1366
  106CHL1  H26A14098   2.673   4.094  14.090  0.2603  1.1512 -0.6477
  106CHL1  H26B14099   2.811   4.001  14.068 -0.5631  0.7141 -2.0992
  106CHL1  H26C14100   2.679   3.992  13.945 -0.9355  0.4094  0.1455
  106CHL1   C2714101   2.701   3.740  14.107 -0.7485 -0.2649  0.3247
  106CHL1  H27A14102   2.706   3.722  13.997 -0.4622  1.3221  0.0556
  106CHL1  H27B14103   2.810   3.741  14.130 -0.2179  1.4806 -1.8961
  106CHL1  H27C14104   2.655   3.658  14.167  0.2599 -1.2311 -0.1748
  107CHL1    C314105   3.709   8.226  15.409 -0.4979 -0.5907 -0.4690
  107CHL1    H314106   3.716   8.132  15.468 -0.4307 -0.4285 -0.2145
  107CHL1    O314107   3.662   8.332  15.496  0.0345 -0.3045  0.4628
  107CHL1   H3'14108   3.733   8.354  15.557  0.2166  0.1263  0.0986
  107CHL1    C414109   3.855   8.256  15.368  0.5649 -0.4366 -0.9366
  107CHL1   H4A14110   3.883   8.357  15.331 -0.3950 -0.1451 -0.8968
  107CHL1   H4B14111   3.897   8.263  15.471 -0.5234  1.2219 -0.5679
  107CHL1    C514112   3.920   8.157  15.278  0.1131 -0.0384  0.2879
  107CHL1    C614113   4.027   8.083  15.306  0.3399  0.1884 -0.1106
  107CHL1    H614114   4.077   8.108  15.401  0.8662  1.0943 -0.6079
  107CHL1    C714115   4.092   7.988  15.208 -0.3242 -0.2109 -0.3542
  107CHL1   H7A14116   4.201   8.010  15.210  0.0339 -1.6227 -1.8616
  107CHL1   H7B14117   4.083   7.880  15.232  1.9813 -0.6244 -1.0222
  107CHL1    C814118   4.051   8.017  15.064 -0.6136  0.4169 -0.2309
  107CHL1    H814119   4.091   8.114  15.026  1.1575  0.1069  0.7547
  107CHL1   C1414120   4.099   7.895  14.980 -0.0003  0.4573 -0.4470
  107CHL1   H1414121   4.045   7.807  15.021 -0.1493  0.0759 -1.4352
  107CHL1   C1514122   4.248   7.851  14.986 -0.0184  1.0009 -0.2778
  107CHL1  H15A14123   4.312   7.941  14.977 -0.7865  1.3630 -3.1967
  107CHL1  H15B14124   4.276   7.786  15.071 -0.1681  0.0240 -0.9537
  107CHL1   C1614125   4.275   7.777  14.853  0.3300 -0.1187 -1.2458
  107CHL1  H16A14126   4.353   7.834  14.799 -0.5525  1.1174 -1.2522
  107CHL1  H16B14127   4.329   7.680  14.865  1.0049  0.1522 -2.0080
  107CHL1   C1714128   4.134   7.772  14.785 -0.3806  0.6876  0.0115
  107CHL1   H1714129   4.093   7.680  14.831  1.3841  0.4947  1.3319
  107CHL1   C1314130   4.065   7.898  14.833  0.1286  0.1150  0.0531
  107CHL1   C1814131   4.127   8.018  14.755  0.3309 -0.0904 -0.2834
  107CHL1  H18A14132   4.088   8.032  14.651  0.6186  2.2507 -0.1251
  107CHL1  H18B14133   4.116   8.109  14.817 -0.1378 -1.2757  1.4452
  107CHL1  H18C14134   4.237   8.003  14.752  0.4245  0.5705 -0.1662
  107CHL1   C1214135   3.903   7.906  14.826 -0.0717  0.3350  0.4525
  107CHL1  H12A14136   3.861   7.924  14.725 -1.5475 -1.9963  0.5880
  107CHL1  H12B14137   3.847   7.813  14.849  0.4626  0.2366  1.4206
  107CHL1   C1114138   3.856   8.026  14.899  0.2028 -0.8397 -0.7165
  107CHL1  H11A14139   3.909   8.111  14.852 -0.4805 -0.0248 -0.0387
  107CHL1  H11B14140   3.747   8.048  14.896 -0.0667 -2.0944 -0.7663
  107CHL1    C914141   3.898   8.022  15.049  0.6173 -0.6644 -0.3152
  107CHL1    H914142   3.853   7.925  15.080 -0.0514 -0.4831 -0.7055
  107CHL1   C1014143   3.849   8.139  15.143 -0.5782  0.5162  0.3533
  107CHL1   C1914144   3.866   8.273  15.064  0.0589 -0.2032 -0.0708
  107CHL1  H19A14145   3.968   8.288  15.023  0.0703 -0.1174 -0.0114
  107CHL1  H19B14146   3.800   8.269  14.975 -0.7018  0.3307  0.4513
  107CHL1  H19C14147   3.823   8.361  15.117  0.0634 -0.1608 -0.1383
  107CHL1    C114148   3.700   8.115  15.183 -0.8128 -0.4302 -0.4598
  107CHL1   H1A14149   3.643   8.085  15.092 -0.8172 -0.1508 -0.5501
  107CHL1   H1B14150   3.704   8.025  15.248 -2.5646  0.2672  0.7076
  107CHL1    C214151   3.633   8.224  15.279  0.3406  0.4528  0.0064
  107CHL1   H2A14152   3.523   8.212  15.286  0.0962  2.1555 -0.3608
  107CHL1   H2B14153   3.637   8.323  15.227 -2.0827  0.3697 -0.4793
  107CHL1   C2014154   4.154   7.745  14.631  1.0167 -0.4583  0.3186
  107CHL1   H2014155   4.217   7.824  14.584  0.5015 -0.9102 -1.1885
  107CHL1   C2114156   4.019   7.752  14.557 -0.1664  0.0258  0.6401
  107CHL1  H21A14157   3.976   7.851  14.535 -0.0064 -0.1175 -0.3426
  107CHL1  H21B14158   3.941   7.687  14.603 -1.2734  0.1487 -1.0169
  107CHL1  H21C14159   4.042   7.703  14.460  1.4098  2.0603 -0.0859
  107CHL1   C2214160   4.208   7.601  14.599 -0.4254 -0.8008  0.3285
  107CHL1  H22A14161   4.274   7.567  14.681 -0.4062 -0.2140  0.5608
  107CHL1  H22B14162   4.117   7.537  14.598 -0.3967 -0.8455  0.6038
  107CHL1   C2314163   4.292   7.592  14.467 -0.1579 -0.1454 -0.7290
  107CHL1  H23A14164   4.226   7.615  14.380  1.3995 -2.1571 -2.5505
  107CHL1  H23B14165   4.379   7.661  14.458 -0.8847  1.0898  1.0425
  107CHL1   C2414166   4.333   7.451  14.423  0.6814  0.7767 -0.4069
  107CHL1  H24A14167   4.405   7.418  14.501  0.8237  2.4269  0.2050
  107CHL1  H24B14168   4.251   7.378  14.415 -0.3212  1.6873  1.1430
  107CHL1   C2514169   4.418   7.454  14.294 -0.6128 -0.0698 -0.1139
  107CHL1   H2514170   4.497   7.531  14.308 -0.4681 -0.5155  1.6550
  107CHL1   C2614171   4.477   7.319  14.257  0.2766 -0.7894  0.4935
  107CHL1  H26A14172   4.542   7.270  14.332 -0.4097 -0.3271  1.4114
  107CHL1  H26B14173   4.396   7.250  14.225 -2.4100  1.6664  1.5696
  107CHL1  H26C14174   4.541   7.328  14.166 -1.6884  0.5439 -0.8316
  107CHL1   C2714175   4.343   7.503  14.168 -0.1300  0.6897  0.1456
  107CHL1  H27A14176   4.414   7.518  14.084 -1.4543  2.2943 -0.7511
  107CHL1  H27B14177   4.267   7.425  14.143 -0.9678  1.3335  0.6213
  107CHL1  H27C14178   4.286   7.598  14.177 -0.4382  0.4975  0.2594
  108CHL1    C314179   6.668   1.944  15.120  0.7295 -0.4555 -0.1626
  108CHL1    H314180   6.651   1.849  15.066 -3.3144  0.7677 -1.4154
  108CHL1    O314181   6.730   1.916  15.243 -0.0611  0.4834 -0.1638
  108CHL1   H3'14182   6.738   2.005  15.279 -1.8982  1.6519 -2.3802
  108CHL1    C414183   6.770   2.021  15.030  0.5335  0.9354 -0.3116
  108CHL1   H4A14184   6.823   2.106  15.078  2.8007 -0.0573 -0.9534
  108CHL1   H4B14185   6.848   1.948  15.000 -0.6134  0.2217 -1.6849
  108CHL1    C514186   6.694   2.074  14.906 -0.4242  0.3604  0.0604
  108CHL1    C614187   6.739   2.043  14.780 -0.1749 -0.4407  0.2425
  108CHL1    H614188   6.837   1.998  14.761  0.5159  1.5482 -1.3277
  108CHL1    C714189   6.679   2.108  14.658 -0.2555 -0.6616  0.8710
  108CHL1   H7A14190   6.760   2.142  14.590 -0.3796  2.0025  1.9415
  108CHL1   H7B14191   6.622   2.029  14.606 -0.7637 -1.2563  2.2686
  108CHL1    C814192   6.586   2.224  14.687 -0.0921 -0.4084 -0.4546
  108CHL1    H814193   6.647   2.314  14.708  1.9344 -1.9215  0.5046
  108CHL1   C1414194   6.514   2.255  14.568  0.6821 -0.8574 -0.1573
  108CHL1   H1414195   6.460   2.162  14.539 -2.0683  0.6410 -0.1804
  108CHL1   C1514196   6.594   2.299  14.448 -0.7016  0.3560  0.4468
  108CHL1  H15A14197   6.658   2.382  14.485 -0.4729 -0.2191  1.3710
  108CHL1  H15B14198   6.667   2.230  14.400 -1.7385 -1.0047  0.7439
  108CHL1   C1614199   6.493   2.354  14.347  0.4299 -0.6110 -0.2711
  108CHL1  H16A14200   6.512   2.451  14.297  3.0410 -0.4799  0.7762
  108CHL1  H16B14201   6.480   2.278  14.267 -3.5830 -1.2996  0.8281
  108CHL1   C1714202   6.357   2.370  14.426  0.3204 -0.0473 -0.0559
  108CHL1   H1714203   6.301   2.280  14.395  2.2087 -0.4618 -2.5443
  108CHL1   C1314204   6.395   2.353  14.576  0.6335 -0.8875 -0.1932
  108CHL1   C1814205   6.439   2.492  14.639  1.1221  0.2686  0.8762
  108CHL1  H18A14206   6.500   2.484  14.731 -1.0522  1.1690  2.4946
  108CHL1  H18B14207   6.513   2.534  14.567  1.0594 -1.3281 -0.1762
  108CHL1  H18C14208   6.351   2.560  14.648  1.7413  1.1820  0.2263
  108CHL1   C1214209   6.294   2.292  14.677  0.5422  0.4335 -0.3070
  108CHL1  H12A14210   6.201   2.351  14.689  1.0545  1.3029 -0.5588
  108CHL1  H12B14211   6.261   2.195  14.633 -1.1811  0.5589  0.6200
  108CHL1   C1114212   6.362   2.267  14.817 -0.2880 -0.1678  0.1608
  108CHL1  H11A14213   6.380   2.366  14.864  0.7834 -0.3766  0.2258
  108CHL1  H11B14214   6.288   2.214  14.881  0.9892  0.9646  2.7442
  108CHL1    C914215   6.491   2.183  14.800 -0.7349  0.2877 -0.4675
  108CHL1    H914216   6.450   2.090  14.756  1.7752 -0.8958 -0.4740
  108CHL1   C1014217   6.566   2.153  14.941  0.5284 -0.9310 -0.2068
  108CHL1   C1914218   6.593   2.291  15.017  0.0214 -0.5147 -0.0367
  108CHL1  H19A14219   6.678   2.285  15.088  1.3113  0.7672 -1.4178
  108CHL1  H19B14220   6.615   2.369  14.941 -0.2520  0.4537  0.8677
  108CHL1  H19C14221   6.501   2.324  15.071  1.8714  1.0947  2.3196
  108CHL1    C114222   6.467   2.066  15.027 -0.2158  0.3115  0.0938
  108CHL1   H1A14223   6.373   2.121  15.050  0.8559  2.0450  0.4361
  108CHL1   H1B14224   6.442   1.974  14.970 -0.3381 -1.1765  2.4455
  108CHL1    C214225   6.535   2.014  15.149 -0.8317 -0.3043 -0.7840
  108CHL1   H2A14226   6.472   1.934  15.194  0.2081 -0.7838 -0.1271
  108CHL1   H2B14227   6.550   2.098  15.221 -2.5606 -0.8360  0.2648
  108CHL1   C2014228   6.279   2.492  14.380  0.5944 -0.0790  0.1485
  108CHL1   H2014229   6.326   2.584  14.421  1.1931  0.9161 -2.6004
  108CHL1   C2114230   6.134   2.497  14.443  0.4296  0.2641 -0.8920
  108CHL1  H21A14231   6.074   2.578  14.397 -1.0347  1.1241  2.2231
  108CHL1  H21B14232   6.128   2.501  14.554  0.6681  1.0014 -0.9059
  108CHL1  H21C14233   6.080   2.405  14.412 -0.2833 -0.0156  1.0144
  108CHL1   C2214234   6.270   2.512  14.223 -0.2338  0.1507  0.1000
  108CHL1  H22A14235   6.196   2.592  14.199  1.4796  1.9235  0.4297
  108CHL1  H22B14236   6.365   2.538  14.171  0.1321 -1.8257 -0.3071
  108CHL1   C2314237   6.201   2.390  14.159  0.9569 -0.1298 -0.0214
  108CHL1  H23A14238   6.259   2.297  14.180 -2.2919 -2.4769 -0.6770
  108CHL1  H23B14239   6.110   2.375  14.220  1.5528 -0.9112  0.7072
  108CHL1   C2414240   6.159   2.397  14.006  0.4188  0.1546 -0.1840
  108CHL1  H24A14241   6.105   2.301  13.991  0.8522 -0.2245  0.5851
  108CHL1  H24B14242   6.093   2.485  13.993 -1.1273 -0.9183  0.0646
  108CHL1   C2514243   6.277   2.408  13.913 -0.2445  0.1618  0.3564
  108CHL1   H2514244   6.327   2.506  13.932 -0.3298  0.2603  0.0835
  108CHL1   C2614245   6.384   2.288  13.931 -0.2722  0.2652  0.2968
  108CHL1  H26A14246   6.469   2.291  13.859  1.4079 -2.6212  1.9682
  108CHL1  H26B14247   6.425   2.287  14.034 -0.7792  2.8276  0.6015
  108CHL1  H26C14248   6.327   2.196  13.906  0.5191 -0.7797  2.0999
  108CHL1   C2714249   6.216   2.406  13.766 -0.1978 -0.3824  0.0025
  108CHL1  H27A14250   6.297   2.406  13.691 -0.6536  0.1612 -0.4965
  108CHL1  H27B14251   6.147   2.321  13.749 -2.0307  1.1016 -0.3049
  108CHL1  H27C14252   6.157   2.497  13.744  0.1236  0.4800  2.3866
  109CHL1    C314253   2.667   7.265  15.542 -0.1697 -0.2231 -0.5059
  109CHL1    H314254   2.764   7.253  15.596  0.6414  2.5791 -1.1746
  109CHL1    O314255   2.557   7.266  15.632 -0.2997  0.2099  0.2129
  109CHL1   H3'14256   2.541   7.357  15.654 -2.2155  0.2488 -1.1181
  109CHL1    C414257   2.670   7.395  15.464  0.1105  0.9051 -0.4106
  109CHL1   H4A14258   2.571   7.419  15.420  1.0339 -1.8560 -4.6335
  109CHL1   H4B14259   2.686   7.473  15.541 -0.4767  3.4737 -2.7552
  109CHL1    C514260   2.778   7.399  15.361 -0.3285 -0.6487  0.0236
  109CHL1    C614261   2.879   7.492  15.361 -0.2018  0.2751  0.0664
  109CHL1    H614262   2.886   7.566  15.442  2.2096 -0.8077  0.9526
  109CHL1    C714263   2.967   7.505  15.236 -0.0668 -0.3510 -0.4952
  109CHL1   H7A14264   2.970   7.607  15.192 -1.2279 -0.5531 -1.0692
  109CHL1   H7B14265   3.069   7.473  15.265  0.2200  0.2948 -0.7863
  109CHL1    C814266   2.917   7.419  15.113  0.3277 -0.2938 -0.0096
  109CHL1    H814267   2.828   7.463  15.064  0.2117  0.3082  0.7260
  109CHL1   C1414268   3.032   7.403  15.014  0.5097 -0.3526  0.3185
  109CHL1   H1414269   3.113   7.347  15.067 -0.5851 -0.7670  1.6115
  109CHL1   C1514270   3.084   7.535  14.946  0.3116  0.0734  0.1889
  109CHL1  H15A14271   3.005   7.610  14.925  0.5102 -0.1517 -1.5239
  109CHL1  H15B14272   3.157   7.594  15.006 -0.1228  1.1800 -0.3574
  109CHL1   C1614273   3.161   7.491  14.824  0.4234  0.0278 -0.2333
  109CHL1  H16A14274   3.116   7.544  14.738 -0.0190 -0.7403 -0.4920
  109CHL1  H16B14275   3.271   7.505  14.815  0.0913  1.8971 -2.1997
  109CHL1   C1714276   3.129   7.339  14.809  0.2459  0.4067 -0.6420
  109CHL1   H1714277   3.211   7.281  14.856 -2.1451 -1.4891  1.4571
  109CHL1   C1314278   2.997   7.313  14.892 -0.1431 -0.6473  0.4609
  109CHL1   C1814279   2.878   7.377  14.810 -0.0486 -0.3255 -0.7741
  109CHL1  H18A14280   2.851   7.306  14.729 -0.9005 -0.9338  0.0254
  109CHL1  H18B14281   2.787   7.382  14.873 -0.5448  1.1134 -1.5750
  109CHL1  H18C14282   2.894   7.477  14.764  0.3794  0.8887  1.8121
  109CHL1   C1214283   2.963   7.169  14.942  0.2684 -0.3110  1.0331
  109CHL1  H12A14284   2.927   7.107  14.857 -0.8745  2.9984 -1.1266
  109CHL1  H12B14285   3.060   7.136  14.985  0.9241 -1.8693 -1.3861
  109CHL1   C1114286   2.847   7.180  15.038 -0.1050 -0.3393  0.5861
  109CHL1  H11A14287   2.760   7.213  14.977  1.5805 -0.5773 -2.1178
  109CHL1  H11B14288   2.821   7.081  15.081 -0.9426  0.3070  1.6076
  109CHL1    C914289   2.871   7.284  15.157  0.0206  0.0232  0.8409
  109CHL1    H914290   2.955   7.238  15.213 -0.0159 -0.6507  0.3573
  109CHL1   C1014291   2.761   7.291  15.259 -0.1250  0.0059 -0.1161
  109CHL1   C1914292   2.627   7.322  15.187  0.6020  0.7661  0.0420
  109CHL1  H19A14293   2.621   7.422  15.140 -2.3856  0.2486 -0.9212
  109CHL1  H19B14294   2.605   7.250  15.106 -1.4834  0.5101  0.7566
  109CHL1  H19C14295   2.539   7.308  15.254 -0.0499  0.2993 -0.8995
  109CHL1    C114296   2.755   7.152  15.335 -0.1329  0.0700 -0.0937
  109CHL1   H1A14297   2.732   7.068  15.267 -0.2258  0.0914 -0.0873
  109CHL1   H1B14298   2.849   7.130  15.391  0.0663 -0.2129 -0.5351
  109CHL1    C214299   2.649   7.147  15.447 -0.2274  0.2956  0.4993
  109CHL1   H2A14300   2.663   7.054  15.506 -0.7640  0.8744  1.5819
  109CHL1   H2B14301   2.545   7.148  15.406  0.3351 -0.0033 -0.9782
  109CHL1   C2014302   3.116   7.298  14.656 -0.7982 -0.1162 -0.1992
  109CHL1   H2014303   3.034   7.356  14.609 -0.5805 -0.3210 -0.8332
  109CHL1   C2114304   3.096   7.147  14.621  0.0766  0.0301 -0.0492
  109CHL1  H21A14305   3.174   7.077  14.656 -1.2178 -1.8530 -0.7697
  109CHL1  H21B14306   3.099   7.131  14.511  0.0885  3.1700 -0.6148
  109CHL1  H21C14307   2.996   7.111  14.655  0.6305  0.7350  2.5429
  109CHL1   C2214308   3.249   7.349  14.582  0.0266  0.5047 -0.8989
  109CHL1  H22A14309   3.253   7.459  14.598 -1.9543  0.2869  1.8124
  109CHL1  H22B14310   3.330   7.307  14.645 -1.3916 -0.2889  0.4745
  109CHL1   C2314311   3.259   7.316  14.437 -0.0477  0.8266 -0.6682
  109CHL1  H23A14312   3.282   7.208  14.432  1.1451  1.0069  0.4019
  109CHL1  H23B14313   3.159   7.333  14.390 -0.5502 -0.9443 -0.3095
  109CHL1   C2414314   3.372   7.392  14.361 -0.4749 -0.2455 -0.2928
  109CHL1  H24A14315   3.367   7.501  14.385 -1.0267 -0.4381  0.5077
  109CHL1  H24B14316   3.476   7.370  14.391  0.6158  2.7208 -1.5261
  109CHL1   C2514317   3.361   7.379  14.210 -0.9328  0.4078 -0.7168
  109CHL1   H2514318   3.444   7.435  14.162  0.6674 -0.4403  0.9412
  109CHL1   C2614319   3.356   7.239  14.151 -0.4330 -0.5772  0.1734
  109CHL1  H26A14320   3.263   7.193  14.190 -1.4208  1.7537  0.7253
  109CHL1  H26B14321   3.351   7.236  14.040  2.1908 -1.0811 -0.0076
  109CHL1  H26C14322   3.450   7.182  14.171  1.2839  0.6506 -3.5159
  109CHL1   C2714323   3.239   7.456  14.154 -0.2614 -0.7883 -0.0358
  109CHL1  H27A14324   3.137   7.428  14.189 -1.3495  2.1187 -0.5856
  109CHL1  H27B14325   3.251   7.564  14.178 -0.2380 -1.1719  1.8412
  109CHL1  H27C14326   3.255   7.450  14.045  0.3318 -1.4414  0.0807
  110CHL1    C314327   0.897   4.276  14.873  0.1042  0.0727 -0.0139
  110CHL1    H314328   0.796   4.310  14.845  0.2029  0.8532  0.5430
  110CHL1    O314329   0.891   4.280  15.016  0.4998 -0.3334 -0.7073
  110CHL1   H3'14330   0.986   4.274  15.030  0.3926 -1.8194 -0.4299
  110CHL1    C414331   0.912   4.129  14.821  0.1826 -0.1115  0.1218
  110CHL1   H4A14332   1.012   4.097  14.856 -0.0921 -1.5955 -0.3790
  110CHL1   H4B14333   0.840   4.074  14.885  0.1368 -3.6366 -2.6184
  110CHL1    C514334   0.892   4.127  14.671  0.2100 -0.4790  0.2403
  110CHL1    C614335   0.793   4.061  14.618  0.5506 -0.5214 -0.0748
  110CHL1    H614336   0.731   4.005  14.690  0.2236  0.3752  0.3592
  110CHL1    C714337   0.756   4.063  14.476 -0.2728 -0.3002  0.2600
  110CHL1   H7A14338   0.737   3.958  14.445 -2.5836  0.8791 -2.8962
  110CHL1   H7B14339   0.659   4.113  14.455 -0.1201  1.0445  2.4889
  110CHL1    C814340   0.865   4.127  14.387  0.3577  1.0189 -0.2564
  110CHL1    H814341   0.944   4.050  14.384 -0.3127  0.3174 -0.3072
  110CHL1   C1414342   0.805   4.173  14.251 -0.0701  0.3197 -0.7097
  110CHL1   H1414343   0.735   4.250  14.289 -1.4385 -1.0837 -0.2894
  110CHL1   C1514344   0.724   4.079  14.169 -0.7168 -0.1698  0.2595
  110CHL1  H15A14345   0.783   3.986  14.159  0.0366  0.2814  0.3884
  110CHL1  H15B14346   0.628   4.055  14.219 -1.1916  0.0896 -0.5131
  110CHL1   C1614347   0.706   4.150  14.034  0.1176  0.0786 -0.0328
  110CHL1  H16A14348   0.720   4.074  13.954  3.5692 -1.5967  1.9765
  110CHL1  H16B14349   0.604   4.194  14.028 -0.5163 -1.1242  1.5546
  110CHL1   C1714350   0.810   4.262  14.029  0.6646  0.1182  0.2862
  110CHL1   H1714351   0.759   4.360  14.044  1.5703  0.6821 -0.2222
  110CHL1   C1314352   0.898   4.238  14.150  0.0391 -0.5253 -0.4034
  110CHL1   C1814353   1.014   4.140  14.130 -0.4668 -0.1228  0.0145
  110CHL1  H18A14354   0.975   4.049  14.080 -0.6438  0.0479 -0.1565
  110CHL1  H18B14355   1.095   4.182  14.067 -0.7901  1.6707  0.7323
  110CHL1  H18C14356   1.071   4.117  14.224 -1.2031 -0.1126  0.4695
  110CHL1   C1214357   0.961   4.371  14.221  0.1075  0.1628  0.0670
  110CHL1  H12A14358   1.023   4.423  14.144  0.2717  1.0127  0.7577
  110CHL1  H12B14359   0.878   4.445  14.223  1.3094  1.5425  0.4240
  110CHL1   C1114360   1.014   4.348  14.365  0.0837  0.3559  0.0886
  110CHL1  H11A14361   1.112   4.297  14.353  0.4564  1.4976 -2.3722
  110CHL1  H11B14362   1.034   4.444  14.416 -1.8498 -0.3797  2.4443
  110CHL1    C914363   0.922   4.256  14.455  0.2227 -0.2973  0.2139
  110CHL1    H914364   0.828   4.312  14.477 -1.3644 -2.0491 -1.6029
  110CHL1   C1014365   0.989   4.226  14.597 -0.5922 -0.7526 -0.2204
  110CHL1   C1914366   1.120   4.148  14.587  0.3098 -0.1622 -0.9699
  110CHL1  H19A14367   1.163   4.130  14.688 -0.7361 -1.1092 -0.6787
  110CHL1  H19B14368   1.116   4.043  14.550  1.2373 -0.6593  0.2654
  110CHL1  H19C14369   1.192   4.212  14.532 -1.0117  0.5135 -1.9395
  110CHL1    C114370   1.009   4.367  14.664  0.2502  0.6350 -0.2169
  110CHL1   H1A14371   1.092   4.422  14.615  0.2164 -0.7499 -1.8903
  110CHL1   H1B14372   0.914   4.423  14.651 -0.0181  0.0297 -0.9361
  110CHL1    C214373   1.009   4.366  14.821 -0.4003 -0.0090  0.5618
  110CHL1   H2A14374   0.996   4.468  14.861  0.3624  0.2099  0.2632
  110CHL1   H2B14375   1.106   4.323  14.852  0.2434 -0.0240 -1.3258
  110CHL1   C2014376   0.874   4.266  13.890 -0.7315 -0.1686 -0.1965
  110CHL1   H2014377   0.916   4.165  13.871 -2.1634 -1.4773  2.9244
  110CHL1   C2114378   0.992   4.369  13.892  0.4125  0.6421 -0.1747
  110CHL1  H21A14379   0.963   4.466  13.938  0.3949  0.7755 -0.4649
  110CHL1  H21B14380   1.026   4.400  13.792 -0.0019  1.2550 -0.1302
  110CHL1  H21C14381   1.082   4.329  13.943 -0.1506  0.4035  0.6637
  110CHL1   C2214382   0.775   4.281  13.779 -0.5346  0.0136  0.3427
  110CHL1  H22A14383   0.701   4.198  13.779 -0.1474 -0.4630 -2.5782
  110CHL1  H22B14384   0.719   4.376  13.789 -0.6192 -0.0673  0.6603
  110CHL1   C2314385   0.837   4.277  13.642  0.1000  0.0599 -0.2386
  110CHL1  H23A14386   0.928   4.333  13.611  0.6724 -1.7966 -2.1914
  110CHL1  H23B14387   0.877   4.173  13.647 -0.0361  0.0335  0.2685
  110CHL1   C2414388   0.727   4.289  13.535 -0.2932 -0.1132  0.0585
  110CHL1  H24A14389   0.655   4.214  13.573  1.1184 -0.5019  2.1043
  110CHL1  H24B14390   0.685   4.392  13.527 -0.0719 -0.0381 -0.1554
  110CHL1   C2514391   0.779   4.252  13.393  0.9167  0.0762  0.8173
  110CHL1   H2514392   0.854   4.171  13.398  2.5923  1.6128  1.6698
  110CHL1   C2614393   0.661   4.188  13.314  0.2239 -0.2258 -0.7732
  110CHL1  H26A14394   0.680   4.171  13.206 -0.8551  1.7762 -1.3152
  110CHL1  H26B14395   0.628   4.095  13.366  0.3472  0.3349  0.3426
  110CHL1  H26C14396   0.571   4.252  13.319  0.1892 -0.3375  1.0261
  110CHL1   C2714397   0.827   4.377  13.325  0.1945 -0.7034 -0.3694
  110CHL1  H27A14398   0.818   4.377  13.214 -1.9363  1.4367 -0.2777
  110CHL1  H27B14399   0.762   4.460  13.360  2.0337  0.0249  1.4864
  110CHL1  H27C14400   0.928   4.402  13.362 -1.2086  1.2334  2.5635
  111CHL1    C314401   3.266   0.119  15.230 -0.0222 -0.5547  0.1728
  111CHL1    H314402   3.167   0.094  15.185 -0.2791  2.0338 -0.8376
  111CHL1    O314403   3.260   0.146  15.371 -0.2613  0.6738  0.6541
  111CHL1   H3'14404   3.337   0.198  15.397 -1.6901  1.7346  3.1134
  111CHL1    C414405   3.363  -0.002  15.207  0.2739 -0.9393 -0.2283
  111CHL1   H4A14406   3.455   0.001  15.269 -0.0784 -3.8458  0.6039
  111CHL1   H4B14407   3.315  -0.089  15.258 -0.3068 -2.2123 -2.7303
  111CHL1    C514408   3.385  -0.022  15.061  0.2601  0.1474 -0.2011
  111CHL1    C614409   3.349  -0.140  15.003 -1.0077 -0.0006 -0.2579
  111CHL1    H614410   3.300  -0.218  15.062 -1.0352  0.0346 -0.2341
  111CHL1    C714411   3.375  -0.168  14.854  0.2589  0.0212  0.1329
  111CHL1   H7A14412   3.383  -0.278  14.844 -0.4313 -0.3483  2.7394
  111CHL1   H7B14413   3.292  -0.141  14.785  1.4639  3.8384 -0.0451
  111CHL1    C814414   3.481  -0.074  14.792 -0.2755 -0.5816 -0.1115
  111CHL1    H814415   3.579  -0.109  14.832  0.4136 -0.0283 -1.2809
  111CHL1   C1414416   3.475  -0.095  14.642 -0.6116  0.3020  0.0815
  111CHL1   H1414417   3.376  -0.061  14.604  0.6542  1.9473 -1.9890
  111CHL1   C1514418   3.503  -0.240  14.591  0.8057 -0.5523 -0.2652
  111CHL1  H15A14419   3.584  -0.276  14.658  0.0769 -0.5553  0.6343
  111CHL1  H15B14420   3.413  -0.303  14.609 -2.2155  3.5147  0.2971
  111CHL1   C1614421   3.545  -0.232  14.446 -0.1972 -0.2832  0.1350
  111CHL1  H16A14422   3.636  -0.292  14.427  0.4644  1.0935 -1.2160
  111CHL1  H16B14423   3.465  -0.269  14.378  0.4315 -0.4541 -0.5141
  111CHL1   C1714424   3.567  -0.078  14.422  0.9947  0.4471  0.5831
  111CHL1   H1714425   3.469  -0.053  14.375  0.6537 -2.2476 -0.3323
  111CHL1   C1314426   3.575  -0.011  14.566  0.0313  0.1251  0.1651
  111CHL1   C1814427   3.726  -0.038  14.605  0.0265  0.1568  1.1308
  111CHL1  H18A14428   3.747  -0.145  14.621  2.7720  0.3301 -0.5442
  111CHL1  H18B14429   3.795   0.010  14.532 -1.7868  0.8476 -0.2133
  111CHL1  H18C14430   3.754  -0.001  14.706  2.3220  1.6829  0.0364
  111CHL1   C1214431   3.543   0.136  14.594 -0.4190  0.0213  0.0824
  111CHL1  H12A14432   3.619   0.201  14.545 -2.2761  1.9591 -0.3999
  111CHL1  H12B14433   3.440   0.152  14.554 -0.4576 -1.9505 -0.7043
  111CHL1   C1114434   3.543   0.179  14.743 -0.3262  0.0242  0.0535
  111CHL1  H11A14435   3.649   0.185  14.777 -0.5836  0.1043  0.8806
  111CHL1  H11B14436   3.494   0.277  14.763  2.1838  1.4996 -0.5682
  111CHL1    C914437   3.452   0.076  14.824  0.1880 -0.0285 -0.9662
  111CHL1    H914438   3.346   0.094  14.795  0.1008 -0.3889 -0.8743
  111CHL1   C1014439   3.447   0.099  14.981 -0.2371  0.4606  0.4012
  111CHL1   C1914440   3.588   0.140  15.037 -0.8917  0.2011  0.1851
  111CHL1  H19A14441   3.672   0.068  15.033  2.7402  4.0864 -1.8042
  111CHL1  H19B14442   3.637   0.225  14.984 -0.8181  0.3542  0.4994
  111CHL1  H19C14443   3.577   0.170  15.143 -0.2674  2.2306 -0.2696
  111CHL1    C114444   3.351   0.215  15.004 -0.1062  0.2592 -0.0139
  111CHL1   H1A14445   3.387   0.315  14.974 -0.5839  1.0800  1.9548
  111CHL1   H1B14446   3.254   0.203  14.950  0.0953  1.0588 -0.5579
  111CHL1    C214447   3.309   0.235  15.151  0.2507  0.0823 -0.1453
  111CHL1   H2A14448   3.231   0.313  15.162 -1.5670 -1.9186  2.4077
  111CHL1   H2B14449   3.396   0.280  15.203  1.8227 -2.0970 -0.7243
  111CHL1   C2014450   3.659  -0.036  14.312  0.0953  0.1641  0.4986
  111CHL1   H2014451   3.766  -0.021  14.341  0.6189  2.2421 -2.0252
  111CHL1   C2114452   3.611   0.096  14.256 -0.4064 -0.1019 -0.2655
  111CHL1  H21A14453   3.514   0.096  14.201  0.1872  1.2331 -1.3835
  111CHL1  H21B14454   3.675   0.145  14.179  1.8846 -1.3203  0.7958
  111CHL1  H21C14455   3.597   0.172  14.336  0.7739 -0.9068  0.7307
  111CHL1   C2214456   3.660  -0.142  14.194 -0.2345 -0.2956  0.1521
  111CHL1  H22A14457   3.735  -0.088  14.133  0.5962  0.6466  1.9303
  111CHL1  H22B14458   3.712  -0.234  14.228  0.2354  0.2506  0.9486
  111CHL1   C2314459   3.529  -0.162  14.126  0.7469 -0.3659 -0.1680
  111CHL1  H23A14460   3.441  -0.171  14.192  0.3910  0.4117 -0.5150
  111CHL1  H23B14461   3.513  -0.065  14.075  0.2293 -0.1406  0.4148
  111CHL1   C2414462   3.526  -0.273  14.023 -1.3986  0.7244  0.2576
  111CHL1  H24A14463   3.629  -0.273  13.979 -2.1207  0.4288 -1.5208
  111CHL1  H24B14464   3.513  -0.371  14.072  1.1065 -0.0152 -0.3753
  111CHL1   C2514465   3.429  -0.258  13.899 -0.0562 -0.1027  0.0013
  111CHL1   H2514466   3.440  -0.153  13.864  0.0508  0.9099  2.7786
  111CHL1   C2614467   3.474  -0.366  13.795  0.4071 -0.5529  0.3871
  111CHL1  H26A14468   3.413  -0.350  13.703  1.1413  1.5793  0.2000
  111CHL1  H26B14469   3.583  -0.351  13.781  0.3519 -0.0818  0.4430
  111CHL1  H26C14470   3.442  -0.469  13.821 -0.6783 -0.3297  0.0248
  111CHL1   C2714471   3.283  -0.289  13.940 -0.5632 -0.3582  0.8146
  111CHL1  H27A14472   3.207  -0.283  13.859  0.3355  1.2506  0.0543
  111CHL1  H27B14473   3.281  -0.389  13.988  0.4927 -1.2699 -0.9267
  111CHL1  H27C14474   3.258  -0.207  14.011  0.2911  0.1524  0.5377
  112CHL1    C314475   5.256   0.381  15.312 -0.3669  0.4464 -0.0221
  112CHL1    H314476   5.338   0.455  15.301  0.0409 -0.3471 -3.6944
  112CHL1    O314477   5.258   0.316  15.440  0.4143 -0.1260  0.1030
  112CHL1   H3'14478   5.299   0.231  15.423  1.6235  0.0013  2.1301
  112CHL1    C414479   5.127   0.450  15.277 -0.2438 -0.4206 -0.0882
  112CHL1   H4A14480   5.045   0.379  15.302  0.3642 -0.4336  2.0902
  112CHL1   H4B14481   5.107   0.534  15.347 -0.9630 -0.4778 -0.2177
  112CHL1    C514482   5.121   0.509  15.136 -0.0890  0.0453 -0.9684
  112CHL1    C614483   5.105   0.642  15.116  0.2559 -0.1138  0.2932
  112CHL1    H614484   5.075   0.715  15.193 -1.7095 -0.8601  0.2865
  112CHL1    C714485   5.108   0.699  14.975 -1.0190  0.1071  0.3307
  112CHL1   H7A14486   5.032   0.779  14.959 -1.5277 -0.8822 -2.6705
  112CHL1   H7B14487   5.204   0.750  14.956 -0.2870 -0.5399  2.0658
  112CHL1    C814488   5.084   0.595  14.864 -0.1761  0.1551  0.4840
  112CHL1    H814489   4.978   0.563  14.875  0.1445 -0.6992  1.3277
  112CHL1   C1414490   5.114   0.655  14.728  0.1955  0.2776 -0.5089
  112CHL1   H1414491   5.218   0.695  14.729  0.5140 -0.4549 -1.6772
  112CHL1   C1514492   5.039   0.782  14.690 -0.7192 -0.2256  0.7898
  112CHL1  H15A14493   4.934   0.780  14.725 -0.0298 -2.4430  3.0771
  112CHL1  H15B14494   5.092   0.878  14.711 -0.1222 -0.1291 -1.0444
  112CHL1   C1614495   5.043   0.783  14.538 -0.3710  0.4870  0.1820
  112CHL1  H16A14496   4.940   0.764  14.499  0.0597  1.2484 -1.3958
  112CHL1  H16B14497   5.069   0.885  14.503  1.9808 -0.4021 -0.9020
  112CHL1   C1714498   5.142   0.665  14.498  0.6419  0.4812  0.6466
  112CHL1   H1714499   5.244   0.705  14.516 -0.1701  1.8733  2.4640
  112CHL1   C1314500   5.108   0.564  14.611 -0.6255  0.3595 -0.6675
  112CHL1   C1814501   4.956   0.516  14.581  0.1994  0.4272 -0.0788
  112CHL1  H18A14502   4.889   0.535  14.667 -1.6306 -1.0429 -1.1213
  112CHL1  H18B14503   4.919   0.562  14.488  0.6733 -0.6748 -0.8363
  112CHL1  H18C14504   4.948   0.406  14.565 -3.2672  0.5193  0.4117
  112CHL1   C1214505   5.204   0.448  14.640  0.3794  1.0462 -0.4689
  112CHL1  H12A14506   5.208   0.375  14.556 -0.5159  0.2891  0.1240
  112CHL1  H12B14507   5.306   0.487  14.662  1.4445 -1.0832 -1.2790
  112CHL1   C1114508   5.171   0.376  14.774  0.3374  1.0132  0.7776
  112CHL1  H11A14509   5.067   0.339  14.763  0.5907  0.1159  1.3582
  112CHL1  H11B14510   5.240   0.292  14.797 -0.4338  0.3100  0.5438
  112CHL1    C914511   5.172   0.477  14.894 -0.8206 -0.1965 -0.3016
  112CHL1    H914512   5.276   0.515  14.893 -0.6301 -0.6986 -1.4639
  112CHL1   C1014513   5.152   0.407  15.033  0.2037 -0.2376  0.6291
  112CHL1   C1914514   5.029   0.307  15.022  0.1787 -0.7522 -0.4873
  112CHL1  H19A14515   5.063   0.229  14.951 -0.0847 -1.0914 -0.2456
  112CHL1  H19B14516   5.009   0.259  15.120  0.7682  0.2210  0.1226
  112CHL1  H19C14517   4.940   0.357  14.978  0.4808 -0.1168 -0.3804
  112CHL1    C114518   5.278   0.329  15.065  0.0175 -0.1926  0.3932
  112CHL1   H1A14519   5.301   0.255  14.985 -1.9155 -0.7040  0.2783
  112CHL1   H1B14520   5.360   0.404  15.059  0.0430 -0.2947 -0.7063
  112CHL1    C214521   5.281   0.274  15.212 -0.0115  0.4127  0.0276
  112CHL1   H2A14522   5.377   0.220  15.228  0.2042  1.0573  1.0300
  112CHL1   H2B14523   5.203   0.196  15.227  0.7136  0.1521  3.1511
  112CHL1   C2014524   5.142   0.610  14.352 -0.4308 -0.4677 -0.7436
  112CHL1   H2014525   5.074   0.521  14.347 -1.9495  0.6545 -0.7646
  112CHL1   C2114526   5.283   0.543  14.331  0.4804 -0.3005  0.8381
  112CHL1  H21A14527   5.300   0.524  14.223  3.1677  1.4024  0.8867
  112CHL1  H21B14528   5.299   0.446  14.382 -1.1251 -0.1105  1.7807
  112CHL1  H21C14529   5.369   0.609  14.350  1.7308 -1.4235 -0.6922
  112CHL1   C2214530   5.108   0.713  14.249  0.4840 -0.2508  0.5384
  112CHL1  H22A14531   5.007   0.755  14.270  0.0067 -0.3852 -1.3201
  112CHL1  H22B14532   5.177   0.800  14.252 -0.8482  0.8858 -0.4191
  112CHL1   C2314533   5.098   0.672  14.101 -0.4660  0.6634 -0.0991
  112CHL1  H23A14534   5.194   0.635  14.059 -0.4512 -0.3922  0.8226
  112CHL1  H23B14535   5.026   0.589  14.114  3.2813 -2.7101  0.8455
  112CHL1   C2414536   5.043   0.777  14.003  0.2870 -0.3135 -0.5139
  112CHL1  H24A14537   4.935   0.788  14.026  0.3604 -0.0049 -0.3138
  112CHL1  H24B14538   5.084   0.877  14.029  0.3569 -0.1421 -1.2555
  112CHL1   C2514539   5.053   0.764  13.847 -0.5171 -0.5013  0.3416
  112CHL1   H2514540   5.158   0.789  13.821 -0.5624 -0.7677 -0.0946
  112CHL1   C2614541   5.021   0.622  13.801  0.0583  0.0352 -0.2083
  112CHL1  H26A14542   5.091   0.555  13.856 -1.1127  0.2018  1.5779
  112CHL1  H26B14543   4.920   0.590  13.833  0.9861 -1.0377  1.8438
  112CHL1  H26C14544   5.025   0.614  13.690 -0.6247  1.0396 -0.3175
  112CHL1   C2714545   4.960   0.866  13.774  0.0492  0.3431  0.0915
  112CHL1  H27A14546   4.954   0.847  13.665 -0.8348  1.3459 -0.0535
  112CHL1  H27B14547   4.857   0.859  13.815  0.5430 -1.0604  1.1920
  112CHL1  H27C14548   5.003   0.966  13.800 -0.8874  1.2945 -1.8325
  113CHL1    C314549   1.318   4.770  14.919 -0.5283 -0.2611 -0.0312
  113CHL1    H314550   1.387   4.698  14.871  1.3450  1.9825 -0.8347
  113CHL1    O314551   1.344   4.782  15.062 -0.6065  0.0448  0.0982
  113CHL1   H3'14552   1.310   4.869  15.084  0.2543 -0.1216  2.3086
  113CHL1    C414553   1.347   4.903  14.856  0.1359  0.0959 -0.4045
  113CHL1   H4A14554   1.296   4.984  14.912  0.4804  0.7926 -1.0706
  113CHL1   H4B14555   1.451   4.933  14.880  1.4108 -3.7493 -0.4323
  113CHL1    C514556   1.310   4.919  14.715 -0.1956  0.3268 -0.1883
  113CHL1    C614557   1.402   4.952  14.623 -0.7679 -0.6707 -0.2018
  113CHL1    H614558   1.506   4.962  14.655 -0.2026 -3.4183 -0.9355
  113CHL1    C714559   1.367   4.943  14.474 -1.3590  0.6042 -0.4934
  113CHL1   H7A14560   1.423   5.018  14.414  0.2889 -0.0706  0.1169
  113CHL1   H7B14561   1.406   4.847  14.434 -2.3039  0.3444 -0.8095
  113CHL1    C814562   1.217   4.933  14.436 -0.1760  0.8529  0.2226
  113CHL1    H814563   1.172   5.034  14.448 -0.0228  0.6326  3.4423
  113CHL1   C1414564   1.213   4.875  14.293  0.3092  0.0792  0.0216
  113CHL1   H1414565   1.239   4.767  14.292 -2.7991 -0.7983 -1.7879
  113CHL1   C1514566   1.294   4.931  14.178 -0.1339 -0.4628  0.3469
  113CHL1  H15A14567   1.279   5.040  14.168 -0.4492 -0.6135 -1.0882
  113CHL1  H15B14568   1.403   4.913  14.174  0.2112  1.6242 -0.9476
  113CHL1   C1614569   1.223   4.880  14.050 -0.1020 -0.2528 -0.1311
  113CHL1  H16A14570   1.221   4.962  13.974 -1.0107 -0.5582 -0.4517
  113CHL1  H16B14571   1.284   4.799  14.004  3.0326  1.1407  1.2434
  113CHL1   C1714572   1.086   4.816  14.093 -0.3137 -0.3194 -0.5409
  113CHL1   H1714573   1.108   4.707  14.095  0.7396 -0.1232 -0.9465
  113CHL1   C1314574   1.067   4.872  14.239  0.2165  0.2424  0.1411
  113CHL1   C1814575   1.005   5.015  14.233 -0.1124  0.0919  0.4138
  113CHL1  H18A14576   1.057   5.080  14.160  2.6311 -1.1235  1.1393
  113CHL1  H18B14577   0.900   5.002  14.201 -1.1667  0.9320  3.2002
  113CHL1  H18C14578   1.003   5.062  14.334 -0.0323  1.3795 -0.1698
  113CHL1   C1214579   0.981   4.786  14.334 -0.3509  0.1738 -0.1192
  113CHL1  H12A14580   0.872   4.791  14.311 -0.5571 -2.5920 -0.0561
  113CHL1  H12B14581   1.014   4.681  14.320  0.4321  0.3330  0.5118
  113CHL1   C1114582   0.999   4.825  14.479  0.0255  0.4014  0.2753
  113CHL1  H11A14583   0.945   4.920  14.494 -1.0361  0.1382 -1.5795
  113CHL1  H11B14584   0.948   4.755  14.548 -1.3430 -1.1536 -2.1645
  113CHL1    C914585   1.143   4.840  14.522  0.2507  0.5299 -0.4190
  113CHL1    H914586   1.178   4.738  14.497 -2.6026 -0.2745 -1.4851
  113CHL1   C1014587   1.168   4.856  14.679  0.3028  0.3413  0.2494
  113CHL1   C1914588   1.066   4.960  14.732  0.6395  0.1716  0.1474
  113CHL1  H19A14589   1.084   4.972  14.841  1.0590  1.8526 -0.0796
  113CHL1  H19B14590   1.070   5.054  14.672 -0.3440  0.8533  1.1027
  113CHL1  H19C14591   0.962   4.921  14.729  0.5117  0.5028  0.1726
  113CHL1    C114592   1.134   4.722  14.755  0.2401  0.1439  0.4674
  113CHL1   H1A14593   1.029   4.690  14.741  0.2033  0.1914  0.6378
  113CHL1   H1B14594   1.190   4.636  14.713  0.6530  0.3499  0.5909
  113CHL1    C214595   1.172   4.727  14.900  0.1832 -0.2002  0.2357
  113CHL1   H2A14596   1.164   4.624  14.940 -0.5719 -0.6026 -0.8994
  113CHL1   H2B14597   1.109   4.800  14.955 -0.6065  2.3131 -3.5869
  113CHL1   C2014598   0.972   4.823  13.988 -0.3936  0.9215 -0.3744
  113CHL1   H2014599   0.954   4.927  13.955 -2.8864 -0.1557 -2.8603
  113CHL1   C2114600   0.849   4.760  14.045  0.2829 -0.5356  0.0949
  113CHL1  H21A14601   0.878   4.661  14.087 -2.3547 -0.6095  1.9677
  113CHL1  H21B14602   0.767   4.750  13.971 -1.2591  1.4928  1.4041
  113CHL1  H21C14603   0.790   4.816  14.121  1.9958 -0.1490  1.2075
  113CHL1   C2214604   1.016   4.765  13.851 -0.0028  0.0985 -0.1345
  113CHL1  H22A14605   1.103   4.829  13.824 -0.8145  0.1259 -3.0759
  113CHL1  H22B14606   1.054   4.664  13.878  0.5947 -0.1163 -1.6714
  113CHL1   C2314607   0.904   4.755  13.740  0.1688 -0.1160  0.1012
  113CHL1  H23A14608   0.835   4.672  13.765 -1.2780  0.4846 -1.7274
  113CHL1  H23B14609   0.846   4.850  13.733  0.7895  0.2090 -0.8473
  113CHL1   C2414610   0.949   4.738  13.593 -0.0490 -0.4918  0.1474
  113CHL1  H24A14611   0.980   4.837  13.555 -2.6582 -0.1503 -1.3133
  113CHL1  H24B14612   1.035   4.671  13.575  1.0177  0.9667 -0.3380
  113CHL1   C2514613   0.839   4.705  13.488  0.7073 -0.0293  0.0117
  113CHL1   H2514614   0.808   4.600  13.508  0.9554  0.1900  1.6715
  113CHL1   C2614615   0.713   4.799  13.497 -0.2913 -0.1819  0.4454
  113CHL1  H26A14616   0.670   4.780  13.597  0.6162 -2.0327  0.5268
  113CHL1  H26B14617   0.747   4.905  13.499 -1.1114  0.0857  0.4393
  113CHL1  H26C14618   0.640   4.774  13.417 -0.9953  0.5458  0.8439
  113CHL1   C2714619   0.907   4.709  13.352 -0.1796  0.2878 -0.4078
  113CHL1  H27A14620   0.833   4.682  13.274  0.0221 -1.0280 -0.1692
  113CHL1  H27B14621   0.937   4.815  13.343 -1.3694  0.6770  0.0286
  113CHL1  H27C14622   0.993   4.638  13.346 -0.8053 -0.6495  1.1657
  114CHL1    C314623   5.429   6.333  15.510  0.2168 -0.4798  0.6841
  114CHL1    H314624   5.516   6.264  15.518  0.8456  0.2743  0.3559
  114CHL1    O314625   5.423   6.403  15.632 -0.0812 -0.4203 -0.0368
  114CHL1   H3'14626   5.359   6.475  15.631 -0.2324 -0.4539  1.8933
  114CHL1    C414627   5.445   6.430  15.391 -0.2708  0.5327  0.0668
  114CHL1   H4A14628   5.359   6.500  15.394 -0.1494  0.7193 -0.6465
  114CHL1   H4B14629   5.540   6.486  15.399 -0.8823  1.3520  3.0553
  114CHL1    C514630   5.433   6.360  15.254 -0.1618  0.1966 -0.1013
  114CHL1    C614631   5.532   6.369  15.166  0.5482  0.7930  0.2516
  114CHL1    H614632   5.617   6.437  15.180  0.4378  0.4752  3.0002
  114CHL1    C714633   5.533   6.299  15.031 -0.3105  0.1058 -0.2127
  114CHL1   H7A14634   5.544   6.375  14.951 -1.0264 -1.9257 -2.3503
  114CHL1   H7B14635   5.604   6.214  15.025  1.5642  1.4370  1.5483
  114CHL1    C814636   5.388   6.244  14.996 -0.2743 -0.0709 -0.7209
  114CHL1    H814637   5.330   6.334  14.966 -0.7006  0.2802  1.0697
  114CHL1   C1414638   5.400   6.146  14.883  0.6604  0.2613  0.0020
  114CHL1   H1414639   5.459   6.058  14.915 -1.0293 -1.3083 -0.9351
  114CHL1   C1514640   5.481   6.189  14.756 -0.0461  0.8649  0.1779
  114CHL1  H15A14641   5.443   6.287  14.722  0.0841  0.9848  0.3765
  114CHL1  H15B14642   5.590   6.202  14.776 -0.4256  0.6361  2.6301
  114CHL1   C1614643   5.438   6.084  14.651 -0.0263  0.2917  0.0052
  114CHL1  H16A14644   5.395   6.130  14.560 -1.1708  2.1231  1.3909
  114CHL1  H16B14645   5.522   6.023  14.614 -0.8196  0.7960 -2.8283
  114CHL1   C1714646   5.325   5.999  14.722 -0.3337  0.1192 -0.6768
  114CHL1   H1714647   5.383   5.917  14.768  3.1223  1.1083 -2.8805
  114CHL1   C1314648   5.271   6.087  14.837 -0.3864 -0.6947  0.2509
  114CHL1   C1814649   5.180   6.191  14.775  0.0010 -0.6642 -0.0307
  114CHL1  H18A14650   5.075   6.155  14.778 -1.3187  2.8059  0.8639
  114CHL1  H18B14651   5.173   6.274  14.850  2.7710 -0.3668  0.0176
  114CHL1  H18C14652   5.211   6.222  14.673  1.3312 -0.7625  0.3165
  114CHL1   C1214653   5.194   6.018  14.947 -0.3099 -0.1986 -0.2214
  114CHL1  H12A14654   5.094   5.992  14.908 -0.1192 -1.7340  0.2203
  114CHL1  H12B14655   5.253   5.929  14.978 -0.3570 -0.4861 -0.9439
  114CHL1   C1114656   5.192   6.104  15.073  0.4416 -0.4719  0.4688
  114CHL1  H11A14657   5.108   6.176  15.060 -0.7704 -1.7075  1.1278
  114CHL1  H11B14658   5.159   6.039  15.157 -0.2415  0.6752  1.1115
  114CHL1    C914659   5.324   6.169  15.113  0.5580  0.6807 -1.0665
  114CHL1    H914660   5.398   6.092  15.142  0.4427  1.1845  0.6759
  114CHL1   C1014661   5.313   6.260  15.237 -0.1218 -0.0458 -0.2816
  114CHL1   C1914662   5.200   6.365  15.218  0.2530  0.5989  0.3138
  114CHL1  H19A14663   5.218   6.430  15.129 -1.2555 -1.0732 -1.2896
  114CHL1  H19B14664   5.101   6.314  15.211  0.8428 -0.3664 -1.8263
  114CHL1  H19C14665   5.193   6.447  15.292  0.9471  0.1553  0.8772
  114CHL1    C114666   5.302   6.171  15.366  0.9037  0.1800 -0.0147
  114CHL1   H1A14667   5.203   6.121  15.355  1.0274  0.2257 -1.4192
  114CHL1   H1B14668   5.378   6.092  15.381  0.9313  0.5798  2.3669
  114CHL1    C214669   5.296   6.251  15.492 -0.3515 -0.2708  0.0411
  114CHL1   H2A14670   5.294   6.175  15.572 -0.1646 -1.0390 -0.6688
  114CHL1   H2B14671   5.214   6.325  15.501  1.5424  2.1148 -1.2540
  114CHL1   C2014672   5.225   5.928  14.624 -0.1264  0.8787 -1.4173
  114CHL1   H2014673   5.137   5.992  14.600 -1.4873 -0.1889  0.4813
  114CHL1   C2114674   5.156   5.805  14.703 -0.7523 -0.2303  0.2634
  114CHL1  H21A14675   5.122   5.821  14.808 -1.2883 -2.6932  0.5171
  114CHL1  H21B14676   5.222   5.716  14.708  0.5285  0.6893  0.2301
  114CHL1  H21C14677   5.067   5.781  14.642  0.2049  0.9984 -1.7484
  114CHL1   C2214678   5.282   5.891  14.485  0.2355 -0.2177  0.1195
  114CHL1  H22A14679   5.199   5.841  14.432  0.0423  0.8742 -0.6373
  114CHL1  H22B14680   5.302   5.988  14.434 -0.3211 -0.0987  0.1270
  114CHL1   C2314681   5.409   5.796  14.489  0.4121  0.4739 -0.3403
  114CHL1  H23A14682   5.482   5.840  14.560 -0.1027 -1.1995  1.3153
  114CHL1  H23B14683   5.368   5.698  14.521 -2.6226  1.5291 -0.6556
  114CHL1   C2414684   5.449   5.790  14.347  0.6210  0.1851 -0.1666
  114CHL1  H24A14685   5.366   5.753  14.283 -0.4328  1.2945  0.5456
  114CHL1  H24B14686   5.469   5.891  14.306  3.7423 -1.0999 -2.2580
  114CHL1   C2514687   5.577   5.700  14.315  0.2698  0.0835  0.1075
  114CHL1   H2514688   5.669   5.734  14.366  1.1281 -1.8005 -0.1259
  114CHL1   C2614689   5.553   5.555  14.358  0.7011  0.3986 -0.0142
  114CHL1  H26A14690   5.647   5.497  14.371  1.3090  1.2646 -0.4747
  114CHL1  H26B14691   5.509   5.554  14.460  0.4949 -1.2288 -0.0820
  114CHL1  H26C14692   5.490   5.509  14.279  1.1205 -1.0331  0.4486
  114CHL1   C2714693   5.605   5.691  14.161 -0.7778 -0.4178  0.6272
  114CHL1  H27A14694   5.518   5.656  14.102 -2.2021  3.7531 -0.0769
  114CHL1  H27B14695   5.615   5.791  14.115 -0.3053 -0.1682  1.2615
  114CHL1  H27C14696   5.706   5.646  14.149 -1.1553 -0.8242 -1.3043
  115CHL1    C314697   2.017   0.997  15.356  0.1742 -0.1189 -0.6070
  115CHL1    H314698   1.909   1.019  15.341  0.2453  1.6339  1.1148
  115CHL1    O314699   2.074   1.108  15.417 -0.5675  0.7842 -0.0605
  115CHL1   H3'14700   2.031   1.183  15.375 -1.1414  1.3212  1.4020
  115CHL1    C414701   2.035   0.868  15.436 -0.4450 -0.5778 -0.4970
  115CHL1   H4A14702   2.138   0.851  15.473 -1.3780  0.1244  2.8496
  115CHL1   H4B14703   1.980   0.882  15.532  0.5404 -2.6104  0.4302
  115CHL1    C514704   1.994   0.739  15.373 -0.1606 -0.2495  0.1221
  115CHL1    C614705   1.917   0.641  15.424 -0.9498 -0.1211  0.0484
  115CHL1    H614706   1.877   0.658  15.525 -1.0032 -0.4117  0.0764
  115CHL1    C714707   1.879   0.512  15.352 -0.3867  0.0636  0.0467
  115CHL1   H7A14708   1.888   0.429  15.426  0.1385  0.8273  0.8525
  115CHL1   H7B14709   1.774   0.524  15.318 -0.1490 -2.4537 -1.8686
  115CHL1    C814710   1.960   0.480  15.224  0.2170 -0.0681 -0.1213
  115CHL1    H814711   2.060   0.440  15.251 -0.1335 -0.3167  0.8341
  115CHL1   C1414712   1.894   0.376  15.135  0.3491  0.6404 -0.4101
  115CHL1   H1414713   1.792   0.405  15.102 -0.5594 -2.3902 -0.5575
  115CHL1   C1514714   1.859   0.234  15.190 -0.5378  0.5577 -0.7574
  115CHL1  H15A14715   1.952   0.206  15.244  1.2210  4.8761 -1.1235
  115CHL1  H15B14716   1.771   0.232  15.258  0.2534 -0.2577  0.2798
  115CHL1   C1614717   1.851   0.140  15.072 -0.0355  0.1254  0.0366
  115CHL1  H16A14718   1.933   0.065  15.072  0.7396  0.9384 -0.6626
  115CHL1  H16B14719   1.753   0.089  15.062  0.1220 -0.4331  1.2102
  115CHL1   C1714720   1.871   0.236  14.946  0.0838  0.3862  1.1505
  115CHL1   H1714721   1.772   0.284  14.931  1.3556  2.9455  0.4511
  115CHL1   C1314722   1.959   0.349  15.000  0.0831 -0.1884  0.2297
  115CHL1   C1814723   2.105   0.291  15.022 -0.4887  0.1124 -0.0839
  115CHL1  H18A14724   2.160   0.279  14.926  0.2030  3.7092 -0.2785
  115CHL1  H18B14725   2.172   0.353  15.085  1.1716 -0.6865 -0.9993
  115CHL1  H18C14726   2.102   0.197  15.080  1.1117 -1.0314 -1.7698
  115CHL1   C1214727   1.973   0.484  14.918 -0.4375  1.1964 -0.6882
  115CHL1  H12A14728   2.029   0.452  14.827  0.3313  1.1441 -0.1979
  115CHL1  H12B14729   1.871   0.518  14.891 -0.5828  0.6498 -0.8510
  115CHL1   C1114730   2.045   0.590  15.001 -0.2327  0.6600 -0.2639
  115CHL1  H11A14731   2.153   0.563  15.010 -0.1019  1.7770  2.2139
  115CHL1  H11B14732   2.026   0.689  14.953  1.3314  1.4673  0.6955
  115CHL1    C914733   1.986   0.609  15.143 -0.2947 -0.1828  0.5158
  115CHL1    H914734   1.882   0.643  15.123  0.3306  0.7181 -1.4714
  115CHL1   C1014735   2.047   0.725  15.225 -1.4265  0.9078  0.0930
  115CHL1   C1914736   2.197   0.694  15.247  0.3665  0.0559 -0.4523
  115CHL1  H19A14737   2.246   0.698  15.147 -0.4685 -0.6923 -0.9038
  115CHL1  H19B14738   2.233   0.785  15.299 -2.2999 -0.0325  1.7699
  115CHL1  H19C14739   2.231   0.600  15.294 -1.7088 -0.5545 -0.0753
  115CHL1    C114740   2.029   0.855  15.156  0.0401  0.3444  0.3774
  115CHL1   H1A14741   2.096   0.840  15.068 -0.2186  0.3927  0.1700
  115CHL1   H1B14742   1.924   0.875  15.125  0.5405  0.9600 -1.0376
  115CHL1    C214743   2.082   0.981  15.219 -0.1534 -0.3272 -0.1998
  115CHL1   H2A14744   2.055   1.068  15.156 -0.5791  0.4477  1.0145
  115CHL1   H2B14745   2.193   0.982  15.217 -0.1511  0.3734  0.0465
  115CHL1   C2014746   1.901   0.167  14.806 -0.1640 -0.1154  0.0585
  115CHL1   H2014747   2.010   0.177  14.790 -0.0802 -0.5235  0.3695
  115CHL1   C2114748   1.832   0.258  14.700  0.2159 -0.4872  0.1567
  115CHL1  H21A14749   1.830   0.365  14.728 -0.7350 -0.4312 -0.1103
  115CHL1  H21B14750   1.730   0.222  14.675 -0.0253  0.6824 -0.6246
  115CHL1  H21C14751   1.898   0.256  14.611  0.9284 -0.0432  0.6616
  115CHL1   C2214752   1.853   0.016  14.806 -0.9667 -0.5099 -0.0513
  115CHL1  H22A14753   1.924  -0.045  14.867 -2.1252  0.0510  1.9483
  115CHL1  H22B14754   1.745   0.013  14.832 -0.9847  0.4705  0.0264
  115CHL1   C2314755   1.858  -0.038  14.661  0.3506 -0.3947  0.2016
  115CHL1  H23A14756   1.783   0.013  14.597  1.4896  1.8756  0.6043
  115CHL1  H23B14757   1.953  -0.016  14.609  0.6955 -0.1921  0.9073
  115CHL1   C2414758   1.841  -0.191  14.660  0.1282  0.0636  0.0114
  115CHL1  H24A14759   1.929  -0.225  14.720  2.4965  1.1360 -2.6040
  115CHL1  H24B14760   1.748  -0.226  14.708  0.4576 -3.4196 -1.5707
  115CHL1   C2514761   1.846  -0.264  14.523 -0.0223 -0.2312 -0.1693
  115CHL1   H2514762   1.942  -0.231  14.479  2.5174  1.2237  5.4736
  115CHL1   C2614763   1.846  -0.416  14.538 -0.9096  0.2909 -0.9177
  115CHL1  H26A14764   1.748  -0.445  14.582 -0.0183  0.6319  1.4342
  115CHL1  H26B14765   1.843  -0.467  14.439 -2.1129  1.0919 -1.3233
  115CHL1  H26C14766   1.922  -0.446  14.613 -2.2808 -1.1971 -0.0378
  115CHL1   C2714767   1.723  -0.223  14.437  0.6338 -0.0679 -0.0526
  115CHL1  H27A14768   1.627  -0.251  14.485  0.0685  3.0150  0.8866
  115CHL1  H27B14769   1.715  -0.112  14.432  0.8212  0.2408  3.6634
  115CHL1  H27C14770   1.735  -0.269  14.337  0.7548 -1.5808  0.6385
  116CHL1    C314771   4.632   0.616  15.388 -0.3859  0.3698 -0.4441
  116CHL1    H314772   4.534   0.653  15.424  0.0179  2.0391 -0.9718
  116CHL1    O314773   4.707   0.580  15.501 -0.0752  0.6324  0.1577
  116CHL1   H3'14774   4.657   0.512  15.547  0.1025  2.8494  4.0966
  116CHL1    C414775   4.614   0.479  15.304 -0.6505 -0.1433  0.4069
  116CHL1   H4A14776   4.714   0.433  15.291 -1.5227 -2.3455  1.0143
  116CHL1   H4B14777   4.569   0.397  15.364  2.8640 -2.1776  0.5009
  116CHL1    C514778   4.555   0.499  15.166 -0.3531  0.5403 -0.9638
  116CHL1    C614779   4.449   0.428  15.127 -0.6413  0.6199  0.1425
  116CHL1    H614780   4.404   0.346  15.184 -0.2473  0.1074 -0.2700
  116CHL1    C714781   4.379   0.456  14.996  0.1708 -0.6498  0.2171
  116CHL1   H7A14782   4.357   0.359  14.947 -1.5290  0.5154 -1.4499
  116CHL1   H7B14783   4.294   0.525  15.018  0.4429 -0.2376  0.0046
  116CHL1    C814784   4.466   0.530  14.895 -0.5884  0.1222  0.3790
  116CHL1    H814785   4.549   0.467  14.857  0.5423  1.4233  0.6383
  116CHL1   C1414786   4.383   0.568  14.770  0.6366  0.8949 -0.2662
  116CHL1   H1414787   4.308   0.642  14.806  0.4994  0.7239 -0.2023
  116CHL1   C1514788   4.304   0.453  14.705  0.0144  0.5648 -0.7884
  116CHL1  H15A14789   4.369   0.363  14.700 -0.5460 -0.0462  1.6771
  116CHL1  H15B14790   4.217   0.429  14.769  1.1894 -0.0533  0.6504
  116CHL1   C1614791   4.272   0.511  14.568 -0.4715 -0.2824  0.4900
  116CHL1  H16A14792   4.307   0.443  14.487  0.8958  0.9610 -0.0180
  116CHL1  H16B14793   4.162   0.521  14.562 -0.4799 -0.7830 -0.3156
  116CHL1   C1714794   4.345   0.655  14.558 -0.2515  0.2340 -0.8987
  116CHL1   H1714795   4.266   0.722  14.600 -1.2922 -0.4989 -1.6406
  116CHL1   C1314796   4.458   0.645  14.661 -0.0038  0.9930 -1.2089
  116CHL1   C1814797   4.564   0.558  14.599 -0.2624 -0.1909 -0.5055
  116CHL1  H18A14798   4.629   0.614  14.529  0.8936  0.8204  1.2998
  116CHL1  H18B14799   4.633   0.518  14.676  0.5094 -1.6964 -1.9220
  116CHL1  H18C14800   4.521   0.469  14.548 -1.8620  0.4420 -0.3189
  116CHL1   C1214801   4.518   0.775  14.725  1.0658 -0.1511  1.3150
  116CHL1  H12A14802   4.578   0.827  14.647 -2.1588 -0.4492 -1.6579
  116CHL1  H12B14803   4.431   0.841  14.746 -0.8534 -1.9766 -0.4061
  116CHL1   C1114804   4.601   0.746  14.851  0.3768 -0.3244 -0.4064
  116CHL1  H11A14805   4.695   0.704  14.809  1.2843  1.5405 -0.3432
  116CHL1  H11B14806   4.640   0.841  14.893 -1.3935  0.6543 -0.8819
  116CHL1    C914807   4.533   0.652  14.951  0.0777 -0.2733  0.2382
  116CHL1    H914808   4.452   0.722  14.984 -0.2806 -1.1714  1.3121
  116CHL1   C1014809   4.617   0.620  15.082 -0.4696  0.3604  0.1790
  116CHL1   C1914810   4.755   0.570  15.033  0.7047  0.2959 -0.3864
  116CHL1  H19A14811   4.815   0.549  15.125  2.2112  1.3564 -1.0881
  116CHL1  H19B14812   4.753   0.476  14.973  1.3804  1.1089 -1.7187
  116CHL1  H19C14813   4.807   0.655  14.985 -0.8050  2.3289  1.3855
  116CHL1    C114814   4.626   0.744  15.167 -0.0358  0.3303  0.7059
  116CHL1   H1A14815   4.696   0.818  15.124  0.8743  0.5968  2.5323
  116CHL1   H1B14816   4.517   0.766  15.166  0.0145  0.5557 -0.5516
  116CHL1    C214817   4.695   0.726  15.306  0.6740  0.0978 -0.7816
  116CHL1   H2A14818   4.671   0.822  15.356  0.7232 -0.7932  1.0158
  116CHL1   H2B14819   4.805   0.716  15.295  0.8868  0.3163  0.9125
  116CHL1   C2014820   4.376   0.687  14.412 -0.6042  0.2688 -0.7041
  116CHL1   H2014821   4.438   0.602  14.377 -0.7954 -0.6587  1.1037
  116CHL1   C2114822   4.462   0.814  14.401  0.4304 -0.2791 -0.5891
  116CHL1  H21A14823   4.561   0.805  14.450  0.2330 -1.0469 -0.3189
  116CHL1  H21B14824   4.410   0.899  14.450  2.5789  1.9018 -1.8265
  116CHL1  H21C14825   4.470   0.846  14.294 -0.0496  1.4629 -0.1362
  116CHL1   C2214826   4.251   0.691  14.319 -0.7494 -0.7969 -1.1768
  116CHL1  H22A14827   4.196   0.599  14.348 -0.1636 -0.5087  1.0107
  116CHL1  H22B14828   4.182   0.770  14.356  0.9254  0.4345 -0.5261
  116CHL1   C2314829   4.282   0.706  14.170 -0.0334 -0.1506 -0.6314
  116CHL1  H23A14830   4.338   0.795  14.135  0.2732 -0.1206 -0.0698
  116CHL1  H23B14831   4.350   0.622  14.141  0.3696 -0.0831  0.0846
  116CHL1   C2414832   4.156   0.708  14.085  0.6724 -0.2074 -0.1920
  116CHL1  H24A14833   4.110   0.608  14.078  1.0428 -0.4774  0.9712
  116CHL1  H24B14834   4.079   0.780  14.123 -2.4097 -1.3682 -3.6369
  116CHL1   C2514835   4.173   0.748  13.936  0.2026 -0.4854  0.4737
  116CHL1   H2514836   4.274   0.718  13.902 -0.4400 -1.4253 -0.7197
  116CHL1   C2614837   4.082   0.668  13.840 -0.1248  0.6327  0.4265
  116CHL1  H26A14838   4.104   0.559  13.841 -1.0260  0.4133 -0.7872
  116CHL1  H26B14839   3.974   0.687  13.860 -0.6752 -1.2555 -0.4742
  116CHL1  H26C14840   4.099   0.693  13.733  1.2740 -3.0757 -0.3760
  116CHL1   C2714841   4.164   0.898  13.922 -0.3103  0.4631 -0.4933
  116CHL1  H27A14842   4.184   0.930  13.818  0.0985  1.4639 -0.1239
  116CHL1  H27B14843   4.068   0.939  13.959 -1.0447 -0.1595 -1.6603
  116CHL1  H27C14844   4.241   0.938  13.991 -1.0672  1.9799 -0.4763
  117CHL1    C314845   7.042   6.342  15.477  0.1554  0.4727  0.4976
  117CHL1    H314846   6.972   6.423  15.446  0.8085  1.7956  2.3177
  117CHL1    O314847   7.075   6.360  15.616  0.2161  0.3482 -0.2613
  117CHL1   H3'14848   7.159   6.314  15.629 -0.1736  0.3017  2.6525
  117CHL1    C414849   6.974   6.201  15.459  0.6327 -0.2053 -0.0159
  117CHL1   H4A14850   7.029   6.124  15.516  1.7053  0.0723 -0.6402
  117CHL1   H4B14851   6.890   6.209  15.531  0.9168  2.1884  0.1351
  117CHL1    C514852   6.937   6.175  15.311 -1.0254 -0.1086 -0.2346
  117CHL1    C614853   6.812   6.140  15.283  0.0713 -0.2530 -0.5137
  117CHL1    H614854   6.737   6.137  15.362 -2.0449  1.1649 -2.3488
  117CHL1    C714855   6.757   6.130  15.141  0.2543  0.5045 -0.1747
  117CHL1   H7A14856   6.705   6.032  15.130  1.7189 -0.2511 -0.7437
  117CHL1   H7B14857   6.683   6.212  15.129 -3.1758 -1.9941  1.9266
  117CHL1    C814858   6.872   6.125  15.037 -0.1244 -0.4229  0.2793
  117CHL1    H814859   6.916   6.024  15.048  0.4686  0.0397  2.5680
  117CHL1   C1414860   6.822   6.169  14.896 -0.1292 -0.6430  0.5190
  117CHL1   H1414861   6.797   6.277  14.904  0.8013 -0.3607 -0.2403
  117CHL1   C1514862   6.699   6.101  14.848 -0.1464  0.5100 -0.3456
  117CHL1  H15A14863   6.685   5.995  14.876  1.0045  0.7603  1.3310
  117CHL1  H15B14864   6.617   6.159  14.895  0.9476  1.6917  0.1768
  117CHL1   C1614865   6.690   6.130  14.696 -0.0694 -0.9372  0.1434
  117CHL1  H16A14866   6.683   6.038  14.634 -3.0406 -2.5037  2.5423
  117CHL1  H16B14867   6.604   6.199  14.681  0.0199 -0.0489  3.1068
  117CHL1   C1714868   6.832   6.203  14.669  0.4662  0.2394 -0.1588
  117CHL1   H1714869   6.816   6.312  14.673  0.6992  0.2363  1.0411
  117CHL1   C1314870   6.920   6.165  14.787 -0.1341 -0.3898 -0.2477
  117CHL1   C1814871   6.970   6.021  14.761 -0.0749 -0.6244 -0.3510
  117CHL1  H18A14872   6.982   5.958  14.852  4.8539  1.4436  0.7103
  117CHL1  H18B14873   6.907   5.968  14.686  1.3282  1.1032 -2.9007
  117CHL1  H18C14874   7.069   6.030  14.713 -1.3141  3.0923 -2.5947
  117CHL1   C1214875   7.038   6.251  14.816 -0.7071  0.1474  0.2258
  117CHL1  H12A14876   7.123   6.246  14.744 -0.3286 -0.7581  0.7226
  117CHL1  H12B14877   7.006   6.357  14.825 -0.3720  0.3240 -0.5320
  117CHL1   C1114878   7.095   6.222  14.959 -0.1482 -0.0266 -0.1120
  117CHL1  H11A14879   7.140   6.121  14.950  0.6514 -0.0099  2.7146
  117CHL1  H11B14880   7.175   6.296  14.979 -0.0711  0.3486 -1.7396
  117CHL1    C914881   6.982   6.224  15.069  0.1353 -0.1477 -0.0687
  117CHL1    H914882   6.930   6.321  15.080 -0.7893 -0.6740  0.2991
  117CHL1   C1014883   7.048   6.203  15.204 -0.5942 -0.2534  0.1987
  117CHL1   C1914884   7.153   6.084  15.199 -0.8961 -0.0790  0.4756
  117CHL1  H19A14885   7.244   6.118  15.146 -0.7524 -0.8279  0.2283
  117CHL1  H19B14886   7.175   6.050  15.302  0.1414 -1.3412 -0.1279
  117CHL1  H19C14887   7.113   5.995  15.145 -0.0344  0.5498 -1.2944
  117CHL1    C114888   7.115   6.341  15.246 -0.1194 -0.2485 -0.0262
  117CHL1   H1A14889   7.201   6.360  15.179 -0.3263 -0.3859 -0.3332
  117CHL1   H1B14890   7.039   6.420  15.224  0.0643  0.2532  1.0663
  117CHL1    C214891   7.164   6.356  15.390 -0.4883 -0.0528  0.0956
  117CHL1   H2A14892   7.217   6.454  15.388 -1.9280  0.8391  2.0045
  117CHL1   H2B14893   7.226   6.265  15.402 -1.5866 -0.9882 -1.0966
  117CHL1   C2014894   6.877   6.177  14.522 -0.7210 -0.0824  0.3206
  117CHL1   H2014895   6.899   6.070  14.501 -3.9879 -0.4711 -1.7594
  117CHL1   C2114896   7.012   6.252  14.477 -0.0129  0.0729 -0.0616
  117CHL1  H21A14897   7.036   6.221  14.373 -0.6039  0.4913 -0.3304
  117CHL1  H21B14898   7.096   6.221  14.543 -1.8425  0.0659  2.3961
  117CHL1  H21C14899   6.995   6.361  14.493  0.2647 -0.0281  0.9490
  117CHL1   C2214900   6.771   6.216  14.421  0.6289  0.0012 -0.0968
  117CHL1  H22A14901   6.668   6.218  14.465  0.9085  0.9867  0.5488
  117CHL1  H22B14902   6.796   6.320  14.393  1.2081  0.1944  1.0880
  117CHL1   C2314903   6.747   6.125  14.299 -0.3716  0.0855 -0.0011
  117CHL1  H23A14904   6.830   6.141  14.226 -1.4280 -0.3712 -1.3301
  117CHL1  H23B14905   6.763   6.018  14.323 -1.4146 -0.0699  0.0164
  117CHL1   C2414906   6.618   6.148  14.224 -0.8981 -0.1212 -0.2314
  117CHL1  H24A14907   6.537   6.150  14.299  1.4924 -0.1045  2.5056
  117CHL1  H24B14908   6.622   6.251  14.181 -1.1896  0.0012  0.0323
  117CHL1   C2514909   6.583   6.051  14.107  0.4308 -0.0929  0.1683
  117CHL1   H2514910   6.665   6.051  14.032  0.7387  5.0842  0.1429
  117CHL1   C2614911   6.562   5.904  14.162  0.4621 -0.2550  0.2700
  117CHL1  H26A14912   6.657   5.847  14.174  1.1091  0.9783  1.2548
  117CHL1  H26B14913   6.520   5.892  14.265  0.8986 -2.0870  0.2649
  117CHL1  H26C14914   6.500   5.840  14.097 -0.1443  0.6381 -0.0512
  117CHL1   C2714915   6.453   6.091  14.035  0.4008  0.0929 -0.0902
  117CHL1  H27A14916   6.363   6.078  14.100 -0.1249 -0.6504 -0.9561
  117CHL1  H27B14917   6.459   6.192  13.990  0.4942  0.4768  0.7512
  117CHL1  H27C14918   6.437   6.016  13.955  0.5477  0.1552 -0.1794
  118CHL1    C314919   1.057   1.946  14.753 -1.2019  0.1737 -0.0156
  118CHL1    H314920   1.019   2.050  14.762  1.2776  1.1930 -0.6736
  118CHL1    O314921   0.994   1.856  14.850  0.4913 -1.0795 -0.5066
  118CHL1   H3'14922   1.037   1.772  14.835 -0.3145 -1.3096 -1.7105
  118CHL1    C414923   1.017   1.902  14.612  0.3153 -0.3237  0.7198
  118CHL1   H4A14924   1.060   1.800  14.599  0.6406  0.0380 -1.3530
  118CHL1   H4B14925   0.908   1.883  14.604  0.8901 -3.0297 -2.9048
  118CHL1    C514926   1.077   1.979  14.492  0.2212  0.5043  0.5673
  118CHL1    C614927   0.997   2.029  14.391  0.3924  0.2489  0.0674
  118CHL1    H614928   0.890   2.006  14.396  0.0479  1.7768  0.2973
  118CHL1    C714929   1.043   2.108  14.271 -0.2964 -0.4454 -0.3522
  118CHL1   H7A14930   1.001   2.078  14.173 -0.1536 -1.5271 -0.1001
  118CHL1   H7B14931   1.016   2.214  14.293 -0.6406 -0.3271 -1.3207
  118CHL1    C814932   1.204   2.107  14.264 -0.2830 -0.0612 -0.2168
  118CHL1    H814933   1.222   2.006  14.221  2.3904 -0.5945  1.9222
  118CHL1   C1414934   1.259   2.202  14.155  0.4781 -0.8935 -0.2011
  118CHL1   H1414935   1.229   2.300  14.198  4.6730  0.5174 -0.0844
  118CHL1   C1514936   1.196   2.198  14.015 -0.5498  0.2038 -0.1599
  118CHL1  H15A14937   1.173   2.099  13.971  1.3839 -1.0300  1.4538
  118CHL1  H15B14938   1.095   2.243  14.004 -0.7384 -0.3644 -0.7785
  118CHL1   C1614939   1.288   2.285  13.935  0.2880 -0.5413  1.0493
  118CHL1  H16A14940   1.332   2.218  13.858 -4.3568 -0.6705 -1.8272
  118CHL1  H16B14941   1.245   2.362  13.869 -1.0285  0.2507  2.7530
  118CHL1   C1714942   1.402   2.328  14.031  0.6972  0.7894 -0.1041
  118CHL1   H1714943   1.368   2.423  14.078 -1.1679  0.1176 -0.0075
  118CHL1   C1314944   1.407   2.219  14.149 -0.0619  0.0541  0.2789
  118CHL1   C1814945   1.469   2.086  14.099  0.1005 -0.3653  0.1939
  118CHL1  H18A14946   1.437   2.000  14.163  1.7051 -2.5185 -1.7457
  118CHL1  H18B14947   1.438   2.066  13.994 -0.5796  3.1840 -0.3977
  118CHL1  H18C14948   1.580   2.091  14.098  0.0627  1.0289  0.7242
  118CHL1   C1214949   1.461   2.253  14.288  0.9820  0.1157  0.3906
  118CHL1  H12A14950   1.572   2.264  14.295  1.0818 -1.3272  1.5103
  118CHL1  H12B14951   1.423   2.356  14.305  0.0881 -0.3463  1.2624
  118CHL1   C1114952   1.417   2.152  14.398  0.1264  0.1406 -0.0898
  118CHL1  H11A14953   1.472   2.058  14.373 -1.1124 -0.7381  0.3688
  118CHL1  H11B14954   1.445   2.201  14.494 -1.1038 -0.2110  0.4774
  118CHL1    C914955   1.265   2.122  14.410 -0.5381 -0.1668  0.2344
  118CHL1    H914956   1.204   2.208  14.446 -0.1364 -0.1742  0.9477
  118CHL1   C1014957   1.227   2.008  14.506 -0.4254 -0.1672  0.1936
  118CHL1   C1914958   1.298   1.882  14.467 -0.0580 -0.1985  0.6502
  118CHL1  H19A14959   1.279   1.858  14.360 -0.7912  0.7550  0.5506
  118CHL1  H19B14960   1.409   1.891  14.468  0.1746 -2.3942 -0.2537
  118CHL1  H19C14961   1.274   1.795  14.531  2.4115  0.1031  2.1082
  118CHL1    C114962   1.271   2.044  14.650 -0.3230  0.3603  0.1996
  118CHL1   H1A14963   1.382   2.035  14.657 -0.0720  0.7161 -2.4275
  118CHL1   H1B14964   1.257   2.152  14.671  0.7908  0.5942 -0.1872
  118CHL1    C214965   1.214   1.953  14.762 -1.0197  0.0558  0.7075
  118CHL1   H2A14966   1.236   1.987  14.865 -1.2204 -0.2143  0.8420
  118CHL1   H2B14967   1.258   1.852  14.748  0.6366  0.5444  2.0508
  118CHL1   C2014968   1.536   2.354  13.959  0.0426  0.2181  0.8255
  118CHL1   H2014969   1.559   2.268  13.892  0.7721  2.2573 -1.7408
  118CHL1   C2114970   1.648   2.356  14.057  0.2789  0.2240 -0.0965
  118CHL1  H21A14971   1.637   2.441  14.128 -1.3218  2.3195 -2.6642
  118CHL1  H21B14972   1.748   2.371  14.011 -0.1399  1.4911 -0.6308
  118CHL1  H21C14973   1.666   2.256  14.102  0.1702  0.2999  0.1196
  118CHL1   C2214974   1.532   2.481  13.875 -0.0237 -0.1946 -0.1218
  118CHL1  H22A14975   1.444   2.477  13.808  0.3333  0.6376 -0.6547
  118CHL1  H22B14976   1.526   2.565  13.947 -0.8680 -1.5014  1.4068
  118CHL1   C2314977   1.654   2.516  13.789 -0.1680 -0.0694  0.2237
  118CHL1  H23A14978   1.663   2.626  13.773  2.2226 -0.3476 -0.8940
  118CHL1  H23B14979   1.752   2.491  13.836  0.1521 -0.9020 -0.8352
  118CHL1   C2414980   1.649   2.433  13.654 -0.1242 -0.2668 -0.0388
  118CHL1  H24A14981   1.683   2.330  13.680 -1.7153 -0.6639  0.5309
  118CHL1  H24B14982   1.551   2.430  13.602 -1.1122  0.3952  1.7054
  118CHL1   C2514983   1.748   2.486  13.549 -0.1077  1.1045 -0.2160
  118CHL1   H2514984   1.728   2.592  13.524 -2.3474  0.7687 -0.0828
  118CHL1   C2614985   1.891   2.472  13.586 -0.0480  0.9606  0.6298
  118CHL1  H26A14986   1.908   2.363  13.601 -4.4634 -0.2020 -1.3377
  118CHL1  H26B14987   1.966   2.487  13.505  0.1644  0.0835  0.6514
  118CHL1  H26C14988   1.930   2.533  13.670  0.6038  0.8796  0.3983
  118CHL1   C2714989   1.709   2.421  13.405  1.0302 -0.0020  0.0225
  118CHL1  H27A14990   1.789   2.421  13.328 -0.0915 -1.4118 -1.2170
  118CHL1  H27B14991   1.677   2.317  13.428  0.3533  0.4452  1.1441
  118CHL1  H27C14992   1.623   2.479  13.367  0.4029  1.5061  3.3925
  119CHL1    C314993   0.944   8.345  15.693  0.2683  0.4067  0.4367
  119CHL1    H314994   1.001   8.251  15.712 -0.7698 -1.3227 -3.9619
  119CHL1    O314995   0.914   8.398  15.819  0.4035  0.1217  0.1200
  119CHL1   H3'14996   0.982   8.365  15.879 -0.4800 -0.8957  0.6135
  119CHL1    C414997   1.015   8.440  15.591 -0.4231 -0.9751  0.6285
  119CHL1   H4A14998   0.956   8.533  15.579 -3.9352 -2.9692  1.0411
  119CHL1   H4B14999   1.109   8.466  15.644 -0.4580 -1.5655  0.9856
  119CHL1    C515000   1.040   8.370  15.465  0.0647  0.3540  0.5263
  119CHL1    C615001   1.161   8.334  15.424 -1.0359  0.7954  0.2185
  119CHL1    H615002   1.248   8.349  15.490  0.1956 -2.6321 -0.3862
  119CHL1    C715003   1.182   8.270  15.291  0.6599  0.2448  0.2291
  119CHL1   H7A15004   1.261   8.328  15.240  0.3232  0.2966 -0.2315
  119CHL1   H7B15005   1.203   8.161  15.300  0.3278 -0.0311 -1.8394
  119CHL1    C815006   1.060   8.280  15.195  0.1214 -0.1215 -0.0365
  119CHL1    H815007   1.055   8.383  15.153  1.6310  0.3941  0.9712
  119CHL1   C1415008   1.087   8.186  15.077 -0.7329  0.1414 -0.3477
  119CHL1   H1415009   1.106   8.086  15.121  1.1319  1.1866  1.3626
  119CHL1   C1515010   1.217   8.200  15.000  0.1329  0.5771 -0.2442
  119CHL1  H15A15011   1.246   8.304  14.974 -0.0769  0.1290 -2.4966
  119CHL1  H15B15012   1.302   8.151  15.051  0.2593  0.0197 -0.9722
  119CHL1   C1615013   1.186   8.126  14.868  0.1723  0.7050 -0.0308
  119CHL1  H16A15014   1.210   8.195  14.785 -0.7801  0.2433 -0.7160
  119CHL1  H16B15015   1.225   8.022  14.864 -2.1896 -0.2515 -0.1976
  119CHL1   C1715016   1.032   8.089  14.863 -0.4406 -0.0471 -0.0944
  119CHL1   H1715017   1.022   7.987  14.907  0.8208  0.5529  1.7108
  119CHL1   C1315018   0.970   8.175  14.983  0.7263  0.6585 -0.7399
  119CHL1   C1815019   0.945   8.314  14.917  0.4710  0.1306 -0.5776
  119CHL1  H18A15020   0.870   8.311  14.835  1.3786  1.5803 -1.4974
  119CHL1  H18B15021   0.906   8.385  14.994 -0.1829 -0.3522 -0.4452
  119CHL1  H18C15022   1.033   8.367  14.875 -1.1592  1.6242 -2.2988
  119CHL1   C1215023   0.844   8.115  15.061  0.3495  0.6221 -0.0802
  119CHL1  H12A15024   0.761   8.104  14.989 -0.2835  1.0097  0.5834
  119CHL1  H12B15025   0.868   8.011  15.092  0.3566  0.9550  1.1022
  119CHL1   C1115026   0.810   8.202  15.182 -0.8481  0.1793 -0.0395
  119CHL1  H11A15027   0.766   8.295  15.140 -3.2947 -0.6216  0.5628
  119CHL1  H11B15028   0.729   8.154  15.240 -2.1932  0.6015 -1.4887
  119CHL1    C915029   0.934   8.235  15.269  0.0315  0.5222  0.2491
  119CHL1    H915030   0.965   8.136  15.310  0.4293  0.2821 -0.6153
  119CHL1   C1015031   0.908   8.329  15.391  0.1153  0.9158 -0.2591
  119CHL1   C1915032   0.834   8.459  15.340  0.2376  0.7199 -0.3362
  119CHL1  H19A15033   0.890   8.505  15.255 -1.6539  1.3560 -1.2914
  119CHL1  H19B15034   0.728   8.449  15.308 -0.0543 -0.0794  0.8268
  119CHL1  H19C15035   0.826   8.531  15.424 -1.3052 -0.2184  0.3527
  119CHL1    C115036   0.811   8.257  15.494  0.4559  0.4408  0.9383
  119CHL1   H1A15037   0.711   8.246  15.446  0.8008 -4.2811  0.7453
  119CHL1   H1B15038   0.847   8.153  15.513 -0.7480 -1.1418 -3.9070
  119CHL1    C215039   0.802   8.316  15.630 -0.2358 -0.6507  0.1911
  119CHL1   H2A15040   0.749   8.244  15.695 -0.0326 -1.6718 -0.7513
  119CHL1   H2B15041   0.741   8.409  15.626 -0.0082 -0.5306 -0.9288
  119CHL1   C2015042   0.968   8.081  14.724 -0.0221 -0.0523  0.4473
  119CHL1   H2015043   0.974   8.180  14.675 -1.8126 -0.9412 -1.7491
  119CHL1   C2115044   0.821   8.051  14.730  0.2710  0.3157 -0.1930
  119CHL1  H21A15045   0.810   7.950  14.775 -0.9568  0.8010  0.6372
  119CHL1  H21B15046   0.786   8.047  14.625  0.5029 -1.9252 -0.2394
  119CHL1  H21C15047   0.757   8.127  14.778 -2.3194 -2.6438  1.3860
  119CHL1   C2215048   1.038   7.989  14.624 -0.4346 -0.2998  0.4955
  119CHL1  H22A15049   0.994   8.009  14.524  1.3401 -1.1279 -0.5029
  119CHL1  H22B15050   1.144   8.014  14.601 -0.1976 -1.0313  0.7783
  119CHL1   C2315051   1.018   7.839  14.647 -0.0246 -0.3440 -0.1220
  119CHL1  H23A15052   1.060   7.811  14.746  1.6257  2.3681  0.0473
  119CHL1  H23B15053   0.909   7.820  14.649  0.3738 -3.1596  1.9767
  119CHL1   C2415054   1.071   7.746  14.539  0.6117  0.8298  0.2045
  119CHL1  H24A15055   1.002   7.756  14.452  0.8377 -0.9438 -0.2084
  119CHL1  H24B15056   1.174   7.767  14.504  0.1627 -0.4786 -2.1476
  119CHL1   C2515057   1.052   7.600  14.582 -0.2742 -0.0431  0.4029
  119CHL1   H2515058   0.958   7.590  14.641 -0.8491 -3.5438 -0.8481
  119CHL1   C2615059   1.038   7.499  14.467 -0.4144 -0.2933 -0.1730
  119CHL1  H26A15060   1.126   7.491  14.401 -1.2415  1.8254 -1.6322
  119CHL1  H26B15061   1.009   7.398  14.504 -0.1312  0.1157  1.2195
  119CHL1  H26C15062   0.955   7.528  14.399  0.4780 -3.5635 -2.9111
  119CHL1   C2715063   1.170   7.557  14.668  0.0624 -0.8074 -0.3533
  119CHL1  H27A15064   1.151   7.596  14.771 -1.2688 -0.4999 -0.7004
  119CHL1  H27B15065   1.183   7.447  14.669 -0.0928 -0.8258  0.4178
  119CHL1  H27C15066   1.266   7.608  14.642 -0.3619  0.2615  0.0964
  120CHL1    C315067   7.466   7.850  15.762  0.2344  0.0648  0.2266
  120CHL1    H315068   7.394   7.819  15.683  0.1279  2.9279 -0.9313
  120CHL1    O315069   7.388   7.894  15.876 -0.4226 -0.4888  0.3397
  120CHL1   H3'15070   7.445   7.952  15.928 -0.8203  2.3232 -2.0641
  120CHL1    C415071   7.564   7.732  15.801 -0.1043 -0.2031  0.1271
  120CHL1   H4A15072   7.626   7.764  15.888 -2.5642 -0.6803  2.1665
  120CHL1   H4B15073   7.508   7.647  15.845  1.4133 -1.1821  0.2710
  120CHL1    C515074   7.647   7.693  15.676  0.1697 -0.0153 -0.7182
  120CHL1    C615075   7.644   7.566  15.628  0.6608 -0.3240 -0.0146
  120CHL1    H615076   7.579   7.492  15.676 -0.2590  1.0331  0.9089
  120CHL1    C715077   7.727   7.515  15.511 -0.6386  0.4389 -0.3750
  120CHL1   H7A15078   7.781   7.423  15.541  0.7065  1.4668  0.4696
  120CHL1   H7B15079   7.673   7.504  15.414  1.4416 -3.5525 -1.2774
  120CHL1    C815080   7.841   7.617  15.476  0.5304  0.4041  0.1900
  120CHL1    H815081   7.918   7.604  15.555  0.4398 -0.8076  0.0996
  120CHL1   C1415082   7.894   7.582  15.341  0.0012  0.5870  0.1550
  120CHL1   H1415083   7.814   7.613  15.271 -0.1715  1.1375  0.5873
  120CHL1   C1515084   7.917   7.436  15.308 -0.1502  0.3020  0.1829
  120CHL1  H15A15085   7.981   7.386  15.385  0.5815  0.6809 -0.1669
  120CHL1  H15B15086   7.822   7.383  15.287  1.6248 -2.9108 -0.3741
  120CHL1   C1615087   8.003   7.441  15.178  0.4909  0.9844  0.0439
  120CHL1  H16A15088   8.087   7.368  15.181 -0.4007 -0.0974  2.6691
  120CHL1  H16B15089   7.931   7.405  15.101  1.1210 -1.7198  0.6020
  120CHL1   C1715090   8.038   7.592  15.151  0.3030  0.0556 -0.0034
  120CHL1   H1715091   7.952   7.633  15.093  1.2744 -0.5314 -1.9472
  120CHL1   C1315092   8.012   7.660  15.293 -0.2529 -0.4961 -0.3723
  120CHL1   C1815093   8.137   7.641  15.384 -0.0508  0.5015  0.2529
  120CHL1  H18A15094   8.167   7.535  15.374 -0.0836  0.6597 -2.0289
  120CHL1  H18B15095   8.224   7.696  15.340 -0.5087  1.2435  0.2524
  120CHL1  H18C15096   8.122   7.656  15.493 -2.4459  0.9856 -0.0964
  120CHL1   C1215097   7.975   7.806  15.290  0.0724 -0.9254 -0.5026
  120CHL1  H12A15098   8.066   7.859  15.255  0.8584  0.2666  2.9608
  120CHL1  H12B15099   7.897   7.822  15.212 -0.7940  0.1087  0.5362
  120CHL1   C1115100   7.919   7.859  15.428 -0.1797  0.2892 -0.1026
  120CHL1  H11A15101   8.002   7.856  15.502 -0.8255 -0.3025  0.6063
  120CHL1  H11B15102   7.895   7.967  15.419  1.7988  1.0043  2.0233
  120CHL1    C915103   7.800   7.768  15.477 -0.1217 -0.6491 -0.6443
  120CHL1    H915104   7.717   7.779  15.404 -2.5076 -0.7512  1.8598
  120CHL1   C1015105   7.722   7.815  15.612  0.3383  0.0510 -0.5683
  120CHL1   C1915106   7.826   7.865  15.713  0.1099  0.1149 -0.1833
  120CHL1  H19A15107   7.873   7.956  15.670 -0.3835 -1.0168 -3.4382
  120CHL1  H19B15108   7.782   7.895  15.810  0.4466 -2.2136  0.7398
  120CHL1  H19C15109   7.911   7.797  15.735  0.9307  0.3325 -2.3847
  120CHL1    C115110   7.621   7.923  15.583  0.1289  0.1482 -0.0732
  120CHL1   H1A15111   7.682   8.007  15.544  0.0528  0.4105  0.3640
  120CHL1   H1B15112   7.553   7.897  15.499 -0.7792  0.5070  0.5296
  120CHL1    C215113   7.544   7.972  15.699  0.0566  0.1501 -0.2351
  120CHL1   H2A15114   7.461   8.042  15.674 -0.3737 -0.6865 -1.2279
  120CHL1   H2B15115   7.604   8.014  15.782  0.4271 -0.9134  0.0582
  120CHL1   C2015116   8.173   7.605  15.080  0.4038  0.1230  0.5733
  120CHL1   H2015117   8.245   7.546  15.140  1.2814 -0.9757 -1.4711
  120CHL1   C2115118   8.219   7.752  15.066 -0.5877 -0.8161 -0.3820
  120CHL1  H21A15119   8.298   7.743  14.989 -0.1582 -1.1786  0.0985
  120CHL1  H21B15120   8.247   7.791  15.166  0.2063 -4.3260  0.9038
  120CHL1  H21C15121   8.139   7.814  15.021 -0.1152 -0.1123 -0.2567
  120CHL1   C2215122   8.185   7.528  14.946 -0.4620  0.2819  0.4506
  120CHL1  H22A15123   8.102   7.456  14.933  1.1061 -1.3896 -0.8879
  120CHL1  H22B15124   8.161   7.596  14.862  0.4560  0.4873  0.3402
  120CHL1   C2315125   8.322   7.468  14.917  0.3809 -0.1428  0.6541
  120CHL1  H23A15126   8.400   7.547  14.911 -0.1224  0.2834 -0.5264
  120CHL1  H23B15127   8.352   7.400  15.000  3.1330  0.7763  0.5317
  120CHL1   C2415128   8.326   7.386  14.784 -0.2816 -0.3537  0.1801
  120CHL1  H24A15129   8.275   7.287  14.792 -1.0080 -0.0509 -0.5049
  120CHL1  H24B15130   8.269   7.441  14.706 -0.1968  2.4029  1.9513
  120CHL1   C2515131   8.463   7.373  14.719  0.1119 -0.0730 -0.2560
  120CHL1   H2515132   8.518   7.469  14.729  2.5750 -0.9350 -3.6933
  120CHL1   C2615133   8.542   7.258  14.789 -0.0196 -0.5205  0.4441
  120CHL1  H26A15134   8.538   7.267  14.899 -1.0648 -0.4660  0.4086
  120CHL1  H26B15135   8.507   7.159  14.751  0.3291  0.3746 -2.4826
  120CHL1  H26C15136   8.649   7.272  14.762 -0.4777  0.6625 -0.8678
  120CHL1   C2715137   8.445   7.356  14.558 -0.1828 -0.6974 -0.2900
  120CHL1  H27A15138   8.381   7.269  14.533  3.1879 -3.0763 -1.4963
  120CHL1  H27B15139   8.406   7.451  14.517 -1.1012 -0.9615 -0.0620
  120CHL1  H27C15140   8.541   7.330  14.508  0.0833 -0.7189  0.2265
  121CHL1    C315141   6.238   4.467  12.893  0.1488  0.2352  0.3056
  121CHL1    H315142   6.316   4.543  12.917  0.8552 -0.3177 -0.1860
  121CHL1    O315143   6.221   4.460  12.751  0.2882  0.2092 -0.1998
  121CHL1   H3'15144   6.145   4.403  12.739  1.2184 -1.5678  1.8161
  121CHL1    C415145   6.283   4.330  12.942 -0.0290 -0.0777 -0.4718
  121CHL1   H4A15146   6.207   4.257  12.908  1.1109 -2.7917  2.2297
  121CHL1   H4B15147   6.381   4.302  12.899  0.8627 -0.6115  1.7294
  121CHL1    C515148   6.290   4.342  13.094 -0.6781  0.2889  0.1439
  121CHL1    C615149   6.406   4.301  13.152  0.0334  0.1193 -0.0563
  121CHL1    H615150   6.476   4.248  13.087 -1.3835 -2.3413  0.3281
  121CHL1    C715151   6.439   4.319  13.297 -0.0184  0.0766 -0.0581
  121CHL1   H7A15152   6.501   4.237  13.338  1.7437  0.5079 -1.7518
  121CHL1   H7B15153   6.504   4.408  13.306  0.5914 -0.1937 -1.5698
  121CHL1    C815154   6.313   4.345  13.387 -0.4516 -0.1042  0.1360
  121CHL1    H815155   6.259   4.249  13.403 -0.8933 -0.5559 -3.2752
  121CHL1   C1415156   6.349   4.389  13.523  0.2763  0.2792  0.0485
  121CHL1   H1415157   6.396   4.489  13.511  1.3050 -0.0872  0.8886
  121CHL1   C1515158   6.461   4.316  13.598  0.0102 -0.2699 -0.0787
  121CHL1  H15A15159   6.434   4.208  13.596 -2.4279  0.2806 -0.6589
  121CHL1  H15B15160   6.563   4.336  13.562 -0.2141  0.0728 -0.5292
  121CHL1   C1615161   6.440   4.352  13.743  0.3361 -0.6419  0.5753
  121CHL1  H16A15162   6.401   4.263  13.798 -1.2596 -0.8006 -0.7421
  121CHL1  H16B15163   6.531   4.395  13.791  0.0569 -0.9548  1.4134
  121CHL1   C1715164   6.325   4.458  13.739  0.0911 -0.3475  0.0377
  121CHL1   H1715165   6.376   4.554  13.712 -2.7339  2.6750  4.1570
  121CHL1   C1315166   6.234   4.419  13.623  0.1576  0.5856  0.1148
  121CHL1   C1815167   6.151   4.289  13.651 -0.3267  0.1084  0.1892
  121CHL1  H18A15168   6.081   4.321  13.731 -0.7695 -0.7850  0.1708
  121CHL1  H18B15169   6.094   4.251  13.563  0.5160  0.2575 -0.4319
  121CHL1  H18C15170   6.214   4.205  13.686 -2.2842 -1.2872  0.5343
  121CHL1   C1215171   6.151   4.527  13.565  0.1660 -0.8106  0.3703
  121CHL1  H12A15172   6.058   4.537  13.624 -1.9419 -0.0567 -2.8683
  121CHL1  H12B15173   6.214   4.618  13.555 -2.1145  0.8476  0.4932
  121CHL1   C1115174   6.106   4.494  13.417  1.3017  0.7182 -0.2261
  121CHL1  H11A15175   6.045   4.401  13.418  1.6202  0.5019 -0.5596
  121CHL1  H11B15176   6.031   4.566  13.378  1.3850  0.4134 -0.9525
  121CHL1    C915177   6.221   4.449  13.318  0.3582 -0.2010  0.4742
  121CHL1    H915178   6.286   4.536  13.299  0.0492 -0.1991 -0.6389
  121CHL1   C1015179   6.177   4.408  13.175  0.4596 -0.5738  0.0532
  121CHL1   C1915180   6.069   4.302  13.185  0.3443  0.6046  0.5784
  121CHL1  H19A15181   5.984   4.341  13.245 -1.8792  0.3328 -2.1498
  121CHL1  H19B15182   6.024   4.275  13.087  0.4208  1.2804  0.3486
  121CHL1  H19C15183   6.114   4.214  13.235  0.4081  0.4357  0.2243
  121CHL1    C115184   6.115   4.524  13.101 -0.7044 -0.0928 -0.6967
  121CHL1   H1A15185   6.015   4.551  13.140  0.2247  2.7230 -0.0314
  121CHL1   H1B15186   6.174   4.613  13.130 -2.2818  1.1417 -1.1573
  121CHL1    C215187   6.108   4.515  12.951 -0.2022  0.3412 -0.6426
  121CHL1   H2A15188   6.101   4.619  12.913  2.3609  1.0284  0.5698
  121CHL1   H2B15189   6.026   4.448  12.917 -0.2676  1.6925 -3.4696
  121CHL1   C2015190   6.256   4.491  13.869  0.3243 -0.1611  0.4877
  121CHL1   H2015191   6.166   4.550  13.843  0.5497 -0.4802 -1.0905
  121CHL1   C2115192   6.348   4.591  13.944  0.5102 -0.0238  0.3119
  121CHL1  H21A15193   6.354   4.683  13.882 -0.5898 -0.3858 -0.3644
  121CHL1  H21B15194   6.444   4.538  13.957 -0.2858 -1.6180 -0.0400
  121CHL1  H21C15195   6.308   4.618  14.045 -1.6830 -1.8543  0.0191
  121CHL1   C2215196   6.225   4.368  13.961 -0.2045  0.1458  0.5413
  121CHL1  H22A15197   6.178   4.286  13.902 -0.1691  0.3034  0.2940
  121CHL1  H22B15198   6.319   4.325  14.001 -0.4429 -0.6486  0.2741
  121CHL1   C2315199   6.120   4.399  14.064 -0.2415  0.0815 -0.7025
  121CHL1  H23A15200   6.117   4.307  14.125 -0.6210 -0.1515 -1.0646
  121CHL1  H23B15201   6.150   4.489  14.123  0.8670 -1.5518  1.3526
  121CHL1   C2415202   5.980   4.408  14.007  0.2961 -0.4369 -0.8689
  121CHL1  H24A15203   5.970   4.509  13.961  0.0273 -0.0463  0.0207
  121CHL1  H24B15204   5.955   4.328  13.934 -1.1189 -0.9759  0.1408
  121CHL1   C2515205   5.871   4.405  14.119  0.1537  0.6041 -0.5433
  121CHL1   H2515206   5.877   4.313  14.182 -2.2587  0.3608 -0.5809
  121CHL1   C2615207   5.878   4.528  14.215 -0.1279  0.0024  0.6215
  121CHL1  H26A15208   5.797   4.524  14.291 -0.5281  3.0908  0.4822
  121CHL1  H26B15209   5.977   4.534  14.267  0.8753 -0.3704 -1.1627
  121CHL1  H26C15210   5.859   4.612  14.146 -1.1158  0.6010  1.5842
  121CHL1   C2715211   5.731   4.393  14.055 -0.0199 -0.3659  0.4100
  121CHL1  H27A15212   5.732   4.312  13.979 -2.1780 -0.4706  0.4244
  121CHL1  H27B15213   5.653   4.376  14.132  0.5559 -1.1400  0.8356
  121CHL1  H27C15214   5.712   4.488  13.999  1.7481  0.6905  1.5299
  122CHL1    C315215   4.744   5.487  13.018 -0.3141 -0.0120  0.6305
  122CHL1    H315216   4.820   5.567  13.033  0.2612 -0.4610  0.1870
  122CHL1    O315217   4.746   5.437  12.882 -0.9600 -0.5410 -0.3900
  122CHL1   H3'15218   4.696   5.359  12.904 -0.5799 -0.5766  0.3999
  122CHL1    C415219   4.779   5.377  13.122  0.0971  0.2193  0.4169
  122CHL1   H4A15220   4.710   5.293  13.101 -0.9548  1.3087 -0.5862
  122CHL1   H4B15221   4.882   5.345  13.095 -0.5657 -0.1096 -1.8959
  122CHL1    C515222   4.767   5.425  13.264  0.7070  0.0733  0.1355
  122CHL1    C615223   4.869   5.424  13.357  0.2281 -0.5461  0.2838
  122CHL1    H615224   4.972   5.399  13.326 -0.1087 -1.7630  0.1073
  122CHL1    C715225   4.862   5.466  13.501 -0.2548 -0.0508 -0.0974
  122CHL1   H7A15226   4.920   5.391  13.559  0.2485 -1.2076 -2.0057
  122CHL1   H7B15227   4.915   5.562  13.513  0.4627 -0.4592  0.0704
  122CHL1    C815228   4.718   5.473  13.539 -0.4019  1.6217 -0.9224
  122CHL1    H815229   4.678   5.370  13.549  1.7393  0.7851 -0.3158
  122CHL1   C1415230   4.714   5.529  13.678  0.2030  0.6104  0.4746
  122CHL1   H1415231   4.744   5.636  13.672 -0.7735  1.2033  3.7248
  122CHL1   C1515232   4.806   5.482  13.790  0.3789 -0.0561 -0.0536
  122CHL1  H15A15233   4.793   5.372  13.791  0.8598 -0.2736 -3.9888
  122CHL1  H15B15234   4.913   5.510  13.781  0.0355  1.4312  0.2319
  122CHL1   C1615235   4.752   5.546  13.918  0.7692  0.0119 -0.2668
  122CHL1  H16A15236   4.742   5.472  14.000  1.4379  0.0408 -0.1491
  122CHL1  H16B15237   4.817   5.629  13.951 -0.4670  0.1278  2.0369
  122CHL1   C1715238   4.615   5.610  13.881 -0.4753  0.0766  0.1093
  122CHL1   H1715239   4.642   5.714  13.854 -0.5643  0.0824  0.0418
  122CHL1   C1315240   4.574   5.542  13.745 -0.0615  0.2880  0.3155
  122CHL1   C1815241   4.511   5.400  13.754  0.5761  0.2173  0.3249
  122CHL1  H18A15242   4.491   5.353  13.656 -0.2813 -0.4994  0.8244
  122CHL1  H18B15243   4.578   5.336  13.816 -0.1401 -1.6143 -0.7182
  122CHL1  H18C15244   4.410   5.417  13.797  0.7396  2.0337  0.1056
  122CHL1   C1215245   4.496   5.640  13.653  0.1535  0.0445 -0.4945
  122CHL1  H12A15246   4.391   5.648  13.687  0.0737  0.3393 -0.7997
  122CHL1  H12B15247   4.544   5.740  13.644 -1.3890  0.7771 -1.0964
  122CHL1   C1115248   4.495   5.582  13.509  0.5773 -0.3779  1.0405
  122CHL1  H11A15249   4.437   5.487  13.509 -3.0375  1.6544  0.8451
  122CHL1  H11B15250   4.444   5.654  13.442  0.6657  0.2564  1.6468
  122CHL1    C915251   4.636   5.550  13.449 -0.4125 -0.4834  0.8652
  122CHL1    H915252   4.685   5.649  13.441  0.9083 -1.1041  0.9982
  122CHL1   C1015253   4.630   5.479  13.309 -0.1932  1.1517  0.3172
  122CHL1   C1915254   4.523   5.365  13.297 -0.3324  0.4438 -0.1352
  122CHL1  H19A15255   4.543   5.299  13.384  1.7575 -1.1672 -1.7074
  122CHL1  H19B15256   4.418   5.400  13.306 -0.0078  1.0837  1.4670
  122CHL1  H19C15257   4.531   5.301  13.207 -0.3864 -2.0604  1.5426
  122CHL1    C115258   4.600   5.581  13.200  0.1164  0.0591 -0.2994
  122CHL1   H1A15259   4.505   5.635  13.224  2.6693  3.8640  2.3705
  122CHL1   H1B15260   4.670   5.667  13.210 -1.4492  1.3653 -0.1686
  122CHL1    C215261   4.601   5.528  13.053  0.2349  0.3633 -0.0446
  122CHL1   H2A15262   4.572   5.606  12.980 -0.1633  0.4993  0.2563
  122CHL1   H2B15263   4.525   5.449  13.035  1.2381 -0.5713 -0.2672
  122CHL1   C2015264   4.519   5.611  14.010  0.6656  1.0592  0.3255
  122CHL1   H2015265   4.509   5.508  14.051 -1.1696  0.4329 -1.5544
  122CHL1   C2115266   4.382   5.664  13.968  0.1157 -0.4627  0.3999
  122CHL1  H21A15267   4.314   5.679  14.054 -0.9517 -1.1022 -0.3142
  122CHL1  H21B15268   4.333   5.607  13.887 -0.5087 -0.4870  0.7883
  122CHL1  H21C15269   4.395   5.770  13.937 -0.1718 -0.3443  0.6830
  122CHL1   C2215270   4.579   5.707  14.115  0.1528 -0.7818 -0.0261
  122CHL1  H22A15271   4.626   5.795  14.066  0.5481 -0.3009  1.1800
  122CHL1  H22B15272   4.505   5.748  14.187 -0.6956 -0.0101 -1.2902
  122CHL1   C2315273   4.676   5.649  14.218 -1.2779  0.4723 -0.9950
  122CHL1  H23A15274   4.617   5.585  14.287 -1.8908  0.6717 -1.3321
  122CHL1  H23B15275   4.749   5.581  14.170 -0.4822  2.0186 -2.0762
  122CHL1   C2415276   4.747   5.759  14.299 -0.6537  0.2472  0.3782
  122CHL1  H24A15277   4.803   5.823  14.228  0.9055 -0.5169  0.8854
  122CHL1  H24B15278   4.665   5.819  14.344 -0.8679 -1.6527  2.7026
  122CHL1   C2515279   4.836   5.720  14.420 -0.5360  0.4288  0.6340
  122CHL1   H2515280   4.863   5.814  14.472  1.9080  1.1220 -1.6592
  122CHL1   C2615281   4.761   5.628  14.513 -0.1592 -0.0344 -0.3488
  122CHL1  H26A15282   4.722   5.536  14.465  0.1017 -0.6109  0.5054
  122CHL1  H26B15283   4.814   5.607  14.609  0.5541  0.3500 -0.6460
  122CHL1  H26C15284   4.672   5.687  14.544 -0.0236  0.2916 -0.5765
  122CHL1   C2715285   4.962   5.646  14.388  0.3138 -0.1016 -0.4186
  122CHL1  H27A15286   5.029   5.720  14.338 -0.6488  0.8750 -0.3082
  122CHL1  H27B15287   5.018   5.626  14.482 -0.0607  0.5042 -0.0554
  122CHL1  H27C15288   4.943   5.555  14.328 -1.6484  0.8479 -1.3291
  123CHL1    C315289   6.330   3.394  12.840  0.6895  0.3264 -0.5371
  123CHL1    H315290   6.429   3.438  12.863  1.1671 -0.8195 -0.3544
  123CHL1    O315291   6.325   3.413  12.699 -0.3133 -0.1830 -0.3953
  123CHL1   H3'15292   6.341   3.331  12.651  1.2041  2.1902 -4.4249
  123CHL1    C415293   6.326   3.253  12.874  0.2388  0.2414 -0.3367
  123CHL1   H4A15294   6.235   3.203  12.835  2.0508 -0.3957 -4.2153
  123CHL1   H4B15295   6.407   3.208  12.813  0.1391  0.3885 -0.5823
  123CHL1    C515296   6.338   3.242  13.027  0.0973 -0.6227  0.7347
  123CHL1    C615297   6.449   3.187  13.074 -0.3243  0.9693 -0.6962
  123CHL1    H615298   6.522   3.135  13.011 -1.5806 -0.5368 -0.9683
  123CHL1    C715299   6.476   3.190  13.219 -0.2136  0.1666 -0.7145
  123CHL1   H7A15300   6.514   3.088  13.242 -0.9739  0.3681  1.6993
  123CHL1   H7B15301   6.554   3.264  13.246 -0.1807 -0.3703  0.7565
  123CHL1    C815302   6.354   3.222  13.306  0.1702 -0.2300 -1.0286
  123CHL1    H815303   6.298   3.126  13.311 -2.6531  1.3744  1.0721
  123CHL1   C1415304   6.414   3.263  13.441 -0.2823  0.2298 -1.1561
  123CHL1   H1415305   6.476   3.355  13.431  0.6573 -0.0916  1.1206
  123CHL1   C1515306   6.503   3.158  13.509  0.3981  0.8552  0.3595
  123CHL1  H15A15307   6.467   3.054  13.494 -0.0249  0.6615  2.5275
  123CHL1  H15B15308   6.608   3.165  13.472  0.2234 -1.1685 -0.6993
  123CHL1   C1615309   6.497   3.199  13.653  0.2497  0.2021 -0.1652
  123CHL1  H16A15310   6.472   3.113  13.719  1.9088 -0.0351  0.1996
  123CHL1  H16B15311   6.603   3.215  13.683  0.2771 -1.2789  0.6005
  123CHL1   C1715312   6.399   3.315  13.670  0.5829  1.1101  0.2161
  123CHL1   H1715313   6.452   3.409  13.648 -0.3145  1.2883 -1.3067
  123CHL1   C1315314   6.310   3.303  13.545  0.1948  0.3756 -0.0645
  123CHL1   C1815315   6.207   3.189  13.579 -0.4258 -0.2262 -0.2441
  123CHL1  H18A15316   6.129   3.230  13.646 -1.1797  0.7111 -1.6452
  123CHL1  H18B15317   6.151   3.152  13.490 -1.0658  1.4132 -0.5627
  123CHL1  H18C15318   6.253   3.099  13.625  2.2054  0.6519 -0.9639
  123CHL1   C1215319   6.230   3.427  13.488 -0.7016  0.5389  0.4060
  123CHL1  H12A15320   6.152   3.449  13.564 -0.2166 -2.6014  1.9814
  123CHL1  H12B15321   6.300   3.513  13.481 -1.5578  1.2839  0.7866
  123CHL1   C1115322   6.166   3.396  13.345  0.6787 -0.6376 -0.7917
  123CHL1  H11A15323   6.086   3.322  13.369 -0.4700  1.3077  1.8184
  123CHL1  H11B15324   6.118   3.486  13.302  0.5728 -0.6981 -0.7992
  123CHL1    C915325   6.273   3.341  13.247 -0.3705 -0.5895  0.5555
  123CHL1    H915326   6.351   3.419  13.238 -0.3266 -0.5319  1.4151
  123CHL1   C1015327   6.231   3.328  13.102  0.1072 -0.1309  0.0554
  123CHL1   C1915328   6.098   3.260  13.106 -0.5829  1.1286 -0.3520
  123CHL1  H19A15329   6.016   3.327  13.139 -1.3792  0.5935 -1.1753
  123CHL1  H19B15330   6.073   3.235  13.001 -0.4565 -1.4238  0.1542
  123CHL1  H19C15331   6.087   3.167  13.166 -1.0878 -0.6043 -2.9608
  123CHL1    C115332   6.225   3.475  13.051 -0.6339  0.4734  0.0771
  123CHL1   H1A15333   6.137   3.524  13.098 -0.8001  0.6526 -0.4163
  123CHL1   H1B15334   6.305   3.549  13.073 -1.2438  0.9419  0.7578
  123CHL1    C215335   6.216   3.476  12.895  0.4972 -0.6151  1.2228
  123CHL1   H2A15336   6.221   3.584  12.869 -2.0512 -0.6484  0.3180
  123CHL1   H2B15337   6.118   3.438  12.860  0.1285  0.2847  1.2326
  123CHL1   C2015338   6.341   3.334  13.812 -0.1019 -1.0437 -0.1179
  123CHL1   H2015339   6.269   3.251  13.827 -0.4257 -0.5007  1.5722
  123CHL1   C2115340   6.268   3.475  13.819 -0.1490  0.5033  0.0446
  123CHL1  H21A15341   6.252   3.487  13.928  0.2295  3.7538 -0.1519
  123CHL1  H21B15342   6.175   3.469  13.758  0.9547 -2.6919 -1.5497
  123CHL1  H21C15343   6.334   3.558  13.784  1.0444 -1.4253 -2.6987
  123CHL1   C2215344   6.449   3.321  13.921  0.1274 -0.3033 -0.0966
  123CHL1  H22A15345   6.394   3.337  14.016  0.7389 -1.2057  0.4318
  123CHL1  H22B15346   6.490   3.218  13.909  0.6005 -0.0080 -1.1057
  123CHL1   C2315347   6.568   3.416  13.906  0.0060  0.4015  0.7154
  123CHL1  H23A15348   6.642   3.385  13.829  0.1372 -0.7470  1.2744
  123CHL1  H23B15349   6.548   3.524  13.888  2.3077  1.2731  2.7704
  123CHL1   C2415350   6.643   3.419  14.039  0.0362 -0.0544  0.0862
  123CHL1  H24A15351   6.586   3.458  14.127 -0.4660 -2.9916  1.1532
  123CHL1  H24B15352   6.667   3.314  14.066  0.3290  0.1726  0.7437
  123CHL1   C2515353   6.779   3.492  14.025  0.1763 -0.3340  0.4106
  123CHL1   H2515354   6.817   3.461  13.926 -1.8441 -1.2467 -0.1231
  123CHL1   C2615355   6.771   3.652  14.018 -0.1479 -0.0331  0.1629
  123CHL1  H26A15356   6.716   3.686  13.927  1.4867  1.0459 -0.4811
  123CHL1  H26B15357   6.725   3.699  14.107  0.3215  1.3878 -0.3122
  123CHL1  H26C15358   6.875   3.689  14.011  0.0307 -0.1688  1.7627
  123CHL1   C2715359   6.879   3.460  14.138  0.0288 -0.6776  0.3469
  123CHL1  H27A15360   6.858   3.528  14.223 -2.0738 -0.6555 -0.1386
  123CHL1  H27B15361   6.868   3.353  14.167 -0.7202 -0.8158 -0.4200
  123CHL1  H27C15362   6.981   3.480  14.097 -0.9568  2.0610 -0.9668
  124CHL1    C315363   6.043   6.508  13.079 -0.1902 -0.2881 -0.2700
  124CHL1    H315364   6.061   6.570  13.169 -0.6303 -0.6109  0.0384
  124CHL1    O315365   6.067   6.592  12.962 -0.2028 -0.4149  0.1561
  124CHL1   H3'15366   6.013   6.671  12.968 -0.2852 -0.5757  2.2278
  124CHL1    C415367   6.148   6.394  13.070 -0.0006  0.3225  0.0892
  124CHL1   H4A15368   6.139   6.343  12.972 -2.8114 -1.3573  1.0896
  124CHL1   H4B15369   6.246   6.447  13.075  0.8483 -1.2219  0.2916
  124CHL1    C515370   6.125   6.296  13.185 -0.5131  0.5859  0.4701
  124CHL1    C615371   6.224   6.272  13.274  0.0255  0.3892  0.6700
  124CHL1    H615372   6.322   6.320  13.264  0.1690  0.0552  0.4340
  124CHL1    C715373   6.206   6.181  13.392  0.5889 -0.6326  0.2902
  124CHL1   H7A15374   6.290   6.110  13.411  1.9384  1.0022  0.7522
  124CHL1   H7B15375   6.198   6.252  13.477 -3.5020 -0.0008 -0.4574
  124CHL1    C815376   6.075   6.095  13.391 -0.1293  0.1878 -0.2337
  124CHL1    H815377   6.084   6.009  13.322 -0.6181 -0.0221 -0.0416
  124CHL1   C1415378   6.046   6.042  13.533 -0.3977 -0.4984  0.7446
  124CHL1   H1415379   6.036   6.134  13.595 -0.8580 -1.0932  1.5647
  124CHL1   C1515380   6.160   5.961  13.603 -0.8429 -0.4909 -0.8784
  124CHL1  H15A15381   6.227   5.906  13.533  0.4411  2.2357 -1.9369
  124CHL1  H15B15382   6.220   6.033  13.662 -2.5050 -1.9771  2.8861
  124CHL1   C1615383   6.084   5.873  13.707 -0.0140 -0.6488  0.1625
  124CHL1  H16A15384   6.080   5.768  13.671  0.6566 -1.6610  2.8343
  124CHL1  H16B15385   6.135   5.877  13.806  2.1012  0.6092 -0.9056
  124CHL1   C1715386   5.932   5.923  13.692 -0.3363  1.1861  0.2604
  124CHL1   H1715387   5.930   6.016  13.752  1.5678 -0.2582  2.7645
  124CHL1   C1315388   5.917   5.971  13.548 -0.1110  0.0728  0.0033
  124CHL1   C1815389   5.917   5.845  13.450 -0.2524  0.3756 -0.6966
  124CHL1  H18A15390   5.946   5.869  13.345 -0.5959 -1.0803 -1.1418
  124CHL1  H18B15391   5.980   5.770  13.501 -0.6186  2.3234  3.0068
  124CHL1  H18C15392   5.812   5.809  13.446 -0.4704  1.0685 -1.7256
  124CHL1   C1215393   5.802   6.067  13.514  0.0152 -0.7089  0.7474
  124CHL1  H12A15394   5.716   5.996  13.508  0.2548 -0.8602 -2.2992
  124CHL1  H12B15395   5.795   6.155  13.581  0.3486  3.0562 -3.6733
  124CHL1   C1115396   5.818   6.128  13.376  0.2072  0.5773 -0.1958
  124CHL1  H11A15397   5.801   6.047  13.303 -1.3238  0.5455  0.1673
  124CHL1  H11B15398   5.736   6.199  13.350 -1.2136 -1.0263 -0.2739
  124CHL1    C915399   5.960   6.193  13.352 -0.4357 -0.2045  0.2100
  124CHL1    H915400   5.983   6.279  13.419  2.3550 -1.6166  1.2091
  124CHL1   C1015401   5.978   6.249  13.208  0.3650  0.4477 -0.6200
  124CHL1   C1915402   5.940   6.136  13.108 -0.4576  0.0999 -0.2066
  124CHL1  H19A15403   5.831   6.117  13.103 -0.3506 -0.3688 -1.0485
  124CHL1  H19B15404   5.962   6.165  13.003 -2.4265  0.1750 -0.6412
  124CHL1  H19C15405   5.999   6.042  13.117  0.8177  0.5383 -2.8838
  124CHL1    C115406   5.885   6.370  13.202 -0.4313 -0.7579  0.4867
  124CHL1   H1A15407   5.778   6.338  13.205 -0.7283 -0.0195 -1.0321
  124CHL1   H1B15408   5.902   6.427  13.296 -2.7512 -0.5019  0.8138
  124CHL1    C215409   5.906   6.458  13.079  0.4261 -0.6206  0.0358
  124CHL1   H2A15410   5.834   6.543  13.082  0.2402 -0.8087  2.1682
  124CHL1   H2B15411   5.898   6.405  12.981 -0.9689  0.2830 -0.3774
  124CHL1   C2015412   5.836   5.822  13.756  0.0730 -0.4449  0.2918
  124CHL1   H2015413   5.801   5.748  13.681 -3.0972  1.7889 -0.6354
  124CHL1   C2115414   5.705   5.895  13.793  0.5940  0.0636  0.3130
  124CHL1  H21A15415   5.714   5.957  13.885  1.5661 -0.1754  0.3937
  124CHL1  H21B15416   5.623   5.827  13.825 -0.2178  2.3421  3.6586
  124CHL1  H21C15417   5.658   5.959  13.715 -1.2342 -3.0235 -1.3228
  124CHL1   C2215418   5.888   5.740  13.881  0.3504  0.5674  0.1189
  124CHL1  H22A15419   5.803   5.673  13.908  0.8946 -1.7262 -3.2071
  124CHL1  H22B15420   5.972   5.676  13.846 -0.9855 -1.5597  0.6396
  124CHL1   C2315421   5.907   5.831  14.004  0.0036  0.5472  0.3736
  124CHL1  H23A15422   5.964   5.914  13.957  0.8595  0.8744  1.9396
  124CHL1  H23B15423   5.814   5.871  14.051  0.3343  2.2997 -0.3786
  124CHL1   C2415424   5.992   5.778  14.127 -0.0875 -0.1789  0.0629
  124CHL1  H24A15425   5.927   5.717  14.193  0.2266 -0.8212 -0.2109
  124CHL1  H24B15426   6.084   5.724  14.095  0.3524  0.2223  0.6324
  124CHL1   C2515427   6.060   5.898  14.208  0.0927 -0.6543 -0.1619
  124CHL1   H2515428   6.128   5.954  14.140  0.2814 -2.0883 -1.2136
  124CHL1   C2615429   5.950   5.982  14.277  0.7966 -0.6894  0.0867
  124CHL1  H26A15430   5.867   5.926  14.323  0.5340 -0.0241  0.4374
  124CHL1  H26B15431   6.013   6.040  14.348  1.4810 -1.0478 -0.2133
  124CHL1  H26C15432   5.909   6.049  14.198 -2.8406 -2.8123 -0.0182
  124CHL1   C2715433   6.161   5.838  14.307 -0.1502  0.1462  0.6394
  124CHL1  H27A15434   6.222   5.759  14.259  0.2698  0.3045  0.9137
  124CHL1  H27B15435   6.234   5.909  14.351  0.8910 -0.7126  0.3499
  124CHL1  H27C15436   6.105   5.785  14.387  0.7309  0.5086  1.5094
  125CHL1    C315437   5.452   6.218  13.225 -0.4135  0.4706  0.4921
  125CHL1    H315438   5.551   6.225  13.275 -0.3315  0.4617  0.3344
  125CHL1    O315439   5.433   6.308  13.117  0.2210  0.5215 -0.1249
  125CHL1   H3'15440   5.467   6.262  13.041  4.3080  0.0625  1.7280
  125CHL1    C415441   5.432   6.077  13.173  0.3190 -0.1417 -0.0603
  125CHL1   H4A15442   5.340   6.075  13.110 -0.1619  0.9029  0.5723
  125CHL1   H4B15443   5.517   6.062  13.103  0.3145 -1.9155  0.2680
  125CHL1    C515444   5.425   5.979  13.283  0.8587  0.0591  0.8209
  125CHL1    C615445   5.501   5.866  13.285  0.3644  0.6066 -0.2550
  125CHL1    H615446   5.585   5.855  13.215 -0.5748 -0.1004 -1.3007
  125CHL1    C715447   5.494   5.750  13.380 -0.1326 -0.2566 -1.0917
  125CHL1   H7A15448   5.478   5.654  13.327  0.1923 -1.0884  0.2661
  125CHL1   H7B15449   5.580   5.768  13.449 -3.1062  0.9007  2.6592
  125CHL1    C815450   5.362   5.764  13.472  0.0287 -0.4516 -0.2323
  125CHL1    H815451   5.274   5.733  13.413 -1.1132 -0.0324  1.1904
  125CHL1   C1415452   5.379   5.674  13.595  0.1944  0.5567 -0.5794
  125CHL1   H1415453   5.474   5.711  13.638  0.6531  1.2185 -2.0704
  125CHL1   C1515454   5.403   5.524  13.573 -0.9610  0.0604  0.5664
  125CHL1  H15A15455   5.334   5.471  13.505  1.5218  0.4222 -2.4711
  125CHL1  H15B15456   5.500   5.496  13.526 -2.6763  0.8198 -3.9965
  125CHL1   C1615457   5.381   5.456  13.715 -0.0892 -0.4162  0.1010
  125CHL1  H16A15458   5.310   5.370  13.708 -2.1409  1.2502 -0.8674
  125CHL1  H16B15459   5.475   5.414  13.756 -0.5604 -1.7193 -0.0860
  125CHL1   C1715460   5.321   5.576  13.804  0.4824 -0.1594  0.0343
  125CHL1   H1715461   5.407   5.620  13.857  0.7936  0.4458 -0.9534
  125CHL1   C1315462   5.271   5.684  13.710  0.1573  0.3210  0.2096
  125CHL1   C1815463   5.139   5.648  13.638 -0.4620  0.8388 -0.5564
  125CHL1  H18A15464   5.145   5.547  13.591  0.0831  0.5160  0.1851
  125CHL1  H18B15465   5.062   5.646  13.718  0.3676  2.5209  0.3268
  125CHL1  H18C15466   5.112   5.725  13.562  0.6739  1.3611 -0.4450
  125CHL1   C1215467   5.266   5.832  13.758 -0.2055 -0.0141 -0.0179
  125CHL1  H12A15468   5.173   5.853  13.815  0.1435 -0.7211  0.8421
  125CHL1  H12B15469   5.354   5.860  13.820 -0.8930 -0.7734  1.3575
  125CHL1   C1115470   5.249   5.926  13.638  0.3269 -0.5213 -0.0960
  125CHL1  H11A15471   5.143   5.921  13.604  0.1106  0.2081  0.4432
  125CHL1  H11B15472   5.268   6.020  13.693 -1.1566 -0.0142 -0.4058
  125CHL1    C915473   5.342   5.911  13.519  0.2542 -0.6324 -0.1928
  125CHL1    H915474   5.440   5.941  13.562 -1.1201 -0.0432  2.7742
  125CHL1   C1015475   5.322   6.009  13.394  0.1425  0.4033 -0.2206
  125CHL1   C1915476   5.183   5.988  13.328 -0.7008  0.1264  0.0985
  125CHL1  H19A15477   5.183   6.045  13.233  1.2686  0.5493  0.3077
  125CHL1  H19B15478   5.167   5.882  13.300  0.5311 -0.3021  0.9255
  125CHL1  H19C15479   5.106   6.020  13.402 -1.4655  0.6271 -0.8927
  125CHL1    C115480   5.341   6.158  13.438  0.7595 -0.0336 -0.3952
  125CHL1   H1A15481   5.263   6.179  13.514  2.9410  2.2877  1.3697
  125CHL1   H1B15482   5.435   6.164  13.498 -0.4798 -1.1430  1.8114
  125CHL1    C215483   5.342   6.265  13.327 -0.4449  0.1480 -0.2785
  125CHL1   H2A15484   5.366   6.369  13.358  3.9484 -0.8943  0.5180
  125CHL1   H2B15485   5.244   6.273  13.275 -0.1776  0.5698 -0.7204
  125CHL1   C2015486   5.229   5.523  13.919  0.1232 -0.5046 -0.0393
  125CHL1   H2015487   5.134   5.488  13.874 -0.3772  0.9824 -0.2003
  125CHL1   C2115488   5.190   5.640  14.013 -0.2120 -0.6612  0.6094
  125CHL1  H21A15489   5.269   5.712  14.042 -1.7115  2.6420 -2.7082
  125CHL1  H21B15490   5.117   5.617  14.094 -1.3033 -2.7200 -0.8592
  125CHL1  H21C15491   5.126   5.703  13.948  1.3381 -1.5617 -1.9505
  125CHL1   C2215492   5.300   5.407  14.004  0.0286  0.0652  0.3786
  125CHL1  H22A15493   5.312   5.320  13.937  1.5200 -0.4509  1.2827
  125CHL1  H22B15494   5.387   5.448  14.059 -0.2425  0.2159  0.6992
  125CHL1   C2315495   5.218   5.346  14.118 -0.2179 -0.5558  0.2311
  125CHL1  H23A15496   5.178   5.425  14.185  0.4168  0.1045 -0.1703
  125CHL1  H23B15497   5.126   5.300  14.074 -1.7250  1.1621  1.4461
  125CHL1   C2415498   5.293   5.242  14.197  0.1478  0.5544  0.2080
  125CHL1  H24A15499   5.363   5.186  14.132 -1.9073 -0.7213 -1.0192
  125CHL1  H24B15500   5.359   5.299  14.266  0.0319  2.2899 -1.0477
  125CHL1   C2515501   5.200   5.136  14.265  0.0030 -0.5558 -0.0883
  125CHL1   H2515502   5.135   5.184  14.341 -0.6160  0.4085 -1.1917
  125CHL1   C2615503   5.103   5.071  14.165 -0.6037  0.9570 -0.4417
  125CHL1  H26A15504   5.071   4.969  14.194  0.0473  0.5168 -1.2137
  125CHL1  H26B15505   5.008   5.124  14.143 -0.7232  0.6186 -0.7463
  125CHL1  H26C15506   5.162   5.059  14.072  0.3047 -0.1830  0.2494
  125CHL1   C2715507   5.279   5.023  14.336 -0.1113  0.1372  0.1062
  125CHL1  H27A15508   5.334   5.066  14.423  0.7663 -0.7074 -0.0057
  125CHL1  H27B15509   5.205   4.944  14.363 -0.5918  1.0708  1.6637
  125CHL1  H27C15510   5.353   4.975  14.268 -1.9121 -1.8982 -0.5411
  126CHL1    C315511   2.417   6.278  12.944  0.3139  0.6819 -0.6228
  126CHL1    H315512   2.511   6.332  12.969 -0.7355  2.0281  0.6293
  126CHL1    O315513   2.340   6.326  12.836  0.9673 -0.0635 -0.1320
  126CHL1   H3'15514   2.263   6.269  12.829 -0.3739  1.4381  1.4813
  126CHL1    C415515   2.459   6.135  12.904  0.2052 -0.3528  0.0745
  126CHL1   H4A15516   2.366   6.087  12.866 -1.9262  3.8656 -0.7133
  126CHL1   H4B15517   2.529   6.140  12.818  0.4207  0.4069  0.2850
  126CHL1    C515518   2.508   6.055  13.015  0.0163  0.1892 -0.6519
  126CHL1    C615519   2.623   5.991  13.011  0.1371  0.6876  0.0960
  126CHL1    H615520   2.686   6.019  12.926  0.1994 -1.0134 -0.4394
  126CHL1    C715521   2.676   5.911  13.126  0.2083  0.0295  0.4519
  126CHL1   H7A15522   2.698   5.808  13.090  1.1849 -0.7271  3.0099
  126CHL1   H7B15523   2.769   5.960  13.162  1.3100 -0.9959 -0.8886
  126CHL1    C815524   2.582   5.905  13.249  0.1295 -0.6500 -0.8220
  126CHL1    H815525   2.516   5.816  13.239 -0.8209  0.1478 -1.9424
  126CHL1   C1415526   2.670   5.885  13.373  0.3163 -0.1939  0.4498
  126CHL1   H1415527   2.736   5.973  13.388 -0.4343  0.1869  1.6038
  126CHL1   C1515528   2.775   5.775  13.365 -0.4265  0.1301  0.7936
  126CHL1  H15A15529   2.724   5.692  13.311  0.7937  1.2956 -2.4319
  126CHL1  H15B15530   2.864   5.807  13.307  0.1437 -0.2704  1.4287
  126CHL1   C1615531   2.812   5.744  13.515 -0.3093 -0.2575 -0.5890
  126CHL1  H16A15532   2.770   5.641  13.523 -3.4719  0.7191 -2.5099
  126CHL1  H16B15533   2.921   5.741  13.533 -0.4834 -3.3633  0.4966
  126CHL1   C1715534   2.724   5.842  13.599  0.1480 -0.3452 -0.4974
  126CHL1   H1715535   2.775   5.940  13.600 -0.2557 -0.0843 -2.3114
  126CHL1   C1315536   2.604   5.875  13.514 -0.6440  0.2056  0.4315
  126CHL1   C1815537   2.509   5.759  13.533  0.7241  0.4368  0.2610
  126CHL1  H18A15538   2.551   5.663  13.497 -2.7753 -0.4883 -1.7738
  126CHL1  H18B15539   2.463   5.756  13.634  0.2956 -0.9868  0.0438
  126CHL1  H18C15540   2.428   5.778  13.459  0.8641  0.4146  0.1007
  126CHL1   C1215541   2.522   6.007  13.526  0.3608 -0.3174 -0.2522
  126CHL1  H12A15542   2.450   5.997  13.610  1.5390  2.6731  1.2656
  126CHL1  H12B15543   2.576   6.101  13.550 -1.6848  1.0135 -0.7089
  126CHL1   C1115544   2.426   6.035  13.406 -0.1003 -0.0763 -0.0365
  126CHL1  H11A15545   2.348   5.956  13.405  0.8729 -1.1489  1.8726
  126CHL1  H11B15546   2.371   6.130  13.427 -0.9242 -0.5315 -0.0862
  126CHL1    C915547   2.510   6.031  13.276  0.2927 -0.4499  0.6503
  126CHL1    H915548   2.590   6.108  13.276  0.8064 -0.9571 -0.4539
  126CHL1   C1015549   2.424   6.071  13.151 -0.6417  0.0872 -0.2600
  126CHL1   C1915550   2.308   5.965  13.136 -0.1847  0.3316  0.1413
  126CHL1  H19A15551   2.260   5.995  13.040 -1.0055 -0.7575  0.1883
  126CHL1  H19B15552   2.331   5.856  13.129 -1.1466  0.1360 -0.2246
  126CHL1  H19C15553   2.231   5.973  13.216 -0.3565  2.7715 -0.1927
  126CHL1    C115554   2.378   6.211  13.176 -0.2750  0.2806 -0.1763
  126CHL1   H1A15555   2.303   6.209  13.258 -0.4109 -1.2108 -0.3220
  126CHL1   H1B15556   2.457   6.281  13.212  1.4695 -1.2136 -0.9427
  126CHL1    C215557   2.312   6.283  13.062 -0.4205  0.6987 -0.7138
  126CHL1   H2A15558   2.270   6.381  13.094  2.8261  1.8132  0.5184
  126CHL1   H2B15559   2.218   6.225  13.053 -0.5532  0.7499  0.2449
  126CHL1   C2015560   2.707   5.812  13.750 -0.7838  0.2246  0.5635
  126CHL1   H2015561   2.626   5.739  13.771 -0.1530 -0.6810 -0.0959
  126CHL1   C2115562   2.673   5.948  13.822  0.1958  0.3007 -0.2763
  126CHL1  H21A15563   2.592   6.005  13.771 -0.3315  0.4235  0.6824
  126CHL1  H21B15564   2.771   6.002  13.823  1.4302 -1.5119 -4.1273
  126CHL1  H21C15565   2.641   5.934  13.927 -0.0058  1.9155 -0.0931
  126CHL1   C2215566   2.834   5.745  13.809  0.0303 -0.6507 -0.3294
  126CHL1  H22A15567   2.851   5.649  13.757  1.1487  0.4996 -2.2151
  126CHL1  H22B15568   2.926   5.802  13.782 -0.0235 -0.8679 -0.9810
  126CHL1   C2315569   2.822   5.722  13.963 -0.4387 -0.3602  0.2290
  126CHL1  H23A15570   2.812   5.823  14.008  1.7712  0.1941 -0.4322
  126CHL1  H23B15571   2.733   5.659  13.983 -1.5450  0.4501 -1.7997
  126CHL1   C2415572   2.946   5.657  14.022 -0.3823  0.2192 -0.6542
  126CHL1  H24A15573   2.949   5.552  13.987  1.5271  0.1355 -0.3364
  126CHL1  H24B15574   3.040   5.708  13.994  0.0882 -0.1281  0.2381
  126CHL1   C2515575   2.947   5.651  14.182  0.7075  0.3515 -0.5001
  126CHL1   H2515576   2.850   5.606  14.211  1.0551  0.2975  0.6458
  126CHL1   C2615577   3.053   5.551  14.232  0.3408 -0.4048  0.0788
  126CHL1  H26A15578   3.048   5.557  14.343  0.5508 -2.8233  0.2763
  126CHL1  H26B15579   3.029   5.447  14.201 -0.9498 -0.3002  0.6517
  126CHL1  H26C15580   3.153   5.586  14.200 -0.9764  3.3204 -0.4863
  126CHL1   C2715581   2.964   5.782  14.250  0.6507 -0.6317  0.0236
  126CHL1  H27A15582   2.987   5.771  14.358 -1.6274 -1.9056  0.4405
  126CHL1  H27B15583   3.054   5.830  14.207  1.2950 -0.4530  1.4812
  126CHL1  H27C15584   2.871   5.838  14.227 -1.4054 -2.9336  2.1330
  127CHL1    C315585   2.806   6.470  13.053 -0.1371  0.6220 -0.1226
  127CHL1    H315586   2.728   6.522  13.113 -2.1045 -2.8763  0.6448
  127CHL1    O315587   2.791   6.498  12.915 -0.1519  0.1477  0.1477
  127CHL1   H3'15588   2.798   6.594  12.921 -2.1042  0.3662 -0.3129
  127CHL1    C415589   2.947   6.521  13.098  0.0092  0.0754  0.0351
  127CHL1   H4A15590   3.012   6.466  13.026 -0.1419 -0.1685  0.0824
  127CHL1   H4B15591   2.957   6.630  13.082  2.5768 -0.0289  0.4607
  127CHL1    C515592   2.979   6.490  13.243 -0.2889 -0.0568 -0.1517
  127CHL1    C615593   3.005   6.582  13.336 -0.0588 -0.2190  0.0263
  127CHL1    H615594   3.001   6.687  13.303  0.1579 -0.5067 -0.9402
  127CHL1    C715595   3.025   6.561  13.480  0.2525  0.8451 -0.4935
  127CHL1   H7A15596   3.117   6.616  13.509 -0.1884  1.0533  0.5479
  127CHL1   H7B15597   2.938   6.596  13.539 -0.8677 -0.4620 -1.2954
  127CHL1    C815598   3.052   6.410  13.521  0.5921 -0.3623  0.1111
  127CHL1    H815599   3.160   6.391  13.504  0.3121 -1.1182 -0.9339
  127CHL1   C1415600   3.021   6.382  13.666 -1.0495 -0.1594 -0.3254
  127CHL1   H1415601   2.910   6.387  13.677 -1.2296  0.1522 -2.0261
  127CHL1   C1515602   3.084   6.476  13.766 -0.6318 -0.4674 -0.2219
  127CHL1  H15A15603   3.187   6.512  13.743 -0.8743  1.2648  1.1353
  127CHL1  H15B15604   3.034   6.574  13.778  1.6345  0.6852  0.5197
  127CHL1   C1615605   3.090   6.397  13.895  0.8301 -0.5722 -0.2281
  127CHL1  H16A15606   3.192   6.391  13.937  0.6518  0.3581  0.3489
  127CHL1  H16B15607   3.025   6.443  13.972  0.2338 -1.6871 -0.0357
  127CHL1   C1715608   3.038   6.256  13.861 -0.0781 -0.0651  0.5259
  127CHL1   H1715609   2.928   6.245  13.875 -0.3966  1.0881 -0.8184
  127CHL1   C1315610   3.063   6.237  13.718 -0.1156 -1.1350  0.4249
  127CHL1   C1815611   3.213   6.217  13.681 -0.1359  0.2407 -0.0988
  127CHL1  H18A15612   3.273   6.302  13.719 -1.2601  0.2708  1.7502
  127CHL1  H18B15613   3.244   6.120  13.727 -3.8381 -1.6034 -1.0182
  127CHL1  H18C15614   3.222   6.200  13.572  1.3822 -2.4991  0.3545
  127CHL1   C1215615   2.980   6.138  13.628 -0.0978  0.1258  0.0735
  127CHL1  H12A15616   2.999   6.032  13.653 -0.7815 -0.0897 -0.2895
  127CHL1  H12B15617   2.873   6.156  13.655 -0.3389 -1.1176  0.0153
  127CHL1   C1115618   2.988   6.165  13.475 -0.2318 -0.4563  0.5802
  127CHL1  H11A15619   3.089   6.133  13.443 -1.5051 -2.6152 -1.6416
  127CHL1  H11B15620   2.917   6.100  13.419 -1.7719  0.9999  0.7426
  127CHL1    C915621   2.967   6.316  13.434  0.4768  0.7232 -0.7557
  127CHL1    H915622   2.863   6.333  13.467  0.5110 -3.1233  2.0179
  127CHL1   C1015623   2.972   6.343  13.282 -0.0483  0.6754  0.0060
  127CHL1   C1915624   3.098   6.283  13.213 -0.5450  0.6907  0.0253
  127CHL1  H19A15625   3.107   6.299  13.103 -0.7344  1.2715  0.0930
  127CHL1  H19B15626   3.191   6.312  13.265 -0.6370  0.3366  0.3920
  127CHL1  H19C15627   3.094   6.172  13.212 -1.1385  0.6895 -2.1482
  127CHL1    C115628   2.845   6.278  13.220  0.3763  0.2031  1.0190
  127CHL1   H1A15629   2.855   6.167  13.224 -1.2453  0.0680  3.0762
  127CHL1   H1B15630   2.765   6.306  13.291  1.0592 -0.4882  2.0972
  127CHL1    C215631   2.801   6.321  13.075 -0.1974  0.5064 -0.5303
  127CHL1   H2A15632   2.705   6.271  13.051  1.1287 -3.7500  2.0139
  127CHL1   H2B15633   2.873   6.271  13.008 -1.1296 -0.4290 -0.8513
  127CHL1   C2015634   3.110   6.160  13.956  0.4117  0.7801 -0.5489
  127CHL1   H2015635   3.218   6.155  13.930 -0.0017 -1.6042 -2.0908
  127CHL1   C2115636   3.059   6.012  13.926  0.1285  0.0781 -0.3839
  127CHL1  H21A15637   3.110   5.964  13.839  2.6114 -0.6625  1.3434
  127CHL1  H21B15638   2.948   6.012  13.924  0.1158  0.4755  0.1244
  127CHL1  H21C15639   3.077   5.943  14.012  0.6697  0.2355 -0.3642
  127CHL1   C2215640   3.090   6.200  14.107 -0.3391 -0.5277  0.3650
  127CHL1  H22A15641   3.136   6.121  14.170 -0.2102 -0.5472  0.2484
  127CHL1  H22B15642   3.143   6.296  14.128 -0.5379 -0.2541 -0.3377
  127CHL1   C2315643   2.944   6.218  14.154  0.1116  0.3994 -0.2472
  127CHL1  H23A15644   2.900   6.300  14.093 -0.2713  1.4520  1.3656
  127CHL1  H23B15645   2.885   6.124  14.147 -1.5059  1.2038  1.6586
  127CHL1   C2415646   2.927   6.263  14.303  0.1827 -0.5739  0.5831
  127CHL1  H24A15647   2.986   6.202  14.375 -1.1970 -1.8677  0.6702
  127CHL1  H24B15648   2.943   6.372  14.319  0.2499 -0.9374  3.5776
  127CHL1   C2515649   2.778   6.232  14.346  0.0276  0.7801 -0.1783
  127CHL1   H2515650   2.711   6.255  14.260 -0.1652  1.0985  0.0574
  127CHL1   C2615651   2.757   6.090  14.393  0.2284  0.7092  0.0003
  127CHL1  H26A15652   2.650   6.060  14.391  0.8585 -1.8598  0.3828
  127CHL1  H26B15653   2.794   6.014  14.321  0.5877 -0.9010  1.7977
  127CHL1  H26C15654   2.807   6.067  14.490  0.0506 -1.6791 -0.4159
  127CHL1   C2715655   2.726   6.328  14.456 -0.4855  0.5780 -0.0260
  127CHL1  H27A15656   2.633   6.286  14.501  0.9475 -2.3012  0.4975
  127CHL1  H27B15657   2.791   6.324  14.546  0.3833 -0.5582 -0.6840
  127CHL1  H27C15658   2.722   6.431  14.416  0.0721  0.0653 -1.4548
  128CHL1    C315659   2.943   1.442  13.322 -0.1356 -0.4394  0.0018
  128CHL1    H315660   2.846   1.398  13.290  0.0546 -0.9033  0.0616
  128CHL1    O315661   3.008   1.501  13.212  0.3386  0.1108  0.1823
  128CHL1   H3'15662   3.044   1.427  13.162  0.5265 -0.9176  1.7690
  128CHL1    C415663   2.920   1.551  13.427  0.2005 -0.0206 -0.7521
  128CHL1   H4A15664   3.022   1.594  13.441 -0.7502  2.2770 -0.3787
  128CHL1   H4B15665   2.867   1.641  13.389 -0.7300  0.2294  1.0256
  128CHL1    C515666   2.868   1.501  13.558 -0.4209 -0.5388  0.2717
  128CHL1    C615667   2.753   1.552  13.611 -0.3385 -0.1187  0.7250
  128CHL1    H615668   2.696   1.632  13.562 -1.3898 -2.4147 -2.1454
  128CHL1    C715669   2.678   1.492  13.728 -0.0437 -0.1472  0.5084
  128CHL1   H7A15670   2.640   1.577  13.788 -2.3259  0.6659 -1.9296
  128CHL1   H7B15671   2.589   1.440  13.687 -0.9968  2.1252 -0.4477
  128CHL1    C815672   2.771   1.390  13.805  0.0804  0.5101 -0.7170
  128CHL1    H815673   2.826   1.447  13.882 -0.6794 -0.6029  0.7027
  128CHL1   C1415674   2.678   1.294  13.885  0.6302 -0.2565  0.1955
  128CHL1   H1415675   2.611   1.235  13.819  1.2388 -1.1928  0.4029
  128CHL1   C1515676   2.571   1.367  13.970  0.0266 -0.2945 -0.3126
  128CHL1  H15A15677   2.627   1.444  14.027 -1.1395 -1.6365  2.8726
  128CHL1  H15B15678   2.477   1.401  13.923 -1.2796 -1.0336  1.6374
  128CHL1   C1615679   2.540   1.254  14.076  0.4488 -0.1469  0.2274
  128CHL1  H16A15680   2.547   1.300  14.176 -0.2898  1.5300 -0.4491
  128CHL1  H16B15681   2.440   1.209  14.057  0.3680  1.0600 -2.8707
  128CHL1   C1715682   2.648   1.133  14.060  0.1543 -0.7663 -0.2476
  128CHL1   H1715683   2.599   1.056  13.996  0.7651 -1.1211 -0.2927
  128CHL1   C1315684   2.758   1.200  13.975 -0.8173 -0.0744  0.3639
  128CHL1   C1815685   2.846   1.279  14.072 -0.1367  0.4326  0.0987
  128CHL1  H18A15686   2.928   1.330  14.018  0.1431 -0.9299 -0.8201
  128CHL1  H18B15687   2.793   1.366  14.116 -0.8248  1.0528 -1.8709
  128CHL1  H18C15688   2.893   1.211  14.147  0.5600  1.2721  0.4322
  128CHL1   C1215689   2.839   1.111  13.880  0.3127  0.6212  0.2404
  128CHL1  H12A15690   2.886   1.025  13.933 -0.5591 -0.0269 -0.0100
  128CHL1  H12B15691   2.768   1.058  13.814  2.7115 -2.0420 -0.4210
  128CHL1   C1115692   2.935   1.192  13.790  0.2561  0.3943  0.8107
  128CHL1  H11A15693   3.015   1.227  13.858 -0.1714  0.9383  1.0402
  128CHL1  H11B15694   2.974   1.114  13.721  0.7716  0.3780  1.1168
  128CHL1    C915695   2.861   1.301  13.714 -0.0212 -0.4873  0.2270
  128CHL1    H915696   2.787   1.249  13.650 -0.7037  0.2363  0.4116
  128CHL1   C1015697   2.942   1.375  13.609  0.7408  0.6101  0.3891
  128CHL1   C1915698   3.077   1.418  13.668  0.4691  0.2832  0.3854
  128CHL1  H19A15699   3.147   1.464  13.595 -0.2840 -3.0083 -2.7146
  128CHL1  H19B15700   3.081   1.481  13.760  0.0195 -0.4617  0.9268
  128CHL1  H19C15701   3.131   1.322  13.682  0.4221 -0.1729 -2.1544
  128CHL1    C115702   2.966   1.269  13.488  1.0560  0.9707  0.1878
  128CHL1   H1A15703   3.018   1.176  13.521 -2.6696 -1.4462 -0.1234
  128CHL1   H1B15704   2.867   1.229  13.456  1.5234  0.0018 -0.1115
  128CHL1    C215705   3.040   1.334  13.374  0.1074 -0.2012 -0.0937
  128CHL1   H2A15706   3.055   1.252  13.300 -0.9461  0.2460 -0.8337
  128CHL1   H2B15707   3.141   1.360  13.411  0.2595 -0.2065 -0.5059
  128CHL1   C2015708   2.680   1.061  14.192 -0.1798 -0.5947 -0.0315
  128CHL1   H2015709   2.730   1.128  14.265 -0.5450  0.7379 -0.9566
  128CHL1   C2115710   2.783   0.942  14.171  0.3648 -0.4812  0.0032
  128CHL1  H21A15711   2.887   0.981  14.168 -0.7079  2.6405  0.3898
  128CHL1  H21B15712   2.761   0.891  14.074 -0.2238  2.6269 -1.6409
  128CHL1  H21C15713   2.778   0.873  14.258  1.1989  1.8700  1.9995
  128CHL1   C2215714   2.547   1.018  14.265  0.1310  0.3592  0.4604
  128CHL1  H22A15715   2.483   1.108  14.268 -0.6667 -0.2120  1.6330
  128CHL1  H22B15716   2.499   0.940  14.202  0.6766  0.7528 -0.4562
  128CHL1   C2315717   2.557   0.959  14.400 -0.0212 -0.5430 -0.4481
  128CHL1  H23A15718   2.626   0.872  14.406 -0.4813 -1.1001 -2.5073
  128CHL1  H23B15719   2.604   1.040  14.460  0.6029 -1.4957  0.3908
  128CHL1   C2415720   2.425   0.930  14.467 -0.1158 -0.0065  0.1122
  128CHL1  H24A15721   2.363   1.022  14.464 -0.0604  0.1552  2.3094
  128CHL1  H24B15722   2.366   0.857  14.407 -2.4919  1.1822  0.8901
  128CHL1   C2515723   2.439   0.880  14.609  0.1360 -0.1889 -0.1259
  128CHL1   H2515724   2.512   0.797  14.606 -1.9683 -2.4792  3.7136
  128CHL1   C2615725   2.480   0.996  14.708 -0.4609 -0.3472  0.5130
  128CHL1  H26A15726   2.462   0.953  14.809 -0.3067 -0.8210  0.3426
  128CHL1  H26B15727   2.585   1.024  14.686  0.0735 -1.6769  1.2934
  128CHL1  H26C15728   2.399   1.071  14.698  0.8999  1.1369  0.2856
  128CHL1   C2715729   2.315   0.810  14.660  0.0132  0.1892 -0.3795
  128CHL1  H27A15730   2.229   0.879  14.666 -0.3334 -0.2794  0.2439
  128CHL1  H27B15731   2.295   0.728  14.588 -1.0027  2.4144 -2.7743
  128CHL1  H27C15732   2.341   0.766  14.759 -1.3210  2.8739  1.2710
  129CHL1    C315733   0.152   6.761  12.799  0.0827 -0.4373 -0.3847
  129CHL1    H315734   0.245   6.716  12.841 -0.0305 -1.3026 -1.0278
  129CHL1    O315735   0.181   6.795  12.665 -0.6712 -0.0694 -0.3143
  129CHL1   H3'15736   0.259   6.849  12.679 -0.3412 -1.0786  2.3673
  129CHL1    C415737   0.052   6.642  12.803 -0.5055 -0.1941  0.3388
  129CHL1   H4A15738  -0.051   6.665  12.769 -0.1451 -0.1605 -0.7972
  129CHL1   H4B15739   0.088   6.562  12.734 -0.6645  0.1485 -0.1511
  129CHL1    C515740   0.037   6.589  12.946  0.0758 -0.0012  0.0720
  129CHL1    C615741   0.061   6.461  12.968  0.5653  0.3414 -0.4435
  129CHL1    H615742   0.099   6.396  12.889 -1.7058 -1.6707  0.0007
  129CHL1    C715743   0.050   6.406  13.100 -0.1148 -0.6622 -0.0760
  129CHL1   H7A15744   0.012   6.302  13.086  0.7116 -0.7072 -2.3215
  129CHL1   H7B15745   0.146   6.394  13.156 -0.5952  1.3128  1.2637
  129CHL1    C815746  -0.039   6.494  13.199 -0.1471 -0.0633  0.1323
  129CHL1    H815747  -0.141   6.480  13.157  0.1072 -0.2355 -0.4338
  129CHL1   C1415748  -0.017   6.443  13.336  0.1957 -0.3114 -0.9359
  129CHL1   H1415749   0.092   6.459  13.352  0.1016  0.9806 -1.4886
  129CHL1   C1515750  -0.056   6.301  13.360 -0.5809 -0.0416  0.5930
  129CHL1  H15A15751  -0.143   6.268  13.299  1.0872  0.3392 -2.1644
  129CHL1  H15B15752   0.029   6.235  13.336  0.2244  1.0931  0.2156
  129CHL1   C1615753  -0.072   6.289  13.512  0.4692  0.2783 -0.3147
  129CHL1  H16A15754  -0.177   6.252  13.518  0.6811 -0.4642 -1.0882
  129CHL1  H16B15755  -0.004   6.211  13.553 -0.3454  0.6777  1.9763
  129CHL1   C1715756  -0.055   6.434  13.572  1.2482  0.4250  0.4428
  129CHL1   H1715757   0.054   6.431  13.593  1.6290 -2.3268 -1.3078
  129CHL1   C1315758  -0.084   6.522  13.447 -0.5058  0.0341 -0.5837
  129CHL1   C1815759  -0.239   6.523  13.421 -0.9731  0.3068  0.1667
  129CHL1  H18A15760  -0.266   6.561  13.320  0.4234  1.7594  0.3086
  129CHL1  H18B15761  -0.293   6.426  13.431 -0.1713 -0.2255 -0.5216
  129CHL1  H18C15762  -0.291   6.587  13.495 -3.3133 -1.3098  0.0238
  129CHL1   C1215763  -0.033   6.666  13.443  0.0513 -0.0833 -0.6098
  129CHL1  H12A15764  -0.087   6.719  13.525 -0.1065 -0.5297 -0.4197
  129CHL1  H12B15765   0.074   6.679  13.469 -0.6404  1.6893  1.6945
  129CHL1   C1115766  -0.064   6.722  13.304  0.1087  0.3191 -0.1873
  129CHL1  H11A15767  -0.172   6.734  13.283  0.1696  1.3670  0.0417
  129CHL1  H11B15768  -0.022   6.824  13.291 -0.3449  0.4135 -0.9457
  129CHL1    C915769   0.010   6.636  13.193 -0.3478  0.2259  0.0725
  129CHL1    H915770   0.118   6.642  13.215  0.1436  2.2606 -2.4508
  129CHL1   C1015771  -0.001   6.699  13.052 -0.2589 -0.8098 -0.3918
  129CHL1   C1915772  -0.154   6.747  13.032 -1.0768  0.6094 -0.1101
  129CHL1  H19A15773  -0.219   6.663  13.062 -1.0531  0.9164  0.8215
  129CHL1  H19B15774  -0.171   6.843  13.086  1.3913  1.2895 -0.3929
  129CHL1  H19C15775  -0.184   6.759  12.925 -0.4582 -1.3085 -0.5261
  129CHL1    C115776   0.093   6.826  13.038 -0.2219 -0.1366  0.3735
  129CHL1   H1A15777   0.052   6.909  13.100 -1.5047 -1.1124  0.8785
  129CHL1   H1B15778   0.194   6.805  13.080 -0.2374  1.0073  1.0342
  129CHL1    C215779   0.105   6.879  12.887 -0.0913 -0.6559  0.0643
  129CHL1   H2A15780   0.185   6.957  12.890 -3.0498  2.5780  0.8288
  129CHL1   H2B15781   0.006   6.915  12.852 -0.8230 -3.4630 -0.9798
  129CHL1   C2015782  -0.143   6.460  13.700 -0.9949  0.9055  0.7113
  129CHL1   H2015783  -0.237   6.516  13.681 -1.6476  0.3524  2.1117
  129CHL1   C2115784  -0.064   6.567  13.791 -0.9167 -0.8573  0.0027
  129CHL1  H21A15785  -0.055   6.665  13.741  1.0927 -0.2659  1.3899
  129CHL1  H21B15786   0.042   6.541  13.811 -0.5976  1.0482  0.9595
  129CHL1  H21C15787  -0.112   6.574  13.891  1.3504 -1.0184  1.1617
  129CHL1   C2215788  -0.180   6.330  13.784  0.0139 -0.1528 -0.3176
  129CHL1  H22A15789  -0.238   6.259  13.721 -1.2303 -0.8271  1.5081
  129CHL1  H22B15790  -0.079   6.291  13.809  0.0295  0.0582 -0.0421
  129CHL1   C2315791  -0.266   6.361  13.911 -0.4547 -0.3120  0.2836
  129CHL1  H23A15792  -0.221   6.430  13.984  1.8610 -1.4276 -0.0070
  129CHL1  H23B15793  -0.359   6.412  13.877 -1.3593 -0.8658  1.8317
  129CHL1   C2415794  -0.303   6.238  13.990 -0.7359  0.2762  1.0202
  129CHL1  H24A15795  -0.387   6.193  13.932 -0.6178 -1.8042  2.3499
  129CHL1  H24B15796  -0.221   6.163  13.989 -0.6638  0.3332  1.7607
  129CHL1   C2515797  -0.331   6.265  14.132  0.1844  0.1719 -0.2627
  129CHL1   H2515798  -0.240   6.320  14.167 -0.8226  1.1484  0.9066
  129CHL1   C2615799  -0.446   6.365  14.156  0.1724  1.1929 -0.2765
  129CHL1  H26A15800  -0.489   6.352  14.257  0.8852  1.3187  0.0471
  129CHL1  H26B15801  -0.420   6.471  14.137  0.4475  1.3824  1.0635
  129CHL1  H26C15802  -0.520   6.338  14.077  0.8226  1.2292 -0.9124
  129CHL1   C2715803  -0.357   6.143  14.219 -0.1019 -0.1406  0.3418
  129CHL1  H27A15804  -0.268   6.077  14.233 -0.3295 -0.4569  0.3029
  129CHL1  H27B15805  -0.378   6.176  14.322 -0.2653 -0.4410  0.4051
  129CHL1  H27C15806  -0.437   6.078  14.178 -0.8977  0.6444  0.6161
  130CHL1    C315807   1.836   7.384  12.975  0.8483  0.0178  0.6548
  130CHL1    H315808   1.772   7.472  12.997  0.0629 -0.4013  0.0868
  130CHL1    O315809   1.870   7.398  12.841 -0.2779  0.3770  0.0296
  130CHL1   H3'15810   1.945   7.340  12.831 -0.1286  0.6840 -0.6533
  130CHL1    C415811   1.965   7.400  13.062 -0.5565  0.2477  0.9643
  130CHL1   H4A15812   2.029   7.320  13.019  1.6957  2.2809  0.3053
  130CHL1   H4B15813   2.013   7.494  13.029 -1.9325  0.5110 -0.4540
  130CHL1    C515814   1.948   7.381  13.211 -0.4908 -0.6005  0.4917
  130CHL1    C615815   1.982   7.474  13.302 -0.3987  0.2969 -0.3834
  130CHL1    H615816   2.030   7.566  13.265 -1.2778  0.3349 -1.4962
  130CHL1    C715817   1.955   7.463  13.443  0.4093  0.1882 -0.8520
  130CHL1   H7A15818   2.033   7.504  13.510  0.8439  0.5174 -1.5374
  130CHL1   H7B15819   1.874   7.534  13.468  0.3264  0.2352 -1.2348
  130CHL1    C815820   1.924   7.323  13.491 -0.2312 -0.0912 -0.2312
  130CHL1    H815821   2.020   7.267  13.499  1.1924  1.5925 -3.5187
  130CHL1   C1415822   1.864   7.324  13.631 -0.8143 -0.3479 -0.7734
  130CHL1   H1415823   1.769   7.380  13.622  0.0038  1.1585 -0.3065
  130CHL1   C1515824   1.948   7.387  13.737 -0.0946  0.9070  0.1520
  130CHL1  H15A15825   2.046   7.335  13.737 -1.5103 -1.9950 -0.4516
  130CHL1  H15B15826   1.955   7.497  13.723  0.9771  0.7177 -0.8773
  130CHL1   C1615827   1.868   7.347  13.864  0.5509 -0.1713  0.2677
  130CHL1  H16A15828   1.945   7.305  13.932 -0.9169 -1.3834  1.2633
  130CHL1  H16B15829   1.828   7.440  13.910 -1.2455 -1.0264  0.5250
  130CHL1   C1715830   1.756   7.237  13.824  0.4352 -0.4079 -0.3529
  130CHL1   H1715831   1.663   7.289  13.790  1.0310  0.5824 -0.5133
  130CHL1   C1315832   1.811   7.193  13.686 -0.5320  0.4460  0.3812
  130CHL1   C1815833   1.930   7.086  13.703  0.9090 -0.4246  0.4096
  130CHL1  H18A15834   1.990   7.116  13.792 -1.8651 -0.3687  2.3706
  130CHL1  H18B15835   1.886   6.989  13.735 -1.4960  0.7780  0.9232
  130CHL1  H18C15836   1.982   7.072  13.605  0.7728 -0.1812  0.3033
  130CHL1   C1215837   1.712   7.129  13.583 -0.3097 -0.0652 -0.6520
  130CHL1  H12A15838   1.681   7.028  13.616 -1.1726 -0.6920 -3.1602
  130CHL1  H12B15839   1.624   7.198  13.585 -0.3062 -0.0683  1.2071
  130CHL1   C1115840   1.773   7.118  13.442  0.5274  1.0341 -0.1711
  130CHL1  H11A15841   1.853   7.041  13.447 -1.5522 -1.1701  2.7298
  130CHL1  H11B15842   1.694   7.071  13.380  1.6105 -1.8575  0.4933
  130CHL1    C915843   1.826   7.257  13.394 -0.2200  0.1222  0.3256
  130CHL1    H915844   1.739   7.326  13.389 -1.8877 -1.8792  0.4943
  130CHL1   C1015845   1.878   7.247  13.251  0.4904  0.1052  0.3357
  130CHL1   C1915846   1.973   7.132  13.240  1.3610 -0.3495 -0.1996
  130CHL1  H19A15847   2.042   7.142  13.326  2.3048 -0.0458 -0.9766
  130CHL1  H19B15848   1.916   7.036  13.244 -0.5857  0.7647  0.3226
  130CHL1  H19C15849   2.037   7.130  13.150 -0.8230  1.1410 -1.8981
  130CHL1    C115850   1.750   7.226  13.156  0.1459  0.5572 -0.1623
  130CHL1   H1A15851   1.715   7.122  13.167 -0.3554  0.7630  0.2102
  130CHL1   H1B15852   1.670   7.295  13.189 -1.6748 -1.4416 -0.2018
  130CHL1    C215853   1.786   7.246  13.002 -0.8716 -0.0253  0.4400
  130CHL1   H2A15854   1.696   7.212  12.946 -0.3915 -1.9502  0.7838
  130CHL1   H2B15855   1.856   7.163  12.978 -0.3045  0.9571 -1.6200
  130CHL1   C2015856   1.717   7.136  13.932 -0.2482 -0.1630 -0.0482
  130CHL1   H2015857   1.800   7.062  13.933 -1.6263 -1.8211 -1.5257
  130CHL1   C2115858   1.589   7.064  13.901 -0.1607  0.3607 -0.4465
  130CHL1  H21A15859   1.563   7.006  13.992 -0.7377  1.6910  0.2459
  130CHL1  H21B15860   1.608   6.986  13.823  3.2126 -0.5356  1.0676
  130CHL1  H21C15861   1.500   7.123  13.872 -0.3029  0.4785  0.2150
  130CHL1   C2215862   1.711   7.200  14.075  0.0043  0.4682  0.3328
  130CHL1  H22A15863   1.685   7.117  14.145  0.0585  0.7510  0.6923
  130CHL1  H22B15864   1.811   7.236  14.107  0.4688 -1.3426  1.0331
  130CHL1   C2315865   1.607   7.309  14.093  0.5197  0.2832 -0.4681
  130CHL1  H23A15866   1.600   7.385  14.012 -2.8841  0.4316 -0.1643
  130CHL1  H23B15867   1.516   7.246  14.089  1.0835 -0.4756 -2.4548
  130CHL1   C2415868   1.606   7.378  14.237  0.4121  0.0757  0.4113
  130CHL1  H24A15869   1.586   7.306  14.319 -0.2132  1.3959  1.4519
  130CHL1  H24B15870   1.708   7.408  14.268  0.3557  0.1879  0.4897
  130CHL1   C2515871   1.518   7.502  14.248 -0.0189  0.7292  0.5258
  130CHL1   H2515872   1.572   7.570  14.178  1.6516 -0.5748  0.4965
  130CHL1   C2615873   1.377   7.465  14.195 -0.4267 -1.0662 -0.2474
  130CHL1  H26A15874   1.305   7.540  14.233  1.9905  1.6727 -0.7330
  130CHL1  H26B15875   1.377   7.446  14.086  1.0296  0.6829 -0.6030
  130CHL1  H26C15876   1.356   7.368  14.244 -1.2151 -1.8987 -2.1578
  130CHL1   C2715877   1.506   7.548  14.398  0.3471  0.0512  0.7862
  130CHL1  H27A15878   1.603   7.600  14.412  0.5042  0.6459 -1.9529
  130CHL1  H27B15879   1.416   7.613  14.402 -1.9985 -2.7452 -1.7686
  130CHL1  H27C15880   1.501   7.459  14.465  1.4802  0.1026  0.9520
  131CHL1    C315881   4.159   4.986  12.973 -0.0974  0.0328  0.2386
  131CHL1    H315882   4.153   4.889  13.026 -0.1428 -0.7170 -1.0842
  131CHL1    O315883   4.176   4.967  12.829  0.0461  0.3306 -0.0304
  131CHL1   H3'15884   4.096   5.006  12.795 -0.4556 -0.5032  0.1604
  131CHL1    C415885   4.032   5.060  12.998 -0.0397  0.1970  0.1061
  131CHL1   H4A15886   4.036   5.154  12.939 -0.9531  0.8969  1.1148
  131CHL1   H4B15887   3.961   4.989  12.950 -0.1207  0.3046  0.0665
  131CHL1    C515888   4.004   5.089  13.143 -0.3879 -0.2337  0.2376
  131CHL1    C615889   3.889   5.049  13.195 -0.7736 -0.2852  0.0792
  131CHL1    H615890   3.823   4.987  13.133  0.4297 -0.1304 -1.4094
  131CHL1    C715891   3.857   5.051  13.344  0.2845 -0.2917  0.1049
  131CHL1   H7A15892   3.750   5.078  13.352  0.5573  0.9422 -0.1892
  131CHL1   H7B15893   3.863   4.943  13.372  0.4734 -0.7996 -1.7275
  131CHL1    C815894   3.954   5.141  13.428  0.2400  0.6317  0.0548
  131CHL1    H815895   3.928   5.248  13.409  0.7346  1.2992  2.7120
  131CHL1   C1415896   3.932   5.097  13.569  0.5595  0.5444  0.2533
  131CHL1   H1415897   3.957   4.989  13.577  1.0510  0.7532  1.8959
  131CHL1   C1515898   3.794   5.122  13.630 -0.2443  0.9696  0.0573
  131CHL1  H15A15899   3.777   5.227  13.597  4.2740  1.8617 -0.0400
  131CHL1  H15B15900   3.717   5.047  13.603  0.4664 -0.2194  1.2505
  131CHL1   C1615901   3.829   5.118  13.783 -0.5982  0.2151  0.2624
  131CHL1  H16A15902   3.787   5.205  13.836  0.3559 -0.6582  2.5677
  131CHL1  H16B15903   3.783   5.028  13.829 -0.6263  0.6252  1.0312
  131CHL1   C1715904   3.987   5.124  13.804 -0.1765 -0.3622 -0.0850
  131CHL1   H1715905   4.017   5.019  13.818  1.1335 -0.0157 -0.1933
  131CHL1   C1315906   4.036   5.167  13.664 -0.9598  0.3755 -0.4849
  131CHL1   C1815907   4.031   5.319  13.656  0.3322  0.5517 -0.1624
  131CHL1  H18A15908   4.109   5.370  13.717 -1.0767  3.3761 -0.5233
  131CHL1  H18B15909   4.048   5.357  13.553  1.9011 -0.6136 -0.3767
  131CHL1  H18C15910   3.941   5.355  13.712  0.6396 -1.9414  2.1405
  131CHL1   C1215911   4.184   5.125  13.619 -0.1937 -0.3237 -0.7241
  131CHL1  H12A15912   4.261   5.173  13.683 -1.5075  1.0710 -0.1263
  131CHL1  H12B15913   4.194   5.014  13.625  0.4150 -0.4531 -3.1826
  131CHL1   C1115914   4.210   5.165  13.470  0.0939  0.0023 -0.0334
  131CHL1  H11A15915   4.217   5.276  13.469 -1.4875  0.1269 -0.7241
  131CHL1  H11B15916   4.312   5.129  13.447  0.5054  2.7645 -3.4786
  131CHL1    C915917   4.099   5.116  13.380  0.2003 -0.9364 -0.7722
  131CHL1    H915918   4.106   5.005  13.384 -1.2567 -1.0030  0.4898
  131CHL1   C1015919   4.116   5.147  13.228 -0.1623 -0.0334 -0.4985
  131CHL1   C1915920   4.122   5.301  13.204 -0.1940 -0.8081 -0.7467
  131CHL1  H19A15921   4.040   5.358  13.252  1.5800  0.3686  1.0234
  131CHL1  H19B15922   4.218   5.345  13.238  0.0304 -0.4139 -1.8400
  131CHL1  H19C15923   4.121   5.321  13.094  1.7593 -2.0452 -1.0499
  131CHL1    C115924   4.252   5.092  13.181 -0.0604  0.8203 -0.4525
  131CHL1   H1A15925   4.336   5.149  13.224  0.9320 -1.4624  0.8616
  131CHL1   H1B15926   4.255   4.988  13.221  0.6293  0.7387 -0.7061
  131CHL1    C215927   4.271   5.064  13.030 -0.0060  0.4431 -0.2918
  131CHL1   H2A15928   4.372   5.019  13.022 -0.1168  0.2983 -0.8597
  131CHL1   H2B15929   4.283   5.163  12.980 -2.0013  1.4843  1.1130
  131CHL1   C2015930   4.032   5.207  13.938  0.1049 -0.1892 -0.0603
  131CHL1   H2015931   3.996   5.308  13.909  2.3206  1.0582  1.3467
  131CHL1   C2115932   4.177   5.207  13.962  0.5492 -0.1432  0.3652
  131CHL1  H21A15933   4.228   5.298  13.926 -0.1906  0.1378  0.0018
  131CHL1  H21B15934   4.213   5.104  13.939  0.2066  0.0078 -0.9064
  131CHL1  H21C15935   4.199   5.225  14.069 -0.4367  0.4783  0.4800
  131CHL1   C2215936   3.951   5.162  14.069  0.1404 -0.5564  0.1939
  131CHL1  H22A15937   3.963   5.247  14.139  2.3084 -0.9912  0.4065
  131CHL1  H22B15938   3.842   5.163  14.046 -0.0175  1.6230  0.8050
  131CHL1   C2315939   3.987   5.022  14.127  0.2431 -0.5806 -0.2829
  131CHL1  H23A15940   3.970   4.948  14.047  0.5160  0.0535 -0.9458
  131CHL1  H23B15941   4.094   5.034  14.155  0.6907 -1.2567 -1.6351
  131CHL1   C2415942   3.910   4.971  14.253 -0.3560 -0.6427  1.1561
  131CHL1  H24A15943   3.880   5.063  14.308 -2.3446 -0.9014  0.5882
  131CHL1  H24B15944   3.819   4.913  14.226  0.4864 -2.1391  1.4449
  131CHL1   C2515945   3.981   4.885  14.355 -0.1901  0.4536  0.2531
  131CHL1   H2515946   4.087   4.916  14.355 -0.0416 -0.0180 -0.6715
  131CHL1   C2615947   3.924   4.891  14.495 -0.0222 -0.3000  0.7115
  131CHL1  H26A15948   3.994   4.830  14.556  0.8932  1.7563  1.7810
  131CHL1  H26B15949   3.917   4.990  14.543  1.5780 -0.8196  2.1225
  131CHL1  H26C15950   3.826   4.840  14.485  0.1926 -0.4784 -0.7394
  131CHL1   C2715951   3.978   4.740  14.309  0.4692 -0.0802  0.0053
  131CHL1  H27A15952   3.876   4.697  14.302 -0.3863  1.9974 -0.9575
  131CHL1  H27B15953   4.022   4.718  14.209 -0.5515 -0.3312 -0.4002
  131CHL1  H27C15954   4.034   4.673  14.377  0.9618 -0.1016 -0.4150
  132CHL1    C315955   2.983   0.229  13.096 -0.3295  0.2886  0.1876
  132CHL1    H315956   3.040   0.138  13.124 -0.1515 -0.2221 -1.6913
  132CHL1    O315957   3.033   0.256  12.965 -0.7493  0.1630 -0.3582
  132CHL1   H3'15958   2.959   0.264  12.905 -1.2179  0.0412  0.2018
  132CHL1    C415959   2.830   0.198  13.089  0.0141 -0.0061  0.3791
  132CHL1   H4A15960   2.785   0.285  13.038  1.3168 -0.9428 -2.5685
  132CHL1   H4B15961   2.807   0.110  13.026 -1.0831  1.1039 -0.8293
  132CHL1    C515962   2.770   0.178  13.229 -0.3722  0.1203 -0.4564
  132CHL1    C615963   2.685   0.079  13.254  0.3487 -0.0233 -0.2420
  132CHL1    H615964   2.645   0.019  13.172 -0.3743 -0.5841  0.5096
  132CHL1    C715965   2.618   0.057  13.387  0.3090 -0.2291 -0.3840
  132CHL1   H7A15966   2.514   0.019  13.377  0.4697 -0.4574 -1.2445
  132CHL1   H7B15967   2.666  -0.028  13.441 -0.1135 -1.1370 -1.3882
  132CHL1    C815968   2.631   0.175  13.484 -0.0173  0.2371 -0.8203
  132CHL1    H815969   2.558   0.254  13.461 -0.4513  0.4602  1.1248
  132CHL1   C1415970   2.599   0.121  13.625 -0.0636  0.6820 -0.2194
  132CHL1   H1415971   2.690   0.059  13.646 -0.6344  0.1597  0.8070
  132CHL1   C1515972   2.476   0.019  13.647 -0.3311 -0.2006 -0.4061
  132CHL1  H15A15973   2.382   0.044  13.593 -1.0390  0.2319  0.9817
  132CHL1  H15B15974   2.511  -0.086  13.632  0.0099 -0.2645  0.7298
  132CHL1   C1615975   2.452   0.029  13.802 -0.3840  0.6661  0.0007
  132CHL1  H16A15976   2.345   0.057  13.814 -1.1092 -1.8832 -0.0756
  132CHL1  H16B15977   2.468  -0.068  13.854  0.1226 -0.2368 -1.7890
  132CHL1   C1715978   2.565   0.126  13.861  0.2544  0.1913 -0.9032
  132CHL1   H1715979   2.655   0.064  13.880  0.1378 -0.4157 -2.2466
  132CHL1   C1315980   2.603   0.220  13.744 -0.1363  0.4083 -0.1057
  132CHL1   C1815981   2.492   0.333  13.723 -0.1812  0.1886 -0.1626
  132CHL1  H18A15982   2.502   0.409  13.804 -0.0972 -0.4096  0.3991
  132CHL1  H18B15983   2.494   0.384  13.624  0.8702 -0.5291 -0.5232
  132CHL1  H18C15984   2.390   0.290  13.733 -0.3088  0.7727  1.4683
  132CHL1   C1215985   2.739   0.291  13.736 -0.0576  1.0633  0.4078
  132CHL1  H12A15986   2.731   0.379  13.803  0.3408  0.7107  0.9209
  132CHL1  H12B15987   2.826   0.229  13.765 -0.2303 -0.2340 -1.6158
  132CHL1   C1115988   2.785   0.335  13.592  0.3931 -0.2678 -0.4292
  132CHL1  H11A15989   2.731   0.425  13.556  0.2920 -0.2598 -0.2531
  132CHL1  H11B15990   2.886   0.382  13.591  0.0974  0.4273 -2.4864
  132CHL1    C915991   2.772   0.232  13.484  0.2350  0.1705 -0.1762
  132CHL1    H915992   2.848   0.153  13.504 -0.6933 -1.6835 -3.2431
  132CHL1   C1015993   2.813   0.282  13.340  0.0293 -0.0431  0.2892
  132CHL1   C1915994   2.739   0.414  13.299  0.2315  0.0526 -0.0859
  132CHL1  H19A15995   2.760   0.446  13.195  0.8349  1.4039  0.4270
  132CHL1  H19B15996   2.629   0.402  13.308  0.2259  0.1084 -0.0816
  132CHL1  H19C15997   2.770   0.501  13.360 -1.5522  1.4468 -1.0584
  132CHL1    C115998   2.969   0.301  13.332  1.2346 -0.5912 -0.5394
  132CHL1   H1A15999   2.992   0.389  13.396  2.0150 -0.0842 -1.4918
  132CHL1   H1B16000   3.020   0.206  13.359  0.3020 -0.8677  0.3321
  132CHL1    C216001   3.020   0.342  13.194  0.1845  0.1096 -0.0011
  132CHL1   H2A16002   3.131   0.346  13.192  0.3365 -1.8253 -2.9012
  132CHL1   H2B16003   2.973   0.436  13.156 -0.3812 -1.0978 -2.4795
  132CHL1   C2016004   2.516   0.193  13.992 -0.2674 -0.3059  0.2677
  132CHL1   H2016005   2.442   0.268  13.955  0.9819 -0.1847 -2.1335
  132CHL1   C2116006   2.629   0.268  14.069  0.6600 -0.1909  0.6081
  132CHL1  H21A16007   2.667   0.343  13.997 -1.3715  0.2139 -0.0978
  132CHL1  H21B16008   2.702   0.194  14.108  0.4492 -0.9538 -0.4278
  132CHL1  H21C16009   2.587   0.317  14.160  0.5763  1.8744 -0.4784
  132CHL1   C2216010   2.431   0.101  14.087  0.5128  0.1322 -0.4622
  132CHL1  H22A16011   2.380   0.168  14.160  0.8755  0.6896 -0.7108
  132CHL1  H22B16012   2.357   0.052  14.020 -0.7119  0.8225  0.3463
  132CHL1   C2316013   2.510   0.006  14.172 -0.4486  0.3817  0.2173
  132CHL1  H23A16014   2.589  -0.050  14.117  0.0658  1.2654  0.0396
  132CHL1  H23B16015   2.567   0.060  14.251 -2.2742  0.3849  1.5948
  132CHL1   C2416016   2.423  -0.090  14.254 -0.1124  1.0008  0.2704
  132CHL1  H24A16017   2.333  -0.111  14.192 -1.7009  1.8466  2.1809
  132CHL1  H24B16018   2.481  -0.181  14.280 -1.6886  0.1529  1.0271
  132CHL1   C2516019   2.358  -0.033  14.380  0.4634  0.5080 -0.2755
  132CHL1   H2516020   2.317   0.068  14.357  0.1647  0.3275 -0.5477
  132CHL1   C2616021   2.232  -0.118  14.415 -0.6514  1.1404 -0.6065
  132CHL1  H26A16022   2.233  -0.147  14.523 -0.7707 -2.2345 -1.4027
  132CHL1  H26B16023   2.138  -0.060  14.406  0.0694  2.6836  1.1894
  132CHL1  H26C16024   2.224  -0.212  14.357  0.5576 -0.1015  1.1362
  132CHL1   C2716025   2.449  -0.031  14.504  0.0481  0.0296 -0.3958
  132CHL1  H27A16026   2.458  -0.139  14.529  0.1451  0.0935 -0.1574
  132CHL1  H27B16027   2.552   0.004  14.486 -0.0939  1.7445  1.6110
  132CHL1  H27C16028   2.401   0.024  14.589 -0.0541  1.8102 -1.5448
  133CHL1    C316029   2.456   3.023  13.006  0.2620 -0.5999  0.3803
  133CHL1    H316030   2.351   2.985  13.001 -0.0342 -0.0877  1.9438
  133CHL1    O316031   2.507   3.048  12.878  0.3699  0.0154 -1.0412
  133CHL1   H3'16032   2.445   3.110  12.839 -1.8343 -2.0356 -1.0167
  133CHL1    C416033   2.453   3.148  13.108 -0.1658 -0.0165  0.3515
  133CHL1   H4A16034   2.554   3.193  13.096 -0.1884 -0.4818 -1.9632
  133CHL1   H4B16035   2.378   3.211  13.055  0.7996 -1.2493 -2.7038
  133CHL1    C516036   2.422   3.117  13.254 -0.5371  0.5986  0.1291
  133CHL1    C616037   2.336   3.194  13.322 -0.2675  0.4542 -0.3407
  133CHL1    H616038   2.297   3.284  13.273 -0.0924  0.8624  0.2460
  133CHL1    C716039   2.301   3.169  13.463 -0.2559  0.3321  0.1581
  133CHL1   H7A16040   2.309   3.265  13.517  0.7085  1.6440 -2.1721
  133CHL1   H7B16041   2.197   3.131  13.464 -0.4772  0.7421 -1.8759
  133CHL1    C816042   2.394   3.070  13.540  0.2557 -0.6803 -0.4805
  133CHL1    H816043   2.487   3.130  13.552 -0.8429  1.3520 -1.6343
  133CHL1   C1416044   2.345   3.026  13.678  0.2182  0.5892 -0.1054
  133CHL1   H1416045   2.267   2.951  13.652  1.7331 -1.0117 -0.1966
  133CHL1   C1516046   2.265   3.130  13.770  0.2732  0.2007  0.5233
  133CHL1  H15A16047   2.315   3.229  13.776  1.3134 -0.3694  1.4840
  133CHL1  H15B16048   2.161   3.146  13.732  0.4467 -0.9818 -0.5235
  133CHL1   C1616049   2.276   3.067  13.901 -0.2034 -0.1511 -0.6576
  133CHL1  H16A16050   2.331   3.140  13.965  0.3302 -2.6385  1.9282
  133CHL1  H16B16051   2.179   3.041  13.950 -0.6097  0.1697 -1.2807
  133CHL1   C1716052   2.365   2.943  13.892 -0.1932  0.0629 -0.7945
  133CHL1   H1716053   2.292   2.863  13.868  0.1660 -1.2120  1.9183
  133CHL1   C1316054   2.448   2.958  13.768 -0.1683  0.1610 -0.2587
  133CHL1   C1816055   2.568   3.051  13.791 -0.1190  0.0769 -0.0071
  133CHL1  H18A16056   2.633   3.080  13.706  0.5992 -0.6587  0.2793
  133CHL1  H18B16057   2.524   3.151  13.811  0.9960  0.6165 -0.1450
  133CHL1  H18C16058   2.637   3.022  13.874 -1.7088  1.2816  1.8146
  133CHL1   C1216059   2.483   2.837  13.689  0.5402  0.0331  0.1518
  133CHL1  H12A16060   2.557   2.771  13.739 -0.1078 -0.2369  0.7719
  133CHL1  H12B16061   2.386   2.784  13.674 -1.8343  4.0733 -0.3081
  133CHL1   C1116062   2.535   2.868  13.538  0.0981 -0.3102 -0.1401
  133CHL1  H11A16063   2.628   2.925  13.559 -0.5147  0.2769  1.1112
  133CHL1  H11B16064   2.560   2.763  13.509 -0.8364 -0.9451  1.2519
  133CHL1    C916065   2.441   2.951  13.451  0.7599  0.7190 -0.2238
  133CHL1    H916066   2.352   2.885  13.440 -1.4161  2.7776  3.0729
  133CHL1   C1016067   2.497   2.992  13.312  0.1404  0.1952  0.5518
  133CHL1   C1916068   2.649   3.038  13.326 -0.8077 -0.9998 -0.3108
  133CHL1  H19A16069   2.664   3.120  13.399  0.6163 -1.7422  0.2600
  133CHL1  H19B16070   2.717   2.954  13.349  1.3380  0.4779 -1.0025
  133CHL1  H19C16071   2.689   3.067  13.227 -0.0593 -0.7324  0.0650
  133CHL1    C116072   2.486   2.879  13.212  0.0120  0.1707  0.2404
  133CHL1   H1A16073   2.546   2.790  13.240 -1.1008 -1.3932 -2.0220
  133CHL1   H1B16074   2.380   2.845  13.213 -0.3143  1.1465  0.4538
  133CHL1    C216075   2.534   2.903  13.061 -0.2422 -0.0056 -0.7512
  133CHL1   H2A16076   2.527   2.817  12.990 -0.6163 -0.4765 -0.1581
  133CHL1   H2B16077   2.643   2.923  13.054 -0.0291 -1.4495 -2.3149
  133CHL1   C2016078   2.432   2.905  14.029  0.5338 -0.2731  0.9975
  133CHL1   H2016079   2.478   2.992  14.080 -0.1343 -0.8759  2.6717
  133CHL1   C2116080   2.516   2.780  14.014  0.7107  0.0084  0.1450
  133CHL1  H21A16081   2.556   2.728  14.104 -1.2777 -3.7464 -0.9109
  133CHL1  H21B16082   2.614   2.799  13.965  1.7191 -1.7446  1.3679
  133CHL1  H21C16083   2.458   2.707  13.954 -0.2577  1.7212 -1.0897
  133CHL1   C2216084   2.318   2.872  14.124  0.8976  0.4366 -0.4060
  133CHL1  H22A16085   2.249   2.959  14.126  1.5524  0.9485 -0.1056
  133CHL1  H22B16086   2.260   2.782  14.093 -0.2173  0.3982  1.6050
  133CHL1   C2316087   2.364   2.851  14.271 -0.8943  0.3577  0.0834
  133CHL1  H23A16088   2.403   2.747  14.275 -2.8789 -0.4132  2.4415
  133CHL1  H23B16089   2.452   2.916  14.289 -0.6618  0.2469 -0.6437
  133CHL1   C2416090   2.255   2.864  14.381  0.2243  0.1315 -0.7663
  133CHL1  H24A16091   2.203   2.959  14.355 -0.2158  0.0903 -0.0672
  133CHL1  H24B16092   2.182   2.781  14.366 -1.2661  0.8767  1.7677
  133CHL1   C2516093   2.298   2.878  14.534 -0.1536  0.6355  0.1963
  133CHL1   H2516094   2.367   2.796  14.566  0.7706  1.2396 -0.1954
  133CHL1   C2616095   2.384   2.996  14.569  0.3606 -0.1241  0.2586
  133CHL1  H26A16096   2.417   2.988  14.675 -0.6527  1.0477  0.6829
  133CHL1  H26B16097   2.467   3.013  14.497 -1.1164  1.4204 -1.1597
  133CHL1  H26C16098   2.326   3.091  14.566 -0.9762 -0.8755  1.4001
  133CHL1   C2716099   2.180   2.886  14.630 -0.0674  0.7181 -0.0918
  133CHL1  H27A16100   2.215   2.863  14.733 -0.2806 -1.6420 -0.4935
  133CHL1  H27B16101   2.125   2.982  14.632 -2.5006 -0.5709 -0.8156
  133CHL1  H27C16102   2.103   2.809  14.609  0.2130 -0.0655  1.5890
  134CHL1    C316103   0.318   3.940  12.944  0.7830 -0.2795 -0.2708
  134CHL1    H316104   0.321   3.842  12.891 -0.1899 -0.4086 -0.1077
  134CHL1    O316105   0.305   4.043  12.856 -0.1641  0.1370 -0.0209
  134CHL1   H3'16106   0.371   4.104  12.891  0.4171  0.2211 -1.2407
  134CHL1    C416107   0.199   3.944  13.042  1.1315  0.0916  0.0405
  134CHL1   H4A16108   0.191   4.043  13.093  0.5960  0.4035 -0.6304
  134CHL1   H4B16109   0.112   3.928  12.974 -0.4242  1.0663  1.7199
  134CHL1    C516110   0.199   3.828  13.144  0.3734  0.2103 -0.3328
  134CHL1    C616111   0.110   3.732  13.162  0.5140 -0.2002  0.7423
  134CHL1    H616112   0.030   3.737  13.086  0.9210  0.3383  0.3519
  134CHL1    C716113   0.096   3.640  13.282 -0.9285 -0.6247  0.8023
  134CHL1   H7A16114  -0.008   3.651  13.320 -1.4021 -1.1539 -0.2968
  134CHL1   H7B16115   0.091   3.533  13.253 -0.4401 -0.9446  1.8677
  134CHL1    C816116   0.212   3.666  13.386  0.1676  0.5966  0.1309
  134CHL1    H816117   0.168   3.738  13.458 -3.9925 -2.9443  1.5436
  134CHL1   C1416118   0.244   3.539  13.462  0.3117 -0.0165 -0.2732
  134CHL1   H1416119   0.279   3.457  13.396 -0.6987  0.1396 -1.0405
  134CHL1   C1516120   0.118   3.474  13.528  0.0475 -0.1076 -0.1684
  134CHL1  H15A16121   0.069   3.556  13.584  0.1356 -0.3229  0.2220
  134CHL1  H15B16122   0.049   3.424  13.456  0.9590 -1.4493 -0.1511
  134CHL1   C1616123   0.182   3.376  13.626  0.0061 -0.3798 -0.1691
  134CHL1  H16A16124   0.131   3.386  13.724  0.6730 -0.7613  0.2230
  134CHL1  H16B16125   0.174   3.269  13.596  1.6615 -1.0931  1.7126
  134CHL1   C1716126   0.336   3.408  13.635 -0.0280  0.3650 -0.0685
  134CHL1   H1716127   0.376   3.327  13.569  0.9229  0.2681  0.6011
  134CHL1   C1316128   0.355   3.547  13.563 -0.4370  0.8336  0.2063
  134CHL1   C1816129   0.331   3.655  13.676 -0.4577 -0.0412 -0.1170
  134CHL1  H18A16130   0.287   3.748  13.635  1.1633  0.9002  0.1724
  134CHL1  H18B16131   0.266   3.630  13.763 -0.6495  1.4680  0.1994
  134CHL1  H18C16132   0.427   3.688  13.721 -1.2388  0.0138  1.5908
  134CHL1   C1216133   0.484   3.571  13.487  0.4887  0.7443  0.0421
  134CHL1  H12A16134   0.571   3.565  13.555 -0.0392 -0.6678  0.6319
  134CHL1  H12B16135   0.505   3.496  13.407  0.4959  0.2338  0.5111
  134CHL1   C1116136   0.469   3.700  13.414 -0.2794  0.1185 -0.0628
  134CHL1  H11A16137   0.468   3.789  13.480  3.8206 -0.0629  0.5239
  134CHL1  H11B16138   0.560   3.713  13.351  1.5463 -0.9457  2.2023
  134CHL1    C916139   0.341   3.710  13.323 -0.0111 -0.1360  1.1874
  134CHL1    H916140   0.360   3.634  13.243 -1.7859  1.0414 -0.4325
  134CHL1   C1016141   0.324   3.841  13.230 -0.3431  0.2967  0.6410
  134CHL1   C1916142   0.315   3.956  13.327  0.2052 -0.0773 -0.4352
  134CHL1  H19A16143   0.302   4.044  13.260  0.5780  0.0255 -0.3723
  134CHL1  H19B16144   0.234   3.960  13.403  1.3330  2.5073  0.7522
  134CHL1  H19C16145   0.418   3.960  13.369  1.3799 -1.8228 -2.9480
  134CHL1    C116146   0.451   3.842  13.133 -0.1178  0.1877  1.1518
  134CHL1   H1A16147   0.548   3.850  13.187  1.4579 -0.0273 -1.4881
  134CHL1   H1B16148   0.456   3.746  13.079  3.1761 -0.0783  1.7238
  134CHL1    C216149   0.444   3.958  13.026 -0.2899 -0.0752 -0.0068
  134CHL1   H2A16150   0.534   3.952  12.961 -1.1246  0.0606 -1.1924
  134CHL1   H2B16151   0.440   4.045  13.096  0.8922 -1.2890  1.6664
  134CHL1   C2016152   0.402   3.382  13.768 -0.3047 -0.5144  0.5183
  134CHL1   H2016153   0.402   3.464  13.844  2.0211  1.2910 -1.2793
  134CHL1   C2116154   0.552   3.364  13.739  0.1298  0.4813 -0.8346
  134CHL1  H21A16155   0.601   3.328  13.831 -0.0410 -2.3441 -1.7538
  134CHL1  H21B16156   0.610   3.453  13.707 -0.1675  0.8346 -0.3911
  134CHL1  H21C16157   0.569   3.295  13.653  0.2274  2.3744 -2.4189
  134CHL1   C2216158   0.343   3.256  13.843  0.0769 -1.1091  1.3495
  134CHL1  H22A16159   0.406   3.251  13.934  1.7342  1.2623  0.4303
  134CHL1  H22B16160   0.242   3.274  13.885  0.6910  1.6945  1.8187
  134CHL1   C2316161   0.356   3.126  13.771  0.7372  0.1156 -0.5460
  134CHL1  H23A16162   0.297   3.120  13.677 -0.1557 -0.5420  0.0406
  134CHL1  H23B16163   0.462   3.110  13.744  1.6955  2.2185  1.5589
  134CHL1   C2416164   0.320   3.005  13.859 -0.0336 -0.2250 -0.2792
  134CHL1  H24A16165   0.346   3.020  13.966 -0.8554 -0.7939  0.0113
  134CHL1  H24B16166   0.209   3.011  13.857 -0.0172  0.3464  0.3766
  134CHL1   C2516167   0.367   2.866  13.806  0.8399 -0.1152  0.7756
  134CHL1   H2516168   0.325   2.856  13.703 -0.0780 -1.8150  1.2744
  134CHL1   C2616169   0.522   2.857  13.800  0.6666 -0.3974  0.2300
  134CHL1  H26A16170   0.562   2.848  13.904  1.7410  1.1206 -0.0258
  134CHL1  H26B16171   0.561   2.777  13.734 -2.0639 -1.5855 -0.0806
  134CHL1  H26C16172   0.557   2.949  13.751 -0.9082  1.5198  2.4674
  134CHL1   C2716173   0.297   2.759  13.882  0.6285  0.3257 -0.1351
  134CHL1  H27A16174   0.191   2.758  13.850 -0.1611 -3.3060  2.0753
  134CHL1  H27B16175   0.343   2.660  13.859  1.1282  0.3386  0.7753
  134CHL1  H27C16176   0.289   2.781  13.990  2.1555  1.5023 -0.2197
  135CHL1    C316177   8.364   2.866  12.777 -0.0969 -0.4258 -0.3373
  135CHL1    H316178   8.428   2.859  12.868 -1.2203  1.3303  0.6512
  135CHL1    O316179   8.440   2.840  12.659  0.5325  0.2347 -0.2359
  135CHL1   H3'16180   8.369   2.824  12.596 -0.1089  0.7519  0.3475
  135CHL1    C416181   8.253   2.762  12.809  0.0907  0.0844 -0.8418
  135CHL1   H4A16182   8.185   2.766  12.722 -2.2709 -0.1144  0.8955
  135CHL1   H4B16183   8.304   2.664  12.808 -0.6498 -0.4419  2.2241
  135CHL1    C516184   8.193   2.791  12.944  0.1114 -0.1372  0.6298
  135CHL1    C616185   8.205   2.699  13.042  0.1464 -0.6810 -0.4066
  135CHL1    H616186   8.254   2.605  13.014  1.4107  0.0739 -0.8169
  135CHL1    C716187   8.137   2.716  13.176 -0.0475 -0.6533 -0.1856
  135CHL1   H7A16188   8.087   2.621  13.205  2.2196 -1.3633  1.7751
  135CHL1   H7B16189   8.210   2.744  13.254  0.0113 -0.9776 -0.1223
  135CHL1    C816190   8.021   2.830  13.172  0.4048  0.4424 -0.0092
  135CHL1    H816191   7.936   2.784  13.117 -0.4213  2.7018 -0.7545
  135CHL1   C1416192   7.972   2.864  13.313 -0.6214  0.8651  0.5703
  135CHL1   H1416193   8.061   2.886  13.376  0.4586 -0.0045 -0.5994
  135CHL1   C1516194   7.902   2.755  13.395 -0.1636 -0.3433  0.2491
  135CHL1  H15A16195   7.833   2.692  13.334 -0.6712  0.5276 -0.0936
  135CHL1  H15B16196   7.973   2.683  13.441  0.5095  0.3930  0.3821
  135CHL1   C1616197   7.828   2.842  13.499 -0.4296  0.5952 -0.8681
  135CHL1  H16A16198   7.728   2.802  13.527  0.1047 -1.0090 -1.2120
  135CHL1  H16B16199   7.875   2.824  13.598  0.6067 -3.4182 -1.9184
  135CHL1   C1716200   7.840   2.991  13.459 -0.0073  1.1812  0.5942
  135CHL1   H1716201   7.923   3.037  13.517  0.2380 -0.1427  1.3559
  135CHL1   C1316202   7.880   2.983  13.317 -0.5638 -0.4240  0.1591
  135CHL1   C1816203   7.756   2.959  13.225 -0.2818 -0.2143  0.1720
  135CHL1  H18A16204   7.687   2.877  13.254 -1.4431  0.0712 -1.6017
  135CHL1  H18B16205   7.698   3.051  13.202 -0.1660 -0.2669 -0.3615
  135CHL1  H18C16206   7.798   2.928  13.127 -0.2100 -0.1278  0.1760
  135CHL1   C1216207   7.956   3.107  13.268 -0.1008  0.3102 -0.0021
  135CHL1  H12A16208   7.902   3.204  13.269 -2.6300 -0.9869 -0.3528
  135CHL1  H12B16209   8.049   3.116  13.328 -0.2350 -0.0751  0.2734
  135CHL1   C1116210   8.007   3.084  13.125 -0.2052 -0.0419 -0.7331
  135CHL1  H11A16211   7.918   3.090  13.059 -1.4655 -2.7063  0.5723
  135CHL1  H11B16212   8.071   3.173  13.104  0.8741 -0.2605  1.3858
  135CHL1    C916213   8.085   2.950  13.109 -0.1628 -0.3376  0.4021
  135CHL1    H916214   8.180   2.963  13.164 -0.3745  2.1963  0.3038
  135CHL1   C1016215   8.128   2.924  12.954  0.8540 -0.6024 -0.1161
  135CHL1   C1916216   8.002   2.922  12.870  0.3155  0.1310 -0.0881
  135CHL1  H19A16217   7.936   2.837  12.897  0.9104 -0.7636 -1.3298
  135CHL1  H19B16218   7.950   3.020  12.879  0.7136  0.2177  1.6110
  135CHL1  H19C16219   8.023   2.910  12.762 -1.0786 -0.8324 -0.2725
  135CHL1    C116220   8.226   3.032  12.906 -0.1212  1.0859 -0.2744
  135CHL1   H1A16221   8.176   3.131  12.914  0.3903  1.4697 -1.6109
  135CHL1   H1B16222   8.308   3.025  12.982  0.8810 -1.0732 -1.4613
  135CHL1    C216223   8.293   3.007  12.772  0.4480 -0.3103 -0.9100
  135CHL1   H2A16224   8.371   3.082  12.745 -0.9371  0.1776 -4.0437
  135CHL1   H2B16225   8.218   3.010  12.689  1.0592 -0.9822 -1.4964
  135CHL1   C2016226   7.716   3.070  13.498 -0.7150  0.2440  0.0272
  135CHL1   H2016227   7.629   3.018  13.453 -1.1206  2.0667 -1.4336
  135CHL1   C2116228   7.709   3.217  13.455  0.0904  0.2484  0.5627
  135CHL1  H21A16229   7.696   3.224  13.345 -0.7573  0.2421  0.6590
  135CHL1  H21B16230   7.806   3.264  13.481 -0.1885  0.4991  1.1717
  135CHL1  H21C16231   7.626   3.273  13.503 -0.5972  0.3907 -0.7247
  135CHL1   C2216232   7.707   3.067  13.655 -0.5429 -1.1076 -0.5477
  135CHL1  H22A16233   7.752   2.976  13.700  0.8772  0.4034  1.2444
  135CHL1  H22B16234   7.760   3.152  13.701 -0.8514 -0.7782 -0.7972
  135CHL1   C2316235   7.555   3.091  13.690 -0.6563 -0.2190  0.0059
  135CHL1  H23A16236   7.531   3.197  13.666  1.2969  0.0367 -1.0371
  135CHL1  H23B16237   7.494   3.020  13.629 -1.3501  0.6946 -0.3785
  135CHL1   C2416238   7.519   3.053  13.833 -0.0763  0.0113 -0.8222
  135CHL1  H24A16239   7.553   2.954  13.871 -1.5083 -0.2487 -0.1659
  135CHL1  H24B16240   7.550   3.139  13.896  1.4078  1.2435 -3.0619
  135CHL1   C2516241   7.366   3.043  13.856 -0.2450  0.4386  0.1133
  135CHL1   H2516242   7.328   2.956  13.798 -0.0558  0.0701  0.5394
  135CHL1   C2616243   7.342   3.017  14.002  0.0989 -0.9705 -0.9000
  135CHL1  H26A16244   7.391   3.093  14.066  0.6655 -1.4699 -0.7390
  135CHL1  H26B16245   7.235   3.012  14.032 -0.8782  2.2753 -3.2329
  135CHL1  H26C16246   7.382   2.920  14.037  0.5629 -0.7372 -0.7819
  135CHL1   C2716247   7.292   3.167  13.816 -0.0153 -0.0160  0.0994
  135CHL1  H27A16248   7.190   3.163  13.860  0.5239  0.4609  1.4369
  135CHL1  H27B16249   7.346   3.256  13.855 -0.3460  1.2549 -2.1272
  135CHL1  H27C16250   7.278   3.187  13.707 -2.1346 -2.4421 -0.1671
  136CHL1    C316251   6.357   7.421  13.284  0.0806  0.5425  0.0079
  136CHL1    H316252   6.289   7.464  13.207  1.0838 -1.0794 -1.8757
  136CHL1    O316253   6.450   7.335  13.217 -0.2991 -0.2121 -0.0429
  136CHL1   H3'16254   6.403   7.319  13.135 -1.3767 -2.1400  0.8726
  136CHL1    C416255   6.431   7.521  13.369 -1.0057 -0.8808 -0.6192
  136CHL1   H4A16256   6.493   7.468  13.444 -2.3062  0.0859  1.2000
  136CHL1   H4B16257   6.499   7.587  13.309 -1.9375  0.0296 -0.6949
  136CHL1    C516258   6.348   7.608  13.455 -0.2542  0.4669 -0.1757
  136CHL1    C616259   6.345   7.742  13.433  0.2554  0.0466  0.1433
  136CHL1    H616260   6.415   7.785  13.360 -0.5246 -0.4870 -0.9256
  136CHL1    C716261   6.265   7.841  13.515  0.0918  0.3333 -0.1060
  136CHL1   H7A16262   6.327   7.923  13.557 -0.8118  0.8503  0.2324
  136CHL1   H7B16263   6.188   7.889  13.452 -2.4088 -1.4090  1.4414
  136CHL1    C816264   6.204   7.772  13.640  0.5870  0.4141 -0.5261
  136CHL1    H816265   6.286   7.754  13.713 -1.9618 -1.7127  2.0840
  136CHL1   C1416266   6.094   7.858  13.708 -0.0183 -0.6982  0.2358
  136CHL1   H1416267   6.013   7.871  13.633  0.7693  0.1394 -0.4970
  136CHL1   C1516268   6.139   7.997  13.755 -0.7604  0.5151 -0.2081
  136CHL1  H15A16269   6.245   7.998  13.787 -0.6965  2.4729 -0.3327
  136CHL1  H15B16270   6.133   8.062  13.665  1.6404 -1.3148 -1.7976
  136CHL1   C1616271   6.031   8.036  13.858  0.2805  0.7485 -0.3322
  136CHL1  H16A16272   6.086   8.073  13.948 -0.7859  0.8066  0.3087
  136CHL1  H16B16273   5.970   8.117  13.811 -1.9565 -1.1740 -0.8980
  136CHL1   C1716274   5.942   7.908  13.876  0.3959 -0.8107 -0.2157
  136CHL1   H1716275   5.859   7.922  13.804  0.1377 -1.0080  0.0389
  136CHL1   C1316276   6.028   7.793  13.823 -0.1856 -0.3639 -0.5860
  136CHL1   C1816277   6.130   7.757  13.936 -0.2482  0.9002  0.7952
  136CHL1  H18A16278   6.181   7.847  13.975  2.3546 -0.1479  0.0504
  136CHL1  H18B16279   6.085   7.689  14.012  0.7619 -1.3762 -0.5476
  136CHL1  H18C16280   6.199   7.681  13.893  1.0108  2.1312  0.5697
  136CHL1   C1216281   5.948   7.669  13.778  0.2665  1.0913  0.8851
  136CHL1  H12A16282   5.912   7.613  13.867 -2.5187  0.8623 -0.2885
  136CHL1  H12B16283   5.865   7.703  13.713  0.2299  0.5089  0.6137
  136CHL1   C1116284   6.052   7.575  13.706 -0.1811  0.5404 -0.0988
  136CHL1  H11A16285   6.108   7.528  13.790 -0.6775  0.1162  0.0051
  136CHL1  H11B16286   5.984   7.500  13.660 -1.6449  1.5462  0.3480
  136CHL1    C916287   6.145   7.635  13.601 -0.2538  1.0059 -0.1734
  136CHL1    H916288   6.075   7.646  13.515 -2.3164 -0.5555  1.1900
  136CHL1   C1016289   6.242   7.530  13.537 -0.5871  0.4607  0.0018
  136CHL1   C1916290   6.311   7.454  13.654  0.0140 -0.0793  0.5297
  136CHL1  H19A16291   6.250   7.368  13.689 -1.2931 -0.4811 -2.4407
  136CHL1  H19B16292   6.400   7.400  13.616  1.1062 -0.0072  2.7969
  136CHL1  H19C16293   6.341   7.531  13.729 -0.5420  0.6094  0.0637
  136CHL1    C116294   6.168   7.416  13.461  0.4996 -0.0456 -0.3831
  136CHL1   H1A16295   6.113   7.349  13.530  0.2898 -0.5804 -1.0592
  136CHL1   H1B16296   6.094   7.447  13.384  1.3878 -0.4108 -1.4121
  136CHL1    C216297   6.264   7.336  13.373 -0.2816 -0.2432 -0.1087
  136CHL1   H2A16298   6.216   7.255  13.314 -0.1615 -0.5359  0.1927
  136CHL1   H2B16299   6.333   7.282  13.441 -1.2427 -0.3108  0.8384
  136CHL1   C2016300   5.865   7.900  14.005 -0.5137 -0.7272 -0.4848
  136CHL1   H2016301   5.930   7.857  14.084  1.1966 -1.4458 -2.2243
  136CHL1   C2116302   5.738   7.816  13.979  0.5434  0.6690  0.2996
  136CHL1  H21A16303   5.751   7.719  13.926  2.2369  1.4333 -0.8111
  136CHL1  H21B16304   5.662   7.869  13.918  0.4872  1.0357  0.6851
  136CHL1  H21C16305   5.701   7.788  14.079  2.9681 -2.0410  0.5771
  136CHL1   C2216306   5.834   8.041  14.056 -0.3310 -0.2250 -0.1710
  136CHL1  H22A16307   5.921   8.108  14.072 -0.0511 -0.6556  0.1393
  136CHL1  H22B16308   5.765   8.084  13.981 -2.3956 -1.5681  0.8657
  136CHL1   C2316309   5.755   8.031  14.185  0.0146 -0.6605  0.1165
  136CHL1  H23A16310   5.663   7.970  14.182  0.2907 -1.0336 -1.2584
  136CHL1  H23B16311   5.820   7.971  14.253  2.9046  1.5837 -0.4541
  136CHL1   C2416312   5.722   8.173  14.238  0.2792 -0.8410 -0.3664
  136CHL1  H24A16313   5.814   8.234  14.253  0.5244 -1.5118  1.0099
  136CHL1  H24B16314   5.655   8.214  14.160 -1.8900  0.4666  2.0370
  136CHL1   C2516315   5.633   8.172  14.370 -0.1868  0.2504  0.0721
  136CHL1   H2516316   5.565   8.085  14.361 -0.9659  0.7659  0.8293
  136CHL1   C2616317   5.722   8.153  14.493 -0.2974  0.5432 -1.0533
  136CHL1  H26A16318   5.663   8.129  14.583 -2.3116 -2.6263 -3.0496
  136CHL1  H26B16319   5.790   8.065  14.485  0.6634  1.3331 -1.9808
  136CHL1  H26C16320   5.792   8.234  14.523 -1.6311  0.8605  1.3927
  136CHL1   C2716321   5.555   8.302  14.373 -0.1006  0.0343 -0.7016
  136CHL1  H27A16322   5.619   8.384  14.412 -0.2003  0.4850 -1.4863
  136CHL1  H27B16323   5.537   8.324  14.266  1.3537 -2.8152 -1.6354
  136CHL1  H27C16324   5.458   8.307  14.427  0.1700 -1.0730 -0.0655
  137CHL1    C316325   2.502   1.328  13.292 -0.2665  0.0335  0.2209
  137CHL1    H316326   2.471   1.426  13.333 -0.1174  0.3970 -0.5265
  137CHL1    O316327   2.622   1.344  13.219 -0.7217  0.8136  0.2901
  137CHL1   H3'16328   2.635   1.259  13.177 -0.6097  2.4330 -3.3065
  137CHL1    C416329   2.512   1.214  13.392  0.2437  0.2235 -0.5512
  137CHL1   H4A16330   2.562   1.128  13.342 -0.4108 -0.5669  0.1293
  137CHL1   H4B16331   2.582   1.236  13.477 -1.4174  1.8433  0.4631
  137CHL1    C516332   2.377   1.181  13.454  0.2520  0.2080 -0.4159
  137CHL1    C616333   2.348   1.188  13.589  0.4056  0.0118 -0.5211
  137CHL1    H616334   2.425   1.211  13.664 -0.5464  2.0596 -0.0747
  137CHL1    C716335   2.213   1.149  13.641  0.0427  0.9163 -0.1428
  137CHL1   H7A16336   2.225   1.082  13.729  1.4598 -0.1746 -1.1142
  137CHL1   H7B16337   2.148   1.235  13.668  1.9239  1.7084  2.2008
  137CHL1    C816338   2.134   1.061  13.539 -0.7626  0.8109 -0.3084
  137CHL1    H816339   2.187   0.966  13.515 -1.8553 -0.0629  0.6027
  137CHL1   C1416340   1.995   1.024  13.591  0.0095 -1.0004 -0.3537
  137CHL1   H1416341   1.950   1.124  13.609  0.8139 -0.7355  0.2610
  137CHL1   C1516342   1.982   0.954  13.732 -0.5363  0.0877  0.6874
  137CHL1  H15A16343   2.053   0.869  13.736  1.3763  1.3683 -2.2869
  137CHL1  H15B16344   1.998   1.026  13.815  1.0122  1.0487 -0.3758
  137CHL1   C1616345   1.839   0.897  13.727 -0.9931  0.5302 -0.3535
  137CHL1  H16A16346   1.851   0.789  13.748 -1.0299 -0.0318 -2.9251
  137CHL1  H16B16347   1.770   0.936  13.805 -1.1615  0.3773 -0.4229
  137CHL1   C1716348   1.776   0.929  13.586  0.5790  0.2011 -0.8531
  137CHL1   H1716349   1.723   1.027  13.583 -2.3771 -1.2997 -1.3748
  137CHL1   C1316350   1.901   0.955  13.491 -0.5076 -1.0306  0.3033
  137CHL1   C1816351   1.968   0.825  13.438  0.0532 -0.1122 -0.3200
  137CHL1  H18A16352   1.917   0.787  13.348 -0.1988  0.7431 -0.5501
  137CHL1  H18B16353   2.069   0.849  13.396 -0.4279  1.2560 -0.7410
  137CHL1  H18C16354   1.974   0.748  13.518  3.0190 -0.5813 -0.8787
  137CHL1   C1216355   1.867   1.056  13.377  0.1523  0.1534 -0.8828
  137CHL1  H12A16356   1.805   0.998  13.306 -0.0445 -2.3601  1.1981
  137CHL1  H12B16357   1.804   1.144  13.402  0.8110  0.4677 -0.2886
  137CHL1   C1116358   2.005   1.094  13.307  0.0484 -0.1085  0.5333
  137CHL1  H11A16359   2.040   1.009  13.245 -0.0149  1.9237 -2.4916
  137CHL1  H11B16360   1.992   1.173  13.230 -0.6593  0.5149  1.2725
  137CHL1    C916361   2.124   1.133  13.402  0.1323  0.4411 -0.4726
  137CHL1    H916362   2.093   1.235  13.431 -0.2896  0.4461 -0.9174
  137CHL1   C1016363   2.271   1.153  13.341  0.0152  0.0843 -0.4063
  137CHL1   C1916364   2.309   1.019  13.273  0.7938 -0.0488 -0.0749
  137CHL1  H19A16365   2.305   0.927  13.335 -1.3775 -1.2293 -1.7869
  137CHL1  H19B16366   2.235   1.007  13.190  1.2209 -1.8841 -0.2330
  137CHL1  H19C16367   2.409   1.024  13.224  1.5029 -1.2500  1.1810
  137CHL1    C116368   2.264   1.264  13.242 -1.1226  0.0037  0.4625
  137CHL1   H1A16369   2.187   1.246  13.165  0.4390 -1.9146 -0.7438
  137CHL1   H1B16370   2.230   1.357  13.293  0.3656  1.3131 -0.8118
  137CHL1    C216371   2.407   1.288  13.180 -0.1195 -0.8852 -0.1655
  137CHL1   H2A16372   2.400   1.376  13.113 -1.7797  2.1116  3.5384
  137CHL1   H2B16373   2.441   1.198  13.124  2.6732  0.4840 -0.8213
  137CHL1   C2016374   1.660   0.835  13.543  0.3628  0.4833  0.4408
  137CHL1   H2016375   1.639   0.850  13.435  0.5163 -1.2423  0.1315
  137CHL1   C2116376   1.525   0.877  13.613 -0.2236 -0.0003 -0.0272
  137CHL1  H21A16377   1.521   0.858  13.722 -1.1888  0.9858  0.1213
  137CHL1  H21B16378   1.435   0.827  13.571 -1.7918  1.8923  0.9119
  137CHL1  H21C16379   1.496   0.984  13.600  0.0703  0.2642  1.3582
  137CHL1   C2216380   1.680   0.683  13.553 -0.5974 -0.3751  0.1426
  137CHL1  H22A16381   1.769   0.654  13.492 -0.2187  1.9043 -0.4984
  137CHL1  H22B16382   1.699   0.655  13.658  0.5402 -2.7183 -0.6138
  137CHL1   C2316383   1.551   0.609  13.512  0.4679  0.1331 -0.5508
  137CHL1  H23A16384   1.466   0.638  13.578 -1.1916 -2.2198 -1.5284
  137CHL1  H23B16385   1.524   0.639  13.409 -0.8535 -1.5549 -0.7267
  137CHL1   C2416386   1.571   0.453  13.519 -0.5932  0.2787  0.1156
  137CHL1  H24A16387   1.656   0.424  13.454 -3.2289 -2.2453 -2.4875
  137CHL1  H24B16388   1.592   0.424  13.625  2.1127 -3.1579 -1.1363
  137CHL1   C2516389   1.452   0.363  13.473 -0.0311 -0.0710  0.8638
  137CHL1   H2516390   1.361   0.386  13.531 -0.3535  0.0810  0.3078
  137CHL1   C2616391   1.414   0.373  13.326 -0.1363  0.0809  0.3547
  137CHL1  H26A16392   1.495   0.382  13.251 -2.2534  0.7477 -2.0170
  137CHL1  H26B16393   1.342   0.295  13.294  0.0391 -0.0365  0.2471
  137CHL1  H26C16394   1.364   0.472  13.312  1.2158  0.5271 -1.8828
  137CHL1   C2716395   1.488   0.219  13.505 -0.4144  0.1123 -0.1195
  137CHL1  H27A16396   1.509   0.212  13.613  0.3871  0.7860 -0.2263
  137CHL1  H27B16397   1.406   0.148  13.480 -1.3304  0.5837  1.4586
  137CHL1  H27C16398   1.579   0.185  13.451 -0.4110 -1.3894  0.7778
  138CHL1    C316399   7.011   0.088  12.915  0.5712  0.0759  0.4466
  138CHL1    H316400   6.950   0.170  12.872  0.8960  0.7052  1.1515
  138CHL1    O316401   7.109   0.039  12.832 -0.0597  0.5783  0.1730
  138CHL1   H3'16402   7.081  -0.053  12.835 -1.4046  0.9173 -0.9397
  138CHL1    C416403   7.095   0.145  13.037 -0.6277  0.0327  0.3711
  138CHL1   H4A16404   7.154   0.055  13.066 -1.4025 -0.8230 -0.6405
  138CHL1   H4B16405   7.160   0.225  12.996 -0.9112  0.6202  1.0400
  138CHL1    C516406   7.009   0.187  13.156 -0.0556  0.2597  0.1606
  138CHL1    C616407   7.022   0.312  13.201  0.1548  0.6317 -0.5434
  138CHL1    H616408   7.101   0.371  13.152  1.2373 -0.7060 -0.4684
  138CHL1    C716409   6.945   0.370  13.320 -0.2636 -0.3009  0.4676
  138CHL1   H7A16410   7.021   0.410  13.391 -0.9536 -0.8195  1.5251
  138CHL1   H7B16411   6.876   0.453  13.293 -0.3534 -0.8341 -1.0400
  138CHL1    C816412   6.856   0.260  13.383 -0.8273  0.5560 -0.8527
  138CHL1    H816413   6.927   0.196  13.441 -1.2630 -0.3348 -1.2908
  138CHL1   C1416414   6.756   0.327  13.475  0.3534 -0.6377  0.5160
  138CHL1   H1416415   6.693   0.389  13.407  1.6363 -2.2861 -2.3885
  138CHL1   C1516416   6.808   0.422  13.581  0.0680 -0.2760  0.0565
  138CHL1  H15A16417   6.899   0.375  13.625 -0.4456 -1.6652 -0.3030
  138CHL1  H15B16418   6.830   0.520  13.534  0.5184  1.2823  3.2611
  138CHL1   C1616419   6.694   0.438  13.682 -0.2442  0.4740  0.0583
  138CHL1  H16A16420   6.737   0.409  13.780 -0.7962  0.4931  0.3048
  138CHL1  H16B16421   6.655   0.541  13.673 -0.1147  0.3797 -2.4244
  138CHL1   C1716422   6.590   0.330  13.644 -0.2814 -0.1579 -0.3423
  138CHL1   H1716423   6.517   0.381  13.578  1.6405 -1.7177 -3.9261
  138CHL1   C1316424   6.666   0.227  13.554  0.0575 -0.7058 -0.9611
  138CHL1   C1816425   6.749   0.133  13.644 -0.1786 -0.2310 -0.4102
  138CHL1  H18A16426   6.828   0.078  13.588  0.2889  0.6516 -0.6384
  138CHL1  H18B16427   6.813   0.189  13.716  0.7864 -0.6065 -0.9463
  138CHL1  H18C16428   6.683   0.065  13.702  0.0722  0.2418  0.4582
  138CHL1   C1216429   6.583   0.168  13.440  0.2688  0.1110  0.2805
  138CHL1  H12A16430   6.506   0.098  13.479 -0.3292  0.3104 -0.5123
  138CHL1  H12B16431   6.532   0.243  13.376  0.2828  0.3276  0.5230
  138CHL1   C1116432   6.671   0.086  13.337  0.2166 -0.7087  0.2671
  138CHL1  H11A16433   6.703  -0.006  13.392  1.6574 -0.3170  0.1160
  138CHL1  H11B16434   6.610   0.060  13.248  1.2860  0.8559 -0.9709
  138CHL1    C916435   6.792   0.167  13.285 -0.0002  0.8030 -0.0915
  138CHL1    H916436   6.760   0.248  13.217  0.7053  0.8720 -0.3551
  138CHL1   C1016437   6.901   0.085  13.198 -0.1121 -0.4137 -0.4371
  138CHL1   C1916438   6.962  -0.025  13.292 -0.2787  0.2349 -0.4658
  138CHL1  H19A16439   7.036  -0.085  13.235  2.0501  1.5828  0.9878
  138CHL1  H19B16440   7.012   0.026  13.377  3.3111  0.3241 -2.4805
  138CHL1  H19C16441   6.887  -0.099  13.329  1.1859 -0.6937  0.7860
  138CHL1    C116442   6.831   0.013  13.080  0.1072 -0.4183 -0.4913
  138CHL1   H1A16443   6.766  -0.068  13.119  0.2290 -0.4606 -0.3729
  138CHL1   H1B16444   6.763   0.083  13.027  0.6087 -1.6857 -2.9483
  138CHL1    C216445   6.930  -0.030  12.972  0.0849  0.0114 -0.0781
  138CHL1   H2A16446   6.862  -0.070  12.894 -1.1020 -1.1331  1.4764
  138CHL1   H2B16447   7.007  -0.102  13.006  1.2100  1.2962  0.2032
  138CHL1   C2016448   6.525   0.277  13.778  0.0235  0.8069  0.6289
  138CHL1   H2016449   6.614   0.238  13.832  2.5949  4.3627 -0.6931
  138CHL1   C2116450   6.422   0.165  13.747  0.4796  0.6133 -0.1717
  138CHL1  H21A16451   6.345   0.210  13.682  0.8159  0.5724 -0.6047
  138CHL1  H21B16452   6.371   0.128  13.838  0.2573 -0.0571 -0.5619
  138CHL1  H21C16453   6.467   0.087  13.683 -1.6391  0.7477 -1.9078
  138CHL1   C2216454   6.450   0.382  13.861 -0.0688 -0.2311 -0.0578
  138CHL1  H22A16455   6.522   0.462  13.886 -0.7261  0.3141  0.1176
  138CHL1  H22B16456   6.362   0.411  13.799 -0.8952 -1.5262  0.4448
  138CHL1   C2316457   6.400   0.338  14.000 -0.0660  0.3332 -0.2898
  138CHL1  H23A16458   6.315   0.267  13.989 -2.2787  2.8988 -0.6637
  138CHL1  H23B16459   6.488   0.297  14.054 -0.5189 -2.5503 -1.5317
  138CHL1   C2416460   6.348   0.459  14.078  0.5328  0.2882 -0.9835
  138CHL1  H24A16461   6.425   0.539  14.090 -0.1286  0.5337  2.8178
  138CHL1  H24B16462   6.257   0.492  14.023  0.2793  0.3873 -0.5101
  138CHL1   C2516463   6.313   0.428  14.227  0.7368 -0.1089 -0.5886
  138CHL1   H2516464   6.263   0.522  14.260 -0.3400 -0.2574 -1.6916
  138CHL1   C2616465   6.209   0.319  14.238  0.1057 -0.4943 -0.6166
  138CHL1  H26A16466   6.253   0.227  14.195  0.4869 -1.4668  1.7048
  138CHL1  H26B16467   6.166   0.298  14.338 -1.5752 -0.9841 -1.4069
  138CHL1  H26C16468   6.107   0.341  14.198 -2.1105 -4.0556  2.3775
  138CHL1   C2716469   6.431   0.394  14.314 -0.2258 -1.1184 -0.0099
  138CHL1  H27A16470   6.494   0.485  14.312 -0.5364 -0.8930  0.3281
  138CHL1  H27B16471   6.402   0.362  14.417  0.9931 -0.3112  0.6098
  138CHL1  H27C16472   6.491   0.311  14.271  0.8022  1.5893 -4.4236
  139CHL1    C316473   1.000   6.631  12.834  0.3179 -0.3797  0.1429
  139CHL1    H316474   0.897   6.632  12.791 -0.3745  0.7510  1.7436
  139CHL1    O316475   1.066   6.557  12.740  0.0447 -0.0890  0.4682
  139CHL1   H3'16476   1.149   6.534  12.782  0.4199 -2.7121 -1.4452
  139CHL1    C416477   1.062   6.769  12.846 -0.5433 -0.4459 -1.1221
  139CHL1   H4A16478   1.168   6.760  12.879 -0.5722  2.2339 -0.0262
  139CHL1   H4B16479   1.060   6.815  12.745  0.9217  3.0678  0.2554
  139CHL1    C516480   0.987   6.852  12.947  0.4180 -0.5275  0.0519
  139CHL1    C616481   0.926   6.968  12.919 -0.1656 -0.2802 -0.1077
  139CHL1    H616482   0.922   7.002  12.815 -0.8199 -2.9625 -1.0599
  139CHL1    C716483   0.849   7.050  13.018 -0.0904  0.0188 -0.2914
  139CHL1   H7A16484   0.860   7.160  13.004 -1.4270  0.4528  1.7083
  139CHL1   H7B16485   0.743   7.024  13.003 -0.1013  0.0099 -0.1982
  139CHL1    C816486   0.883   7.019  13.163  0.0780  0.9039  0.3214
  139CHL1    H816487   0.985   7.058  13.182  0.1176  1.0413 -0.1695
  139CHL1   C1416488   0.783   7.086  13.253 -0.0079 -0.9964 -0.1696
  139CHL1   H1416489   0.687   7.036  13.228  1.6663 -4.2466 -0.6097
  139CHL1   C1516490   0.756   7.236  13.234  0.1321 -0.2746  0.1281
  139CHL1  H15A16491   0.848   7.297  13.243  2.2531 -3.1210 -0.9210
  139CHL1  H15B16492   0.704   7.262  13.140  1.6200  1.2990 -0.3147
  139CHL1   C1616493   0.659   7.263  13.351  0.0367 -0.1025 -0.2204
  139CHL1  H16A16494   0.698   7.357  13.395  0.1389  0.1196 -0.7818
  139CHL1  H16B16495   0.553   7.281  13.324 -0.5614  0.3972  2.2292
  139CHL1   C1716496   0.666   7.139  13.456  0.3947 -0.1678  0.1859
  139CHL1   H1716497   0.577   7.075  13.439  1.2065 -1.9161  2.0671
  139CHL1   C1316498   0.797   7.063  13.404  0.5822 -0.3559 -0.2948
  139CHL1   C1816499   0.932   7.133  13.456 -0.2086  0.1824  0.6730
  139CHL1  H18A16500   0.943   7.238  13.420  1.6936  0.0339  0.7420
  139CHL1  H18B16501   0.938   7.127  13.566  2.2970  0.7360  0.6204
  139CHL1  H18C16502   1.016   7.077  13.410 -0.9411 -1.1591  0.9094
  139CHL1   C1216503   0.805   6.905  13.423 -0.4484 -0.0551 -0.0138
  139CHL1  H12A16504   0.806   6.880  13.531 -0.0072  1.2205  0.2861
  139CHL1  H12B16505   0.704   6.867  13.396 -0.0117 -1.4003  0.1536
  139CHL1   C1116506   0.916   6.840  13.339  0.5089  0.1933  0.1872
  139CHL1  H11A16507   1.013   6.888  13.362  1.2929 -0.8211 -0.9070
  139CHL1  H11B16508   0.926   6.732  13.361 -0.0423  0.2243  0.6039
  139CHL1    C916509   0.887   6.864  13.184  0.0752 -0.4064 -0.9490
  139CHL1    H916510   0.785   6.827  13.160  0.4812 -0.8973 -1.9630
  139CHL1   C1016511   0.986   6.794  13.088  0.0603 -0.2600 -0.4819
  139CHL1   C1916512   1.123   6.786  13.162 -0.2034  0.2974 -0.5359
  139CHL1  H19A16513   1.119   6.721  13.252  1.6959  1.7654  0.6499
  139CHL1  H19B16514   1.197   6.740  13.093 -2.6870 -1.8394 -2.0213
  139CHL1  H19C16515   1.149   6.887  13.197  0.1878 -0.7818  2.5723
  139CHL1    C116516   0.929   6.648  13.076 -0.0514 -0.3719  0.7035
  139CHL1   H1A16517   0.960   6.603  13.173  1.5734 -0.1510  0.3222
  139CHL1   H1B16518   0.818   6.646  13.069  0.0453 -1.7152 -0.9267
  139CHL1    C216519   0.998   6.558  12.970 -0.3137 -0.1286 -0.0360
  139CHL1   H2A16520   0.945   6.460  12.970 -1.1570  0.2991  1.7524
  139CHL1   H2B16521   1.105   6.539  12.993  0.1216  0.7879 -1.1921
  139CHL1   C2016522   0.661   7.191  13.602 -0.1654 -0.8707  0.6380
  139CHL1   H2016523   0.740   7.269  13.614 -2.3345  1.0011  5.0121
  139CHL1   C2116524   0.689   7.080  13.704  1.1914 -0.4513 -0.3642
  139CHL1  H21A16525   0.697   7.129  13.804 -0.7325  0.8127 -0.7611
  139CHL1  H21B16526   0.786   7.032  13.682  0.2431 -1.4629 -2.6346
  139CHL1  H21C16527   0.612   7.002  13.716  0.7807  0.0944  0.6830
  139CHL1   C2216528   0.530   7.266  13.632  0.1967  0.4196  0.1160
  139CHL1  H22A16529   0.496   7.333  13.550 -0.1022 -0.7372 -0.7257
  139CHL1  H22B16530   0.451   7.187  13.636  1.7265 -1.1761  0.2018
  139CHL1   C2316531   0.515   7.355  13.761  0.1108 -0.3470  0.2426
  139CHL1  H23A16532   0.561   7.299  13.845  0.5864 -0.9516 -0.4116
  139CHL1  H23B16533   0.573   7.449  13.747  0.1173 -0.4522 -0.4749
  139CHL1   C2416534   0.364   7.383  13.791  0.0455 -0.8361  0.7003
  139CHL1  H24A16535   0.330   7.406  13.688 -1.1745 -0.0001  1.2681
  139CHL1  H24B16536   0.323   7.284  13.823  2.9564 -1.7423  1.9897
  139CHL1   C2516537   0.336   7.489  13.894 -0.1138 -0.5533  0.5703
  139CHL1   H2516538   0.385   7.580  13.853 -0.4635 -0.8278 -0.4639
  139CHL1   C2616539   0.187   7.512  13.912 -0.7613 -0.1668  0.1444
  139CHL1  H26A16540   0.151   7.426  13.971  2.2563 -0.9776  0.9901
  139CHL1  H26B16541   0.160   7.604  13.968 -2.8024  0.3406 -1.5695
  139CHL1  H26C16542   0.128   7.527  13.819 -0.9877  1.8647  0.5666
  139CHL1   C2716543   0.390   7.455  14.033 -0.5465  0.4593 -0.0831
  139CHL1  H27A16544   0.351   7.355  14.063  0.3349 -0.0450 -0.5800
  139CHL1  H27B16545   0.500   7.448  14.023 -0.6599  0.6734 -1.6323
  139CHL1  H27C16546   0.367   7.528  14.114 -0.4306 -1.4024  1.7394
  140CHL1    C316547   7.038   7.911  13.091 -0.1900  0.4030 -0.1238
  140CHL1    H316548   7.134   7.964  13.105  0.3194 -0.0383 -1.7269
  140CHL1    O316549   7.016   7.876  12.955 -0.0239  0.4435  0.5732
  140CHL1   H3'16550   7.086   7.816  12.929 -0.0172  1.2452 -1.5278
  140CHL1    C416551   7.032   7.785  13.174  0.3461  0.4275 -1.1361
  140CHL1   H4A16552   6.934   7.736  13.152  0.6109 -0.1211 -1.1003
  140CHL1   H4B16553   7.110   7.716  13.136 -0.1377 -0.9480  0.2684
  140CHL1    C516554   7.052   7.825  13.320 -0.3740 -0.3453  0.4355
  140CHL1    C616555   7.146   7.773  13.396 -0.0094  0.4069  0.1457
  140CHL1    H616556   7.204   7.693  13.348  0.0452  0.6235 -0.1484
  140CHL1    C716557   7.169   7.787  13.540  0.0382  0.2227 -0.5530
  140CHL1   H7A16558   7.162   7.686  13.587  0.4691 -1.3577 -3.5953
  140CHL1   H7B16559   7.273   7.819  13.564  0.0656 -0.1732 -0.1284
  140CHL1    C816560   7.071   7.886  13.608 -0.3925  0.5662  0.2614
  140CHL1    H816561   6.986   7.826  13.648  1.1633 -0.3211  2.3710
  140CHL1   C1416562   7.131   7.951  13.737  0.0313  0.1284  0.4067
  140CHL1   H1416563   7.215   8.008  13.694 -0.0201  0.5193  0.8147
  140CHL1   C1516564   7.192   7.869  13.848  0.2737  0.1149  0.1172
  140CHL1  H15A16565   7.117   7.799  13.891  2.2208 -2.2763 -0.1720
  140CHL1  H15B16566   7.270   7.804  13.804 -0.6290  0.4190 -2.0674
  140CHL1   C1616567   7.231   7.973  13.946  0.2815 -0.4216 -0.1198
  140CHL1  H16A16568   7.204   7.931  14.045  0.2333  1.6947  0.8226
  140CHL1  H16B16569   7.340   7.995  13.944 -0.0708  1.6922  0.8535
  140CHL1   C1716570   7.160   8.103  13.914 -0.1023 -0.0243 -0.0348
  140CHL1   H1716571   7.235   8.166  13.861  0.1855 -0.0311  0.3607
  140CHL1   C1316572   7.047   8.057  13.810  0.4218 -0.1159 -0.6142
  140CHL1   C1816573   6.911   8.014  13.884 -0.3174  0.0753  0.5203
  140CHL1  H18A16574   6.845   7.958  13.814 -0.8404 -0.5339  1.4801
  140CHL1  H18B16575   6.938   7.947  13.968  2.2873 -0.4158 -0.6096
  140CHL1  H18C16576   6.852   8.102  13.918 -2.0017 -0.1914 -1.4770
  140CHL1   C1216577   7.012   8.168  13.706  0.0078  0.6362  0.6773
  140CHL1  H12A16578   6.934   8.239  13.742 -0.1926  1.0536 -0.5119
  140CHL1  H12B16579   7.105   8.224  13.682  0.4475 -0.4682 -0.2771
  140CHL1   C1116580   6.950   8.113  13.577 -0.0033 -0.8856 -1.0803
  140CHL1  H11A16581   6.850   8.080  13.612 -0.2441  2.2828  1.7286
  140CHL1  H11B16582   6.923   8.198  13.510  0.5497 -0.6488 -1.0081
  140CHL1    C916583   7.026   7.993  13.509 -0.5846  0.5412 -0.8894
  140CHL1    H916584   7.118   8.050  13.485 -2.2393  3.4734 -0.7584
  140CHL1   C1016585   6.962   7.937  13.383 -0.4444 -0.0962  0.3124
  140CHL1   C1916586   6.825   7.883  13.423  0.0691  0.1511  0.4753
  140CHL1  H19A16587   6.775   7.846  13.331  2.5477 -2.0427 -0.1184
  140CHL1  H19B16588   6.844   7.795  13.487  0.2264 -2.4845 -2.9136
  140CHL1  H19C16589   6.757   7.953  13.476 -0.9029  0.1705 -0.7639
  140CHL1    C116590   6.948   8.049  13.276 -0.2725  0.5660 -0.5471
  140CHL1   H1A16591   6.861   8.112  13.303  0.5624  1.0440  1.1975
  140CHL1   H1B16592   7.047   8.101  13.282  0.6996 -1.0782 -1.5912
  140CHL1    C216593   6.926   8.001  13.130 -0.3116 -0.1070  0.2970
  140CHL1   H2A16594   6.928   8.082  13.053 -0.6033 -1.2512 -0.9546
  140CHL1   H2B16595   6.830   7.947  13.123 -0.3266  0.0592 -1.1120
  140CHL1   C2016596   7.117   8.198  14.026  0.1273  0.2798 -0.1144
  140CHL1   H2016597   7.209   8.235  14.077  0.0323  2.3521 -1.3868
  140CHL1   C2116598   7.034   8.139  14.148  0.0258 -0.4227 -0.3582
  140CHL1  H21A16599   6.929   8.175  14.150  0.7891  2.0081 -0.2118
  140CHL1  H21B16600   7.065   8.184  14.245  0.3731  1.5129 -1.3114
  140CHL1  H21C16601   7.049   8.029  14.147  3.2577 -0.0974 -0.0488
  140CHL1   C2216602   7.052   8.332  13.986  0.2619 -0.0065 -0.1411
  140CHL1  H22A16603   7.121   8.383  13.915  0.6006 -4.1382 -3.1508
  140CHL1  H22B16604   6.961   8.303  13.929  0.8183 -1.9572 -0.1148
  140CHL1   C2316605   7.014   8.427  14.099  0.0597 -0.3303 -0.4984
  140CHL1  H23A16606   6.962   8.390  14.190  0.3672  0.0864 -0.1521
  140CHL1  H23B16607   7.110   8.466  14.138 -0.5172  0.8985 -0.2892
  140CHL1   C2416608   6.940   8.553  14.054  0.1320 -0.1763  0.5588
  140CHL1  H24A16609   7.009   8.609  13.988 -2.3946  1.8764 -0.4925
  140CHL1  H24B16610   6.856   8.513  13.993 -1.4837  2.5896  0.7835
  140CHL1   C2516611   6.885   8.649  14.163 -0.0687  0.4789 -0.2480
  140CHL1   H2516612   6.864   8.581  14.248 -0.3275 -0.0976 -0.7620
  140CHL1   C2616613   6.765   8.727  14.132  0.1599  0.3148  0.5183
  140CHL1  H26A16614   6.781   8.806  14.056  1.8014  1.0159  1.5255
  140CHL1  H26B16615   6.688   8.656  14.095 -0.4760  0.6063  1.2481
  140CHL1  H26C16616   6.725   8.783  14.219  2.5236 -0.9424  2.5389
  140CHL1   C2716617   6.996   8.745  14.206 -0.4198  0.5638  0.5506
  140CHL1  H27A16618   7.031   8.790  14.110  0.5808 -1.6454 -0.1875
  140CHL1  H27B16619   6.964   8.821  14.280  0.8468  0.0256  1.6882
  140CHL1  H27C16620   7.084   8.688  14.243 -0.0701  1.1810  0.6966
  141DOPC     N16621   5.258   2.848  16.209  1.0361  0.1993 -0.1234
  141DOPC   C1216622   5.113   2.816  16.206 -0.0477  0.5194  0.4409
  141DOPC  H12A16623   5.055   2.905  16.182 -0.5473 -0.6683 -3.4879
  141DOPC  H12B16624   5.091   2.798  16.310  1.3439  0.7266  0.7856
  141DOPC   C1316625   5.312   2.906  16.080 -0.1367 -0.1122  0.6015
  141DOPC  H13A16626   5.279   3.008  16.065 -0.9355 -0.3272  0.8183
  141DOPC  H13B16627   5.419   2.896  16.074 -0.1793 -2.4040  2.2037
  141DOPC  H13C16628   5.271   2.845  16.000 -0.0669  0.1779  0.3384
  141DOPC   C1416629   5.334   2.724  16.244  0.8495 -0.2261  0.4678
  141DOPC  H14A16630   5.323   2.645  16.171 -1.6192 -1.4331  2.0021
  141DOPC  H14B16631   5.434   2.750  16.274 -0.0028  2.9564  0.9283
  141DOPC  H14C16632   5.278   2.677  16.324 -2.2166  1.1195 -0.7297
  141DOPC   C1516633   5.282   2.949  16.312 -0.5327  0.7906  0.0347
  141DOPC  H15A16634   5.221   3.037  16.298  0.2430  1.3196 -0.1375
  141DOPC  H15B16635   5.384   2.983  16.304 -0.7320  1.2981 -0.3544
  141DOPC  H15C16636   5.261   2.909  16.410 -1.4003 -0.0413 -0.4766
  141DOPC   C1116637   5.070   2.699  16.116 -0.2330  0.6722 -0.1492
  141DOPC  H11A16638   5.122   2.607  16.149 -1.7516  0.2662  1.2790
  141DOPC  H11B16639   4.964   2.677  16.141  0.3280 -2.3431 -0.1030
  141DOPC     P16640   5.032   2.641  15.864  0.1627 -0.3156  0.1326
  141DOPC   O1316641   4.896   2.684  15.829 -0.3800  0.5351 -0.3293
  141DOPC   O1416642   5.055   2.502  15.908  0.2316 -0.4302  0.1785
  141DOPC   O1216643   5.095   2.731  15.980  0.1143  0.1079 -0.8689
  141DOPC   O1116644   5.129   2.675  15.745 -0.3562  0.2120 -0.4039
  141DOPC    C116645   5.272   2.659  15.741 -0.3313 -0.0233  0.2177
  141DOPC    HA16646   5.302   2.597  15.828 -4.5273 -0.6123  1.4935
  141DOPC    HB16647   5.313   2.762  15.746  0.2963 -0.1324 -2.0045
  141DOPC    C216648   5.337   2.589  15.617 -0.2690 -0.5929 -0.9508
  141DOPC    HS16649   5.447   2.594  15.636 -0.7882  0.5453  2.3421
  141DOPC   O2116650   5.300   2.662  15.498  0.1755 -0.1010 -0.1577
  141DOPC   C2116651   5.397   2.662  15.402 -0.2179 -0.3120  0.2940
  141DOPC   O2216652   5.513   2.641  15.415 -0.5194 -0.7116 -0.5372
  141DOPC   C2216653   5.326   2.696  15.273 -0.6911  0.3002  0.2753
  141DOPC   H2R16654   5.231   2.639  15.263 -0.2358 -1.4162  3.9828
  141DOPC   H2S16655   5.393   2.665  15.189 -1.1455 -1.1071  0.4056
  141DOPC    C316656   5.311   2.433  15.602  0.0824 -0.3827  0.3060
  141DOPC    HX16657   5.202   2.422  15.585  0.1426 -0.2716 -0.1511
  141DOPC    HY16658   5.327   2.379  15.698  2.2514 -0.7035 -0.1785
  141DOPC   O3116659   5.391   2.373  15.497 -0.1634  0.6303  0.5086
  141DOPC   C3116660   5.505   2.318  15.534 -0.1448  0.1991  0.5467
  141DOPC   O3216661   5.557   2.321  15.646 -0.2350 -0.8208  0.1656
  141DOPC   C3216662   5.571   2.253  15.418  0.3697  1.0664  0.1417
  141DOPC   H2X16663   5.497   2.197  15.358  1.7034 -1.9130  1.0806
  141DOPC   H2Y16664   5.604   2.331  15.346 -1.0184 -0.3469 -2.1558
  141DOPC   C2316665   5.294   2.846  15.265  0.2735 -0.2858 -0.1186
  141DOPC   H3R16666   5.371   2.911  15.313 -1.9801  1.1290  1.8351
  141DOPC   H3S16667   5.198   2.862  15.319 -0.4979 -0.8608 -1.2948
  141DOPC   C2416668   5.278   2.906  15.119 -1.0517  0.5247 -0.2430
  141DOPC   H4R16669   5.364   2.882  15.053  0.4287  0.7085  1.5378
  141DOPC   H4S16670   5.276   3.017  15.133  0.3224  0.3156  2.1100
  141DOPC   C2516671   5.150   2.853  15.052 -0.5060  0.8012  0.3317
  141DOPC   H5R16672   5.063   2.859  15.121 -2.9888  1.2314 -2.6220
  141DOPC   H5S16673   5.162   2.745  15.032  0.6807  1.1281 -0.9880
  141DOPC   C2616674   5.108   2.929  14.916  0.9064  1.0456 -0.2239
  141DOPC   H6R16675   5.018   2.877  14.877  3.0546 -3.5721  0.2651
  141DOPC   H6S16676   5.191   2.918  14.844  1.4082 -0.9570  0.5848
  141DOPC   C2716677   5.075   3.077  14.955  0.5531  0.5405 -0.6838
  141DOPC   H7R16678   5.173   3.124  14.979  0.1086  0.8258  0.6873
  141DOPC   H7S16679   5.012   3.087  15.046  0.6404  0.9561 -0.6669
  141DOPC   C2816680   5.011   3.164  14.843 -0.7916  0.7369  0.4119
  141DOPC   H8R16681   4.988   3.263  14.889  0.4446  1.2487 -0.0218
  141DOPC   H8S16682   4.911   3.121  14.819 -1.0529 -0.1451  2.7669
  141DOPC   C2916683   5.114   3.174  14.730 -0.0170 -0.0599  0.2577
  141DOPC   H9R16684   5.218   3.141  14.747  0.0087  0.2356  0.6779
  141DOPC  C21016685   5.078   3.185  14.592  0.0488  0.7693 -0.6444
  141DOPC  H10R16686   5.156   3.194  14.515  2.2449 -0.7399  1.2667
  141DOPC  C21116687   4.946   3.218  14.537  0.0473 -0.0449 -0.3257
  141DOPC  H11R16688   4.931   3.328  14.550 -0.0029  0.2865 -2.7611
  141DOPC  H11S16689   4.870   3.163  14.597  1.6158 -2.2427 -0.2289
  141DOPC  C21216690   4.938   3.194  14.381  0.7804 -0.1566  0.0561
  141DOPC  H12R16691   4.830   3.179  14.356  1.0692  0.2785 -1.5085
  141DOPC  H12S16692   4.991   3.100  14.355 -0.8542 -1.0127 -0.3548
  141DOPC  C21316693   4.991   3.307  14.294  0.4069 -0.1901 -0.4834
  141DOPC  H13R16694   5.100   3.324  14.309  0.1671  1.2476 -0.2287
  141DOPC  H13S16695   4.938   3.399  14.326  1.9746  0.1285  1.3389
  141DOPC  C21416696   4.974   3.274  14.146  0.2975 -0.6402  0.6201
  141DOPC  H14R16697   4.868   3.245  14.132  0.9400 -3.4458  0.9480
  141DOPC  H14S16698   5.040   3.187  14.127  2.8796  1.8575 -3.5309
  141DOPC  C21516699   5.017   3.370  14.030 -0.4045  0.0354 -0.5949
  141DOPC  H15R16700   5.119   3.406  14.056 -0.1775 -2.8610  3.5130
  141DOPC  H15S16701   4.936   3.445  14.038 -1.6254 -1.3153  0.1124
  141DOPC  C21616702   5.022   3.300  13.893  0.4507 -0.8888  0.1649
  141DOPC  H16R16703   4.931   3.240  13.870  0.5727 -0.6043 -1.1716
  141DOPC  H16S16704   5.096   3.218  13.900 -1.1044 -2.3156  0.4284
  141DOPC  C21716705   5.041   3.406  13.784  0.0159 -0.1640 -0.1823
  141DOPC  H17R16706   5.147   3.438  13.794 -0.6564  2.1990  0.0135
  141DOPC  H17S16707   4.961   3.483  13.790 -1.2852 -1.3188 -1.8742
  141DOPC  C21816708   5.050   3.352  13.642  0.6466  0.2395  0.0137
  141DOPC  H18R16709   5.049   3.432  13.565 -1.9750 -0.1203 -0.4364
  141DOPC  H18S16710   4.967   3.280  13.620  1.7869 -1.2223  0.3149
  141DOPC  H18T16711   5.144   3.293  13.630  0.3576 -0.2724  0.2231
  141DOPC   C3316712   5.685   2.154  15.444 -0.5861 -0.0726  0.0136
  141DOPC   H3X16713   5.640   2.073  15.505  0.2284  0.5458  1.4864
  141DOPC   H3Y16714   5.763   2.210  15.500  1.4802 -2.9476  0.2081
  141DOPC   C3416715   5.737   2.095  15.316 -0.1211  0.0477  0.1347
  141DOPC   H4X16716   5.822   2.029  15.341  0.7736  0.3423 -1.8611
  141DOPC   H4Y16717   5.788   2.170  15.251  0.1674 -0.4613 -0.2307
  141DOPC   C3516718   5.639   2.011  15.232  0.4331 -0.2362 -0.4148
  141DOPC   H5X16719   5.559   2.073  15.185  0.7179  1.0482  0.7031
  141DOPC   H5Y16720   5.579   1.945  15.298  0.0117 -3.2181 -3.5043
  141DOPC   C3616721   5.708   1.917  15.130 -0.7264  0.3616  0.1209
  141DOPC   H6X16722   5.745   1.973  15.042 -1.5185 -1.5291 -1.4894
  141DOPC   H6Y16723   5.782   1.857  15.188 -1.2947  1.4697  2.0624
  141DOPC   C3716724   5.623   1.804  15.081  0.0381 -0.2929 -0.2063
  141DOPC   H7X16725   5.599   1.741  15.170  0.3406  0.6648  0.5624
  141DOPC   H7Y16726   5.538   1.844  15.021  1.3252  0.3332 -1.6726
  141DOPC   C3816727   5.690   1.707  14.987  0.6518  0.2968 -0.0617
  141DOPC   H8X16728   5.616   1.626  14.964  1.3699 -0.9697  1.8764
  141DOPC   H8Y16729   5.759   1.662  15.061 -0.8277  0.6636  1.6306
  141DOPC   C3916730   5.754   1.753  14.859  0.4433 -0.0333 -0.1410
  141DOPC   H9X16731   5.737   1.860  14.838 -0.1305  0.0965  0.9290
  141DOPC  C31016732   5.853   1.698  14.782  0.0805  0.0170 -0.1109
  141DOPC  H10X16733   5.878   1.742  14.685 -0.5718 -0.0484 -0.3104
  141DOPC  C31116734   5.891   1.551  14.793 -0.5403  1.1868  0.1760
  141DOPC  H11X16735   5.828   1.494  14.865  1.2133  2.7580  3.1871
  141DOPC  H11Y16736   5.990   1.537  14.843 -1.6689 -0.4821  2.1177
  141DOPC  C31216737   5.882   1.485  14.658  0.2705  0.4723 -0.4908
  141DOPC  H12X16738   5.948   1.396  14.658 -0.3035 -0.0015 -2.2412
  141DOPC  H12Y16739   5.926   1.542  14.573 -1.0625  1.9807 -0.2173
  141DOPC  C31316740   5.741   1.429  14.620  0.3336  0.0841  0.1680
  141DOPC  H13X16741   5.696   1.376  14.706  0.7005 -0.6170 -0.0648
  141DOPC  H13Y16742   5.673   1.511  14.588 -0.1001  0.0364  0.9362
  141DOPC  C31416743   5.745   1.335  14.494 -0.0272  0.3326 -0.4403
  141DOPC  H14X16744   5.793   1.238  14.519 -2.7832 -0.3452  3.0180
  141DOPC  H14Y16745   5.645   1.299  14.463  0.9407 -0.6916 -2.6150
  141DOPC  C31516746   5.797   1.402  14.361 -0.3484  0.0319 -0.3095
  141DOPC  H15X16747   5.894   1.449  14.389  0.4449 -2.0018  0.5508
  141DOPC  H15Y16748   5.722   1.483  14.346 -1.4840 -0.5015  1.9854
  141DOPC  C31616749   5.808   1.305  14.243  0.0581  0.8175 -0.4834
  141DOPC  H16X16750   5.853   1.360  14.158 -1.5913  0.9588 -1.2995
  141DOPC  H16Y16751   5.874   1.217  14.261 -1.7045 -0.3884  0.3857
  141DOPC  C31716752   5.675   1.248  14.190 -0.5183 -0.0421  0.5702
  141DOPC  H17X16753   5.653   1.164  14.259  0.7908 -0.8725  0.0209
  141DOPC  H17Y16754   5.603   1.331  14.208 -1.5753 -1.1001  1.2992
  141DOPC  C31816755   5.673   1.210  14.047 -0.3580 -0.6242  0.6695
  141DOPC  H18X16756   5.652   1.298  13.984 -2.5763 -1.0169  0.7606
  141DOPC  H18Y16757   5.766   1.162  14.013  0.2014  0.0574  1.2006
  141DOPC  H18Z16758   5.586   1.143  14.029 -1.2289  0.9921 -1.4735
  142DOPC     N16759   5.255   3.656  15.791 -0.3194 -0.3401 -0.1202
  142DOPC   C1216760   5.270   3.623  15.934  0.3331  0.5953  0.7262
  142DOPC  H12A16761   5.218   3.690  16.001 -1.0278  0.0063  0.2890
  142DOPC  H12B16762   5.366   3.628  15.983  1.1698 -3.7866 -0.0708
  142DOPC   C1316763   5.303   3.791  15.754 -0.0105 -0.5163  0.3754
  142DOPC  H13A16764   5.251   3.873  15.801  0.6281  0.1915 -0.1161
  142DOPC  H13B16765   5.405   3.801  15.790  0.4329  0.7182 -1.1240
  142DOPC  H13C16766   5.305   3.814  15.648 -0.5384 -0.1937  0.4323
  142DOPC   C1416767   5.114   3.654  15.747 -0.2132  0.0062 -0.2246
  142DOPC  H14A16768   5.058   3.736  15.791 -0.9735 -0.2110 -0.7742
  142DOPC  H14B16769   5.111   3.663  15.640 -0.6813  0.6213 -0.1671
  142DOPC  H14C16770   5.062   3.561  15.762  0.7823 -0.8011 -1.5454
  142DOPC   C1516771   5.331   3.564  15.702  0.2451  0.1902  0.3666
  142DOPC  H15A16772   5.306   3.460  15.710  0.7141  0.1019  0.7191
  142DOPC  H15B16773   5.438   3.577  15.703  0.1699  2.2580 -3.1224
  142DOPC  H15C16774   5.306   3.593  15.601  1.3472  0.8646  0.2722
  142DOPC   C1116775   5.231   3.473  15.973 -0.7493 -0.3132 -0.0334
  142DOPC  H11A16776   5.214   3.470  16.082  1.0084 -1.7915  0.2457
  142DOPC  H11B16777   5.135   3.445  15.925 -0.7231  2.4738 -1.9711
  142DOPC     P16778   5.300   3.236  15.883  0.0705  0.3434  0.4479
  142DOPC   O1316779   5.198   3.174  15.971 -0.4001 -0.1546 -0.2819
  142DOPC   O1416780   5.424   3.166  15.850  0.7372 -0.4640 -0.2211
  142DOPC   O1216781   5.338   3.378  15.948  0.3371 -0.3713 -0.2407
  142DOPC   O1116782   5.237   3.283  15.753  0.0021  0.2913 -0.2405
  142DOPC    C116783   5.145   3.196  15.680 -0.4198  0.4487  0.0037
  142DOPC    HA16784   5.043   3.198  15.725 -1.1650  0.4179 -1.6115
  142DOPC    HB16785   5.180   3.090  15.679 -0.6519  0.3665 -1.1308
  142DOPC    C216786   5.131   3.224  15.526  0.3867  0.0195  1.0469
  142DOPC    HS16787   5.114   3.130  15.470  0.6634  0.6322 -0.1094
  142DOPC   O2116788   5.245   3.289  15.471  0.2193 -0.4559 -0.1823
  142DOPC   C2116789   5.356   3.226  15.463 -0.1453 -0.3420 -0.3133
  142DOPC   O2216790   5.359   3.103  15.479  0.4993 -0.1710  0.2435
  142DOPC   C2216791   5.471   3.313  15.440  0.1898  0.7863  0.2251
  142DOPC   H2R16792   5.556   3.248  15.410  0.5090  1.9214 -1.4083
  142DOPC   H2S16793   5.501   3.373  15.528 -1.2906  0.3597  1.0532
  142DOPC    C316794   5.011   3.311  15.501 -0.3021  0.0689  0.2119
  142DOPC    HX16795   5.010   3.398  15.571  0.5512  0.9800 -0.8696
  142DOPC    HY16796   4.934   3.240  15.538 -0.4176 -0.8857 -1.7369
  142DOPC   O3116797   4.995   3.348  15.357  0.3503 -0.0230 -0.4767
  142DOPC   C3116798   5.049   3.461  15.330  0.0669 -0.3247  0.1767
  142DOPC   O3216799   5.104   3.535  15.410 -0.1815 -0.3993  0.5445
  142DOPC   C3216800   5.026   3.493  15.183  0.2367  0.0248 -0.4504
  142DOPC   H2X16801   5.113   3.445  15.133  0.9207 -2.5878  2.8430
  142DOPC   H2Y16802   4.932   3.445  15.146 -0.1268 -1.0505  1.6890
  142DOPC   C2316803   5.443   3.417  15.327 -0.1152 -0.9548 -0.0209
  142DOPC   H3R16804   5.528   3.489  15.321 -0.6841 -0.1962  0.7959
  142DOPC   H3S16805   5.345   3.467  15.342  0.0729 -0.8135  0.7622
  142DOPC   C2416806   5.448   3.355  15.184 -0.6058  0.4066  0.0580
  142DOPC   H4R16807   5.366   3.282  15.167  1.2003 -1.3954 -1.4250
  142DOPC   H4S16808   5.545   3.302  15.172 -0.3603  0.6212  1.0085
  142DOPC   C2516809   5.443   3.463  15.077 -0.1477 -0.2400 -0.2555
  142DOPC   H5R16810   5.522   3.540  15.088 -0.1943 -0.3370  0.8068
  142DOPC   H5S16811   5.350   3.517  15.102  0.5230 -0.2506  2.5231
  142DOPC   C2616812   5.447   3.403  14.932 -0.0410 -0.2404 -1.0850
  142DOPC   H6R16813   5.372   3.323  14.920  2.5169 -2.8168 -1.0852
  142DOPC   H6S16814   5.543   3.348  14.920 -0.0249 -0.8098  1.0731
  142DOPC   C2716815   5.423   3.504  14.821 -0.1114 -0.1679  0.1278
  142DOPC   H7R16816   5.484   3.596  14.809 -1.3167  0.6033 -0.1344
  142DOPC   H7S16817   5.318   3.533  14.842  0.4477  1.4382  0.8464
  142DOPC   C2816818   5.424   3.434  14.684  0.1294  0.3580 -0.6008
  142DOPC   H8R16819   5.347   3.354  14.677  0.2364 -0.0147  1.7214
  142DOPC   H8S16820   5.525   3.390  14.672  0.4611 -0.8907  4.3874
  142DOPC   C2916821   5.378   3.541  14.581  0.2449 -0.1457  0.3494
  142DOPC   H9R16822   5.271   3.564  14.575  0.8189  2.5473 -1.2632
  142DOPC  C21016823   5.449   3.611  14.488 -0.2057 -0.2432  0.0964
  142DOPC  H10R16824   5.397   3.680  14.419  0.0914  1.4231  1.4773
  142DOPC  C21116825   5.600   3.616  14.470 -0.2663 -0.1699  0.6589
  142DOPC  H11R16826   5.631   3.613  14.363  1.2457 -4.0426  1.0594
  142DOPC  H11S16827   5.653   3.535  14.524 -0.9448 -1.0856 -0.0157
  142DOPC  C21216828   5.634   3.765  14.517 -0.2886  0.8036  0.6808
  142DOPC  H12R16829   5.596   3.779  14.620  0.3858 -4.6593  1.9628
  142DOPC  H12S16830   5.574   3.840  14.461 -0.3749  0.4362  0.2681
  142DOPC  C21316831   5.783   3.787  14.512 -0.3647  0.6136  0.0188
  142DOPC  H13R16832   5.806   3.773  14.404 -0.7217 -0.8899  0.1215
  142DOPC  H13S16833   5.839   3.707  14.565  1.2601  0.9629 -1.0959
  142DOPC  C21416834   5.826   3.921  14.564 -0.5116  1.1377 -0.4577
  142DOPC  H14R16835   5.933   3.912  14.593 -0.5056  0.3273 -0.7048
  142DOPC  H14S16836   5.782   3.945  14.664 -0.1701  1.7223 -0.4410
  142DOPC  C21516837   5.824   4.033  14.466 -0.0399 -0.0364  0.2546
  142DOPC  H15R16838   5.726   4.045  14.417  0.0971  2.4983  0.4430
  142DOPC  H15S16839   5.906   4.030  14.390  1.1505  2.1505  1.3439
  142DOPC  C21616840   5.849   4.164  14.554 -0.5050 -0.3124  0.4041
  142DOPC  H16R16841   5.942   4.157  14.614  0.5533 -0.7458 -1.2281
  142DOPC  H16S16842   5.765   4.173  14.627  0.7834  1.1991  1.7763
  142DOPC  C21716843   5.840   4.294  14.483 -0.8568 -0.3765  0.3728
  142DOPC  H17R16844   5.744   4.301  14.428 -0.9271 -1.2474  0.3731
  142DOPC  H17S16845   5.913   4.299  14.399 -0.5662  0.9648  0.6750
  142DOPC  C21816846   5.875   4.422  14.571  0.4622  0.8895  0.2491
  142DOPC  H18R16847   5.982   4.421  14.600  0.1158 -0.7968  1.6405
  142DOPC  H18S16848   5.818   4.414  14.666  1.1147 -1.3643  0.5161
  142DOPC  H18T16849   5.844   4.513  14.516 -1.9148  0.5713  0.9549
  142DOPC   C3316850   5.000   3.641  15.157 -0.4265  0.3957  0.4235
  142DOPC   H3X16851   5.088   3.686  15.206 -0.6117  3.2445 -1.5964
  142DOPC   H3Y16852   4.905   3.676  15.204  1.2313  2.0784  2.7474
  142DOPC   C3416853   4.989   3.692  15.009 -0.1866 -0.6277  0.3241
  142DOPC   H4X16854   5.086   3.675  14.957 -1.1688 -1.4162 -1.3124
  142DOPC   H4Y16855   4.978   3.803  15.005 -0.7811 -0.6495  1.0946
  142DOPC   C3516856   4.888   3.618  14.921  0.2585  0.8370  0.4638
  142DOPC   H5X16857   4.791   3.629  14.973  0.1007  0.6664  0.2112
  142DOPC   H5Y16858   4.908   3.509  14.912 -1.8068  0.2419  2.2368
  142DOPC   C3616859   4.859   3.688  14.788  0.1951  0.0987 -0.3106
  142DOPC   H6X16860   4.752   3.683  14.761 -0.4066  3.6405  0.8513
  142DOPC   H6Y16861   4.865   3.798  14.800  1.5560  0.2105 -1.6430
  142DOPC   C3716862   4.944   3.645  14.675 -0.0432  0.7417  0.2953
  142DOPC   H7X16863   5.045   3.625  14.718  1.3426 -0.5874 -3.2405
  142DOPC   H7Y16864   4.904   3.551  14.631 -1.5223  0.6335  1.7853
  142DOPC   C3816865   4.962   3.751  14.572 -0.4102  0.1044  0.1565
  142DOPC   H8X16866   5.047   3.715  14.509 -0.1520  0.0089  0.5564
  142DOPC   H8Y16867   4.994   3.844  14.625 -1.4289 -0.2831  1.5046
  142DOPC   C3916868   4.836   3.784  14.496  0.0724  0.1315 -0.0301
  142DOPC   H9X16869   4.755   3.837  14.548 -0.9598  2.2417 -3.4196
  142DOPC  C31016870   4.820   3.759  14.362 -0.4783 -0.2571  0.6406
  142DOPC  H10X16871   4.722   3.781  14.316 -0.7891 -1.5127  0.6720
  142DOPC  C31116872   4.928   3.708  14.267 -0.4296 -0.0476 -0.0426
  142DOPC  H11X16873   4.888   3.633  14.195  0.0573 -0.5017  0.1573
  142DOPC  H11Y16874   5.006   3.657  14.327 -0.4296 -0.7612 -0.6330
  142DOPC  C31216875   4.995   3.816  14.180 -0.1378 -0.6648 -0.0253
  142DOPC  H12X16876   5.045   3.895  14.240  1.0201  0.6522 -2.5779
  142DOPC  H12Y16877   4.921   3.865  14.113  0.2470 -0.1868 -0.1106
  142DOPC  C31316878   5.102   3.762  14.093 -1.2026  0.4843 -0.0803
  142DOPC  H13X16879   5.063   3.706  14.005  1.1448 -1.9272  0.2758
  142DOPC  H13Y16880   5.161   3.844  14.048 -1.0385  0.1775 -0.4341
  142DOPC  C31416881   5.213   3.679  14.164  0.1736  0.3377  0.0869
  142DOPC  H14X16882   5.228   3.724  14.264  2.7234 -0.1425 -0.0037
  142DOPC  H14Y16883   5.170   3.578  14.183  0.4184  0.3309  0.6397
  142DOPC  C31516884   5.346   3.667  14.087 -0.4140 -0.6086 -0.2684
  142DOPC  H15X16885   5.421   3.706  14.158 -2.2942 -0.1415  1.5573
  142DOPC  H15Y16886   5.347   3.712  13.985  2.6167  0.1290 -0.0149
  142DOPC  C31616887   5.392   3.525  14.057 -0.2856  0.5906 -0.3860
  142DOPC  H16X16888   5.374   3.472  14.153 -1.4319  1.2117 -0.2408
  142DOPC  H16Y16889   5.319   3.478  13.987 -2.5202  1.7801  1.0145
  142DOPC  C31716890   5.532   3.501  13.997 -0.5775  0.2067 -0.3096
  142DOPC  H17X16891   5.546   3.396  13.966 -0.6029  0.2994 -0.6381
  142DOPC  H17Y16892   5.530   3.562  13.904 -0.6551  1.5711  0.5431
  142DOPC  C31816893   5.651   3.556  14.083  0.5250  0.0209  0.2485
  142DOPC  H18X16894   5.661   3.505  14.181  2.3543  1.2635  0.7684
  142DOPC  H18Y16895   5.752   3.548  14.036  1.2558  0.7637  1.6030
  142DOPC  H18Z16896   5.633   3.663  14.109  1.1731 -0.0295  0.9460
  143DOPC     N16897   4.347   2.984  15.907  0.4003  0.0940 -0.6117
  143DOPC   C1216898   4.274   3.110  15.959  0.1188  0.1470  0.2463
  143DOPC  H12A16899   4.341   3.195  15.952  0.6345 -0.1920  0.9441
  143DOPC  H12B16900   4.254   3.109  16.065  0.4640  0.6975  0.3199
  143DOPC   C1316901   4.465   2.953  15.997 -0.0389  0.1198  0.1529
  143DOPC  H13A16902   4.519   2.864  15.969  3.5564  1.3801  2.3603
  143DOPC  H13B16903   4.539   3.029  15.980  0.3186 -0.3315 -0.3391
  143DOPC  H13C16904   4.442   2.966  16.102 -1.2322 -0.0524 -0.0690
  143DOPC   C1416905   4.389   3.001  15.767 -0.2273  0.2503  0.2210
  143DOPC  H14A16906   4.410   2.908  15.717  1.5921  0.4203  0.5971
  143DOPC  H14B16907   4.306   3.051  15.719 -0.7462  1.3709  2.1917
  143DOPC  H14C16908   4.480   3.059  15.765  2.3459 -3.4335 -0.3620
  143DOPC   C1516909   4.256   2.868  15.905  0.9377 -0.1467  0.0881
  143DOPC  H15A16910   4.177   2.881  15.834 -0.9509  0.4352  2.1780
  143DOPC  H15B16911   4.206   2.855  16.000 -0.6010  2.0593 -0.3660
  143DOPC  H15C16912   4.299   2.770  15.886 -0.4921 -1.1711  1.7919
  143DOPC   C1116913   4.129   3.151  15.895  0.2974  0.4294  1.1088
  143DOPC  H11A16914   4.062   3.062  15.894 -0.5442  1.0529  0.2040
  143DOPC  H11B16915   4.081   3.227  15.961  0.8515  0.4110  1.5424
  143DOPC     P16916   4.197   3.331  15.707  0.6659  0.1825  0.1355
  143DOPC   O1316917   4.308   3.388  15.790 -0.1370  0.1842 -0.4129
  143DOPC   O1416918   4.081   3.430  15.688 -0.0080 -0.2023 -0.1151
  143DOPC   O1216919   4.143   3.198  15.762  0.2541 -0.4495 -0.1052
  143DOPC   O1116920   4.256   3.287  15.562  0.0994  0.6631 -0.4904
  143DOPC    C116921   4.175   3.194  15.484  0.5258 -0.0208 -0.4119
  143DOPC    HA16922   4.066   3.213  15.495  0.4352 -1.2423  1.2811
  143DOPC    HB16923   4.178   3.095  15.535 -1.1525  1.1032  2.0907
  143DOPC    C216924   4.212   3.187  15.337  0.2598 -0.0658  0.1126
  143DOPC    HS16925   4.155   3.109  15.282  0.9398 -1.5648  1.4941
  143DOPC   O2116926   4.355   3.171  15.316 -0.0254 -0.5496 -0.2248
  143DOPC   C2116927   4.402   3.049  15.343  0.3338  0.4256  0.0047
  143DOPC   O2216928   4.335   2.961  15.395  0.9749  0.2346  0.5181
  143DOPC   C2216929   4.551   3.044  15.311  0.5107 -0.4943 -0.6831
  143DOPC   H2R16930   4.594   2.993  15.400 -2.9009 -0.1629  1.3131
  143DOPC   H2S16931   4.597   3.145  15.317  0.0570 -0.2468 -1.4224
  143DOPC    C316932   4.179   3.330  15.268  0.3232  0.1240  0.4746
  143DOPC    HX16933   4.245   3.401  15.323  2.2139 -0.4788 -0.9214
  143DOPC    HY16934   4.078   3.375  15.285  1.0834  2.2824 -0.3999
  143DOPC   O3116935   4.209   3.330  15.125 -0.1175 -0.0110  0.4386
  143DOPC   C3116936   4.108   3.288  15.050  0.1558 -0.5541  0.5380
  143DOPC   O3216937   3.998   3.253  15.088 -0.2578  0.0801 -0.2928
  143DOPC   C3216938   4.153   3.289  14.903  0.0211  0.0944 -0.0310
  143DOPC   H2X16939   4.106   3.375  14.851 -4.7641 -1.2003  1.6238
  143DOPC   H2Y16940   4.264   3.285  14.903 -0.0032 -1.2611 -0.8998
  143DOPC   C2316941   4.563   2.960  15.187  0.2847 -0.1099  0.4186
  143DOPC   H3R16942   4.514   3.001  15.096 -0.9660 -0.0988  1.0765
  143DOPC   H3S16943   4.519   2.858  15.195 -0.0365 -0.1827 -1.7426
  143DOPC   C2416944   4.715   2.938  15.168 -0.4867  0.0225 -0.8793
  143DOPC   H4R16945   4.778   3.027  15.189  2.4393 -2.1113  0.1306
  143DOPC   H4S16946   4.717   2.893  15.067 -0.2261 -3.2326  0.4253
  143DOPC   C2516947   4.780   2.829  15.261 -0.2638 -0.4590  0.2803
  143DOPC   H5R16948   4.742   2.837  15.365 -1.1258  1.3414 -0.1291
  143DOPC   H5S16949   4.888   2.852  15.270  0.3112 -2.9991  0.5357
  143DOPC   C2616950   4.784   2.684  15.201 -0.1292  0.6091 -0.0776
  143DOPC   H6R16951   4.851   2.690  15.112  0.0320 -0.2690 -0.0212
  143DOPC   H6S16952   4.683   2.669  15.159  0.7518 -1.3183 -1.6642
  143DOPC   C2716953   4.823   2.576  15.306  0.6133  0.3962 -0.0995
  143DOPC   H7R16954   4.763   2.586  15.398  1.1963 -0.2388  0.3557
  143DOPC   H7S16955   4.926   2.603  15.337  0.1594  2.3320 -0.1319
  143DOPC   C2816956   4.815   2.423  15.251 -0.4030  0.1388 -0.2733
  143DOPC   H8R16957   4.718   2.422  15.198 -0.6386  1.0866  0.1196
  143DOPC   H8S16958   4.799   2.342  15.325 -2.9846  0.5252 -0.3350
  143DOPC   C2916959   4.932   2.397  15.161  0.5977  1.0827  0.3438
  143DOPC   H9R16960   5.032   2.400  15.207 -0.1717  1.3334  2.0981
  143DOPC  C21016961   4.927   2.346  15.035 -0.5733  0.4790  0.4064
  143DOPC  H10R16962   5.015   2.298  14.990  0.0215 -2.7674  4.4118
  143DOPC  C21116963   4.803   2.305  14.963 -0.1357 -0.0949 -0.2974
  143DOPC  H11R16964   4.706   2.305  15.017  0.0075  1.0804 -0.0131
  143DOPC  H11S16965   4.823   2.200  14.934  0.4460 -0.3922  1.1024
  143DOPC  C21216966   4.761   2.390  14.833 -0.4999  0.3251 -0.1715
  143DOPC  H12R16967   4.668   2.343  14.795  1.1307 -2.1252 -1.3372
  143DOPC  H12S16968   4.841   2.379  14.757 -0.1918 -0.8155  0.3072
  143DOPC  C21316969   4.738   2.542  14.861 -0.3304 -0.6409  0.7460
  143DOPC  H13R16970   4.837   2.578  14.896 -0.3101  0.7325 -0.6380
  143DOPC  H13S16971   4.670   2.564  14.946  1.7903  0.0440  2.3328
  143DOPC  C21416972   4.702   2.619  14.739 -0.0313 -0.2315 -0.1272
  143DOPC  H14R16973   4.615   2.581  14.681 -0.2394  2.6593 -1.8842
  143DOPC  H14S16974   4.789   2.617  14.670 -0.2179  3.1357 -0.6261
  143DOPC  C21516975   4.693   2.771  14.773 -0.1618 -0.2031  0.0192
  143DOPC  H15R16976   4.790   2.818  14.800 -0.1569  0.8578 -1.6784
  143DOPC  H15S16977   4.622   2.781  14.858  0.2948  1.2178  0.2581
  143DOPC  C21616978   4.632   2.851  14.647  0.2674  0.4526  0.7142
  143DOPC  H16R16979   4.536   2.805  14.619  0.2565  0.6844  0.3652
  143DOPC  H16S16980   4.710   2.835  14.569 -1.2918  0.5715 -0.9179
  143DOPC  C21716981   4.606   3.000  14.684 -0.0812  1.2728 -0.0441
  143DOPC  H17R16982   4.701   3.050  14.715  0.1163 -0.1382  1.8149
  143DOPC  H17S16983   4.535   2.995  14.769 -1.0960  0.1097 -0.9293
  143DOPC  C21816984   4.527   3.072  14.576 -0.1494  0.3232  0.5738
  143DOPC  H18R16985   4.500   3.175  14.606  1.0571  0.3679  1.5704
  143DOPC  H18S16986   4.435   3.011  14.560 -0.2409  0.9345 -1.5452
  143DOPC  H18T16987   4.579   3.068  14.478  0.3980 -0.1257  0.8826
  143DOPC   C3316988   4.083   3.173  14.824 -0.3107  0.6807 -0.8823
  143DOPC   H3X16989   3.972   3.178  14.828 -0.4472 -0.1255 -2.5392
  143DOPC   H3Y16990   4.106   3.083  14.885 -0.7669  0.1527 -1.4750
  143DOPC   C3416991   4.113   3.158  14.683 -0.5800 -0.6044  0.2564
  143DOPC   H4X16992   4.047   3.083  14.634 -0.4229  0.6150 -1.9314
  143DOPC   H4Y16993   4.213   3.110  14.673 -0.7333 -0.4758 -2.7588
  143DOPC   C3516994   4.110   3.290  14.608  0.4191 -0.5566 -0.3938
  143DOPC   H5X16995   4.179   3.369  14.646 -1.3076  0.9298 -0.2338
  143DOPC   H5Y16996   4.011   3.337  14.626  1.4448  1.3608  0.5561
  143DOPC   C3616997   4.116   3.270  14.457 -0.2951 -0.1950 -0.0894
  143DOPC   H6X16998   4.169   3.360  14.418 -0.2257 -0.2452 -0.1093
  143DOPC   H6Y16999   4.183   3.183  14.440  0.2116  0.1106  0.3239
  143DOPC   C3717000   3.984   3.253  14.384 -0.4149 -0.0845 -0.8651
  143DOPC   H7X17001   3.950   3.151  14.415  1.0061 -0.0775  0.8719
  143DOPC   H7Y17002   3.912   3.325  14.428  0.3672  0.4193 -0.3862
  143DOPC   C3817003   3.993   3.262  14.232 -0.0080 -0.3636 -0.3314
  143DOPC   H8X17004   4.054   3.177  14.198 -1.6215 -0.4448 -3.4491
  143DOPC   H8Y17005   4.043   3.356  14.200  0.3009 -0.8995 -1.4771
  143DOPC   C3917006   3.855   3.274  14.169  0.2385  0.3380 -0.4915
  143DOPC   H9X17007   3.775   3.314  14.232  0.3058 -0.5842  0.2002
  143DOPC  C31017008   3.823   3.238  14.043  0.1924  0.1282 -0.3393
  143DOPC  H10X17009   3.721   3.236  14.002  0.8164  1.3627 -2.0774
  143DOPC  C31117010   3.919   3.175  13.941 -0.1503  0.1388 -0.3316
  143DOPC  H11X17011   3.911   3.064  13.943 -1.6973  0.2053  2.2337
  143DOPC  H11Y17012   4.027   3.197  13.956 -0.4671  1.7255 -0.1788
  143DOPC  C31217013   3.890   3.219  13.796 -0.4620  0.1350 -0.3025
  143DOPC  H12X17014   3.872   3.329  13.788  0.2572  0.2986  0.2382
  143DOPC  H12Y17015   3.793   3.172  13.768 -0.5915  0.0611  0.2502
  143DOPC  C31317016   3.997   3.161  13.704 -0.4645 -0.7195  0.2491
  143DOPC  H13X17017   4.078   3.234  13.727  1.4128 -2.0230 -1.8635
  143DOPC  H13Y17018   4.027   3.056  13.722  1.1419 -0.2052  0.8382
  143DOPC  C31417019   3.958   3.182  13.555 -0.7350 -0.9509  0.0620
  143DOPC  H14X17020   3.856   3.139  13.538 -0.6096 -1.3309  0.2570
  143DOPC  H14Y17021   3.925   3.288  13.549 -3.2770 -1.5545  1.6367
  143DOPC  C31517022   4.058   3.141  13.445  0.1707 -0.3787 -0.3438
  143DOPC  H15X17023   4.071   3.031  13.453  1.6278 -0.2271 -0.3862
  143DOPC  H15Y17024   4.160   3.181  13.462 -0.9192  3.0072 -0.9807
  143DOPC  C31617025   4.003   3.157  13.303 -0.1559 -0.4006  0.1468
  143DOPC  H16X17026   3.903   3.113  13.285 -0.9106  2.2842 -3.6054
  143DOPC  H16Y17027   3.978   3.265  13.289 -0.0740 -0.2731  0.9669
  143DOPC  C31717028   4.096   3.101  13.189 -0.3508 -0.3453 -0.2187
  143DOPC  H17X17029   4.192   3.157  13.195  0.2655 -1.3497 -0.5321
  143DOPC  H17Y17030   4.116   2.995  13.216 -1.9778 -0.6934 -0.2760
  143DOPC  C31817031   4.032   3.122  13.053 -0.0342 -0.2500 -0.1569
  143DOPC  H18X17032   3.938   3.065  13.038  1.3137 -2.9025  0.9060
  143DOPC  H18Y17033   4.019   3.232  13.038  2.8942  0.1873 -0.0662
  143DOPC  H18Z17034   4.098   3.101  12.966  1.2872 -0.2578  0.8135
  144DOPC     N17035   3.713   1.417  16.213  1.0852 -0.0952  0.2403
  144DOPC   C1217036   3.736   1.294  16.124  0.5348  0.2777  0.2515
  144DOPC  H12A17037   3.693   1.203  16.164  0.1044  1.1096  1.7655
  144DOPC  H12B17038   3.842   1.279  16.107 -0.0711 -2.3710 -1.8269
  144DOPC   C1317039   3.572   1.419  16.250  0.8226  0.0501 -0.6737
  144DOPC  H13A17040   3.538   1.334  16.307 -0.1590  0.3272 -0.8283
  144DOPC  H13B17041   3.547   1.499  16.318 -1.5954 -0.4990 -0.8215
  144DOPC  H13C17042   3.504   1.417  16.166  0.0706 -2.3194 -0.0738
  144DOPC   C1417043   3.755   1.544  16.148 -0.1387  0.1297  0.9365
  144DOPC  H14A17044   3.707   1.553  16.051  0.8138  1.5681  0.5685
  144DOPC  H14B17045   3.737   1.629  16.212  3.9111  1.7639  0.1916
  144DOPC  H14C17046   3.861   1.540  16.129 -0.4727  0.1521 -1.1002
  144DOPC   C1517047   3.804   1.408  16.331  0.4633  0.4921  0.5161
  144DOPC  H15A17048   3.771   1.329  16.397 -3.4057  0.7034 -0.8839
  144DOPC  H15B17049   3.805   1.495  16.394  0.6360  1.9229 -1.3753
  144DOPC  H15C17050   3.904   1.399  16.292 -0.3833 -1.1207 -1.4528
  144DOPC   C1117051   3.658   1.300  15.991 -0.2126  0.8279  0.2033
  144DOPC  H11A17052   3.664   1.203  15.937 -1.4353  2.8532 -3.9860
  144DOPC  H11B17053   3.547   1.309  15.997 -0.7274 -2.3611 -2.0357
  144DOPC     P17054   3.792   1.396  15.794  0.2091 -0.5420 -0.1766
  144DOPC   O1317055   3.911   1.312  15.814 -0.4533  0.9705  0.1349
  144DOPC   O1417056   3.833   1.529  15.747 -0.6383  0.4992 -0.1835
  144DOPC   O1217057   3.693   1.409  15.913  0.3723 -0.4888  0.3561
  144DOPC   O1117058   3.699   1.333  15.678 -0.1541 -0.2390  0.5213
  144DOPC    C117059   3.600   1.412  15.609 -0.2426  0.3252 -0.3145
  144DOPC    HA17060   3.614   1.521  15.627  0.0602  0.1637  0.4752
  144DOPC    HB17061   3.502   1.375  15.644  1.0302 -2.7174  0.3803
  144DOPC    C217062   3.609   1.384  15.457 -0.4964  0.1379 -0.0491
  144DOPC    HS17063   3.571   1.281  15.437 -1.5730  0.2776  1.1607
  144DOPC   O2117064   3.739   1.409  15.401 -0.9264  0.5616 -0.2471
  144DOPC   C2117065   3.823   1.307  15.416 -0.1074  0.5469 -0.3738
  144DOPC   O2217066   3.792   1.190  15.435  0.2972  0.1805  0.3515
  144DOPC   C2217067   3.967   1.362  15.400  0.8726  0.3177  0.5309
  144DOPC   H2R17068   4.022   1.321  15.488  1.9566  1.2243  0.2995
  144DOPC   H2S17069   3.967   1.473  15.408 -1.4442  0.3345  0.8261
  144DOPC    C317070   3.513   1.480  15.378 -0.3479 -0.7344 -0.5191
  144DOPC    HX17071   3.546   1.580  15.412 -0.5777  0.2914 -3.0585
  144DOPC    HY17072   3.407   1.457  15.404 -1.0770  0.4354 -2.2292
  144DOPC   O3117073   3.537   1.483  15.234  0.3255  0.3009 -0.0660
  144DOPC   C3117074   3.489   1.369  15.182  0.1896 -0.3433 -0.1226
  144DOPC   O3217075   3.412   1.291  15.229  0.1398  0.0677  0.3935
  144DOPC   C3217076   3.569   1.347  15.049 -0.1479 -0.1753 -0.7020
  144DOPC   H2X17077   3.562   1.445  14.997  2.5111  0.8385  0.6447
  144DOPC   H2Y17078   3.675   1.338  15.080 -0.0409  0.8741 -0.7437
  144DOPC   C2317079   4.027   1.310  15.270 -0.2765  0.3704 -0.3555
  144DOPC   H3R17080   4.049   1.201  15.267 -0.0332  0.0562  4.7435
  144DOPC   H3S17081   4.122   1.367  15.259 -0.7291  1.2756  0.4046
  144DOPC   C2417082   3.942   1.338  15.146 -0.0911 -0.4209  0.2271
  144DOPC   H4R17083   3.868   1.415  15.176  0.3170 -0.7187  2.1404
  144DOPC   H4S17084   3.888   1.242  15.130  0.2106 -0.4524 -0.6166
  144DOPC   C2517085   4.019   1.383  15.022 -0.3559  0.3017 -0.3274
  144DOPC   H5R17086   4.085   1.299  14.991 -1.2419 -0.9451  1.0059
  144DOPC   H5S17087   4.088   1.468  15.035  1.1674 -0.9574  0.1195
  144DOPC   C2617088   3.928   1.415  14.900 -0.4742 -0.4075  0.4560
  144DOPC   H6R17089   3.855   1.492  14.931 -2.1002 -1.4649 -0.5879
  144DOPC   H6S17090   3.874   1.325  14.863  1.5407 -1.1009 -1.0011
  144DOPC   C2717091   4.014   1.445  14.778  0.1251 -0.2347 -0.1919
  144DOPC   H7R17092   4.055   1.349  14.742  0.0178 -0.7705  1.0702
  144DOPC   H7S17093   4.104   1.503  14.808  1.3860 -2.3048  0.2239
  144DOPC   C2817094   3.944   1.508  14.657 -0.0380 -0.1979  0.2879
  144DOPC   H8R17095   4.014   1.521  14.572  0.6616 -0.1629  0.8655
  144DOPC   H8S17096   3.916   1.606  14.701 -1.1570  0.2748 -1.3922
  144DOPC   C2917097   3.821   1.436  14.608  0.8475  0.0157  0.3084
  144DOPC   H9R17098   3.798   1.339  14.656 -1.7682  0.0880 -0.6159
  144DOPC  C21017099   3.737   1.468  14.503  0.3081 -0.1708 -0.3206
  144DOPC  H10R17100   3.652   1.399  14.489  0.7549 -1.3290  2.1317
  144DOPC  C21117101   3.768   1.588  14.417 -0.4496 -0.0555  1.0307
  144DOPC  H11R17102   3.796   1.673  14.483  1.2491  0.5611 -0.3952
  144DOPC  H11S17103   3.675   1.623  14.367  0.0386  1.1408  0.9136
  144DOPC  C21217104   3.873   1.566  14.301  0.5329  0.3394 -0.4489
  144DOPC  H12R17105   3.969   1.529  14.343  0.5922  3.0010  2.0631
  144DOPC  H12S17106   3.896   1.665  14.256 -1.1476  0.8687 -0.2129
  144DOPC  C21317107   3.832   1.485  14.177  0.6847 -0.8735 -0.3462
  144DOPC  H13R17108   3.905   1.510  14.097  0.8395  0.2093  0.1328
  144DOPC  H13S17109   3.734   1.529  14.148  0.3278 -0.7645  0.9734
  144DOPC  C21417110   3.815   1.341  14.199  0.0662  0.4729  0.2931
  144DOPC  H14R17111   3.723   1.322  14.258 -1.9758 -1.1536 -3.0806
  144DOPC  H14S17112   3.900   1.297  14.256  1.1542 -0.6763 -2.0389
  144DOPC  C21517113   3.800   1.260  14.068 -0.1805  0.4150  0.2825
  144DOPC  H15R17114   3.897   1.275  14.015 -1.0362 -0.7256 -1.7292
  144DOPC  H15S17115   3.726   1.305  14.000  0.0678 -1.4826 -1.3434
  144DOPC  C21617116   3.781   1.114  14.091  0.0258 -0.8651  0.1463
  144DOPC  H16R17117   3.691   1.089  14.150 -1.5939  1.9357 -0.9272
  144DOPC  H16S17118   3.870   1.076  14.145 -0.3956  0.9373  2.2448
  144DOPC  C21717119   3.761   1.042  13.954 -0.3435  0.0922  0.0325
  144DOPC  H17R17120   3.848   1.066  13.890  0.9381  0.6129  1.8743
  144DOPC  H17S17121   3.667   1.079  13.907  0.0983  0.2835 -0.7140
  144DOPC  C21817122   3.758   0.891  13.985  0.5409 -0.2175  0.3530
  144DOPC  H18R17123   3.853   0.857  14.031  0.5352 -0.7964 -0.0661
  144DOPC  H18S17124   3.740   0.825  13.898  0.7365 -3.1568  2.4133
  144DOPC  H18T17125   3.671   0.870  14.051 -0.6108  1.4854 -0.5309
  144DOPC   C3317126   3.509   1.248  14.955 -0.0179  0.5506 -0.1616
  144DOPC   H3X17127   3.407   1.282  14.926 -0.8398  0.5850  2.4809
  144DOPC   H3Y17128   3.502   1.147  15.002 -0.7358  0.3515 -0.6768
  144DOPC   C3417129   3.585   1.233  14.818 -0.7426 -0.2712 -0.0542
  144DOPC   H4X17130   3.691   1.207  14.836 -0.1582 -0.3132 -3.0609
  144DOPC   H4Y17131   3.586   1.323  14.752  1.3856 -1.3496 -1.5991
  144DOPC   C3517132   3.538   1.117  14.733 -0.2356 -0.0159 -0.1374
  144DOPC   H5X17133   3.427   1.122  14.736 -0.1905  1.0804  0.0501
  144DOPC   H5Y17134   3.576   1.025  14.783 -0.3167 -0.1341 -0.2932
  144DOPC   C3617135   3.582   1.121  14.592 -0.0964 -0.4723  0.4966
  144DOPC   H6X17136   3.524   1.193  14.530  1.7363  0.8057  0.1721
  144DOPC   H6Y17137   3.689   1.147  14.576 -0.4553  0.4135 -0.6059
  144DOPC   C3717138   3.566   0.981  14.529  0.1105  0.4655  0.5970
  144DOPC   H7X17139   3.612   0.903  14.593  0.3358  0.1298  0.0293
  144DOPC   H7Y17140   3.456   0.965  14.532  0.2585 -0.5603  0.9963
  144DOPC   C3817141   3.620   0.971  14.383  0.1989  0.0047  0.1612
  144DOPC   H8X17142   3.716   1.026  14.397 -0.2354  0.8686 -0.2168
  144DOPC   H8Y17143   3.564   1.036  14.312  2.3379  1.0306 -0.6955
  144DOPC   C3917144   3.644   0.828  14.337 -0.9995 -0.1477  0.2546
  144DOPC   H9X17145   3.562   0.780  14.282 -0.5426 -1.0581  0.3632
  144DOPC  C31017146   3.760   0.762  14.356  0.2236 -0.3424  0.3010
  144DOPC  H10X17147   3.763   0.658  14.321 -1.9818 -0.4123  0.1983
  144DOPC  C31117148   3.887   0.809  14.426  0.3130 -0.2106 -0.3376
  144DOPC  H11X17149   3.861   0.906  14.473 -2.0191  1.1308 -3.9302
  144DOPC  H11Y17150   3.966   0.827  14.350 -1.3759  2.1431 -1.6745
  144DOPC  C31217151   3.945   0.715  14.538  0.0819 -0.2600 -0.0460
  144DOPC  H12X17152   4.049   0.743  14.567  0.4623 -1.1230 -0.5176
  144DOPC  H12Y17153   3.939   0.616  14.488 -2.4145 -0.0377 -0.2863
  144DOPC  C31317154   3.858   0.720  14.664  0.3002 -0.2010 -0.2744
  144DOPC  H13X17155   3.863   0.825  14.699 -0.8303  0.1947 -1.2356
  144DOPC  H13Y17156   3.749   0.704  14.648 -0.4045  1.0968  2.6258
  144DOPC  C31417157   3.904   0.610  14.758 -0.4132 -0.2479  0.5802
  144DOPC  H14X17158   3.891   0.510  14.712  1.5943 -2.1372  3.7589
  144DOPC  H14Y17159   4.015   0.619  14.760 -0.5094  1.1218  2.6372
  144DOPC  C31517160   3.848   0.618  14.905  0.0484  0.1015 -0.8105
  144DOPC  H15X17161   3.745   0.579  14.919 -0.3852  1.9057  1.5452
  144DOPC  H15Y17162   3.850   0.724  14.935 -2.4033 -0.2573  0.8902
  144DOPC  C31617163   3.909   0.508  14.995 -0.6920  0.1393  0.3670
  144DOPC  H16X17164   3.897   0.417  14.933  0.7406  0.9978 -1.2565
  144DOPC  H16Y17165   4.017   0.531  15.006 -0.2371 -2.3850  2.1608
  144DOPC  C31717166   3.831   0.483  15.128 -0.1790  0.6361  0.2667
  144DOPC  H17X17167   3.831   0.584  15.176  1.1712  1.8871 -2.1856
  144DOPC  H17Y17168   3.728   0.456  15.097  0.1011 -1.2121  0.8454
  144DOPC  C31817169   3.890   0.368  15.204  0.3107  1.1196  0.4953
  144DOPC  H18X17170   3.817   0.329  15.279 -0.9718 -1.2251 -1.8079
  144DOPC  H18Y17171   3.920   0.282  15.140 -2.7133 -0.5269  1.0985
  144DOPC  H18Z17172   3.983   0.410  15.248  2.0156  2.6612 -4.0928
  145DOPC     N17173   3.115   5.712  15.891  0.3086  0.3469  0.0931
  145DOPC   C1217174   3.020   5.742  16.009  0.4045 -0.5326 -0.1066
  145DOPC  H12A17175   3.005   5.653  16.068 -2.4081  0.5153  0.8939
  145DOPC  H12B17176   2.920   5.761  15.974  0.0823 -1.9062  0.0252
  145DOPC   C1317177   3.075   5.575  15.839  0.1853 -0.1583  0.4802
  145DOPC  H13A17178   3.138   5.544  15.757 -1.2750 -1.7171 -0.1011
  145DOPC  H13B17179   3.079   5.497  15.913 -0.8690 -1.3578 -0.6779
  145DOPC  H13C17180   2.972   5.572  15.806  0.0725  0.0887  0.8142
  145DOPC   C1417181   3.254   5.699  15.940 -0.2850  0.5341 -0.2004
  145DOPC  H14A17182   3.289   5.798  15.967  1.2719  0.0735 -0.4704
  145DOPC  H14B17183   3.257   5.630  16.023  1.8381  0.1254 -0.5533
  145DOPC  H14C17184   3.317   5.667  15.858 -1.1926  0.5541 -0.9215
  145DOPC   C1517185   3.106   5.817  15.788  0.3989 -0.7663 -0.7840
  145DOPC  H15A17186   3.152   5.798  15.693  2.0925 -0.7539 -0.0061
  145DOPC  H15B17187   3.139   5.916  15.816 -0.6434  0.4590 -3.5354
  145DOPC  H15C17188   3.000   5.826  15.774  0.0565  0.7049  1.8796
  145DOPC   C1117189   3.070   5.853  16.109  0.5542 -0.1938 -0.4810
  145DOPC  H11A17190   2.992   5.877  16.184  0.0789 -0.4238 -0.8970
  145DOPC  H11B17191   3.152   5.802  16.164  0.8406  0.9034  0.1342
  145DOPC     P17192   3.018   6.087  16.004 -0.1990  0.3756 -0.2123
  145DOPC   O1317193   2.979   6.152  16.129  0.3484 -0.0868  0.0327
  145DOPC   O1417194   2.909   6.038  15.918  0.1692 -0.6217  1.0777
  145DOPC   O1217195   3.112   5.970  16.046  0.2902  0.3247 -0.0848
  145DOPC   O1117196   3.111   6.191  15.921  0.5013  0.2756 -0.3318
  145DOPC    C117197   3.048   6.292  15.845 -0.4579  0.5070 -0.1447
  145DOPC    HA17198   3.093   6.388  15.880 -0.3630  0.9245 -1.3512
  145DOPC    HB17199   2.937   6.297  15.857 -0.3108  0.6918  1.4334
  145DOPC    C217200   3.074   6.269  15.692 -0.2433  0.4937  0.5265
  145DOPC    HS17201   3.050   6.161  15.679  1.2256 -0.1511  2.7009
  145DOPC   O2117202   3.211   6.289  15.676 -0.5300  0.3494 -0.0691
  145DOPC   C2117203   3.300   6.195  15.692  0.0486 -0.4672  0.6128
  145DOPC   O2217204   3.276   6.078  15.703  0.1676  0.3981  1.1721
  145DOPC   C2217205   3.443   6.255  15.701 -0.3015 -0.1240  0.1960
  145DOPC   H2R17206   3.485   6.218  15.796 -2.1116 -1.0939  0.6786
  145DOPC   H2S17207   3.436   6.366  15.704  1.0577 -0.0492  2.8470
  145DOPC    C317208   2.983   6.338  15.588 -0.2198  0.2349 -0.3515
  145DOPC    HX17209   2.980   6.448  15.605  2.1721  0.2738  0.0923
  145DOPC    HY17210   2.877   6.304  15.598 -0.5050  0.5674 -1.9879
  145DOPC   O3117211   3.019   6.292  15.454 -0.1848  0.0511 -0.2084
  145DOPC   C3117212   3.089   6.378  15.381  0.4256  0.3564  0.1565
  145DOPC   O3217213   3.125   6.485  15.411 -0.2812 -0.2160 -0.2716
  145DOPC   C3217214   3.101   6.318  15.241 -0.5360  0.0901 -0.3105
  145DOPC   H2X17215   3.135   6.215  15.266  0.6830  0.4351 -0.4967
  145DOPC   H2Y17216   2.999   6.316  15.195 -0.3117  2.0004 -0.9723
  145DOPC   C2317217   3.526   6.210  15.579 -0.0851 -0.0012  0.7512
  145DOPC   H3R17218   3.515   6.104  15.547  0.7025 -0.0347  0.5613
  145DOPC   H3S17219   3.633   6.225  15.605  0.2249  0.1360 -0.5586
  145DOPC   C2417220   3.495   6.310  15.460 -0.7292  0.1478 -0.4076
  145DOPC   H4R17221   3.531   6.410  15.494 -1.6295  0.1644  0.5220
  145DOPC   H4S17222   3.384   6.319  15.453 -0.7382  0.0587 -0.3696
  145DOPC   C2517223   3.561   6.274  15.322 -0.0977  0.0470 -0.4078
  145DOPC   H5R17224   3.670   6.256  15.337  0.2586  2.9217  1.0302
  145DOPC   H5S17225   3.562   6.365  15.258  1.3186  0.0965 -0.3440
  145DOPC   C2617226   3.481   6.159  15.244  0.4124 -0.3393 -0.4184
  145DOPC   H6R17227   3.374   6.183  15.228  0.5077  0.4261  0.0647
  145DOPC   H6S17228   3.487   6.074  15.316  1.5498  0.9643  1.0876
  145DOPC   C2717229   3.543   6.125  15.105  0.5777  0.0536  0.0922
  145DOPC   H7R17230   3.564   6.225  15.060  1.0141  0.9904  2.2610
  145DOPC   H7S17231   3.470   6.078  15.036  0.0189 -1.1732  1.4797
  145DOPC   C2817232   3.675   6.041  15.108  0.1535 -0.0824  0.3064
  145DOPC   H8R17233   3.747   6.086  15.180  0.9527 -2.9042  1.3827
  145DOPC   H8S17234   3.716   6.044  15.005  0.7217 -1.2726  0.4824
  145DOPC   C2917235   3.655   5.896  15.145  0.0646  0.2607 -0.8365
  145DOPC   H9R17236   3.581   5.879  15.225 -0.0256 -0.7054 -1.1074
  145DOPC  C21017237   3.732   5.794  15.107  0.4107 -0.0352 -0.8387
  145DOPC  H10R17238   3.714   5.702  15.164  2.1172  0.5629  0.8001
  145DOPC  C21117239   3.844   5.791  15.005 -0.2738 -0.2540 -0.0186
  145DOPC  H11R17240   3.889   5.893  15.001 -0.1013 -0.3772 -2.5216
  145DOPC  H11S17241   3.802   5.778  14.903 -0.4544  0.7199 -0.0824
  145DOPC  C21217242   3.950   5.683  15.047 -0.0672 -0.0936 -0.0357
  145DOPC  H12R17243   3.906   5.581  15.043 -1.2130  0.4148 -1.7060
  145DOPC  H12S17244   3.980   5.715  15.149 -1.0196  1.2800 -0.1656
  145DOPC  C21317245   4.068   5.674  14.955 -0.1414 -0.0575 -0.1445
  145DOPC  H13R17246   4.103   5.769  14.909 -1.8698  2.2980  2.9950
  145DOPC  H13S17247   4.033   5.625  14.862  2.4694 -0.2053 -1.1432
  145DOPC  C21417248   4.177   5.591  15.019 -0.2289 -0.9536 -0.4165
  145DOPC  H14R17249   4.126   5.505  15.065 -1.5451 -0.3950 -0.7899
  145DOPC  H14S17250   4.231   5.644  15.101  0.0992  0.7404 -1.6527
  145DOPC  C21517251   4.273   5.541  14.913  0.0182  0.0794  0.4682
  145DOPC  H15R17252   4.318   5.623  14.853  0.6832 -0.0582  0.7760
  145DOPC  H15S17253   4.226   5.478  14.835 -1.7513  1.7069  0.1558
  145DOPC  C21617254   4.383   5.454  14.976 -0.4012  0.2428 -0.2783
  145DOPC  H16R17255   4.337   5.365  15.023  0.9515  0.0878  0.8288
  145DOPC  H16S17256   4.432   5.513  15.056  0.3563  0.2466 -0.7299
  145DOPC  C21717257   4.480   5.411  14.868  0.3625  0.1610  0.5418
  145DOPC  H17R17258   4.529   5.500  14.823  0.1467  1.1959  2.2708
  145DOPC  H17S17259   4.410   5.368  14.793 -0.5752  2.8036 -0.2035
  145DOPC  C21817260   4.592   5.311  14.899  1.1945 -0.3224 -0.3362
  145DOPC  H18R17261   4.656   5.340  14.985 -1.0952 -1.2322  1.8233
  145DOPC  H18S17262   4.656   5.291  14.811  2.2352  0.2114  0.2737
  145DOPC  H18T17263   4.542   5.215  14.928  3.5029 -1.2310  0.9269
  145DOPC   C3317264   3.202   6.395  15.153 -0.1175 -0.0396 -0.1616
  145DOPC   H3X17265   3.244   6.325  15.077 -1.5571 -1.2329  0.0999
  145DOPC   H3Y17266   3.286   6.422  15.221 -2.3317  3.1440  1.5840
  145DOPC   C3417267   3.165   6.529  15.090  0.2684 -0.8661  0.0920
  145DOPC   H4X17268   3.115   6.594  15.167  2.2582 -0.8641  1.4558
  145DOPC   H4Y17269   3.084   6.507  15.018 -1.6100 -0.5705  1.9889
  145DOPC   C3517270   3.267   6.602  15.008 -0.3233 -0.2202  0.2456
  145DOPC   H5X17271   3.277   6.549  14.911  0.0949 -0.4586  0.4156
  145DOPC   H5Y17272   3.361   6.597  15.067 -0.4657 -0.3116  0.4706
  145DOPC   C3617273   3.228   6.754  14.988  0.3733 -0.5671 -0.1033
  145DOPC   H6X17274   3.146   6.755  14.912  1.0573  1.2370 -0.8571
  145DOPC   H6Y17275   3.190   6.789  15.086  0.9226  1.9668 -0.7246
  145DOPC   C3717276   3.346   6.842  14.944 -0.3116 -0.8822 -0.3197
  145DOPC   H7X17277   3.320   6.950  14.942 -0.4935 -0.9285 -0.5229
  145DOPC   H7Y17278   3.421   6.824  15.023 -3.0997  0.8994  2.9922
  145DOPC   C3817279   3.390   6.802  14.800 -0.2940  0.0347  0.8021
  145DOPC   H8X17280   3.298   6.788  14.738  0.5380 -0.5291 -0.3403
  145DOPC   H8Y17281   3.430   6.698  14.795  0.4515  0.3396  0.4025
  145DOPC   C3917282   3.473   6.912  14.738 -0.4523  0.3087 -0.1059
  145DOPC   H9X17283   3.416   6.985  14.679  3.0803  1.7823 -2.0352
  145DOPC  C31017284   3.607   6.928  14.745  0.0896 -0.1065 -0.2592
  145DOPC  H10X17285   3.650   7.021  14.703 -0.1119  0.3157  0.4461
  145DOPC  C31117286   3.701   6.840  14.826 -0.3770  0.3016  0.3445
  145DOPC  H11X17287   3.648   6.780  14.903 -1.5957  2.7331  1.5113
  145DOPC  H11Y17288   3.778   6.899  14.880  1.0132 -1.4635  0.4068
  145DOPC  C31217289   3.775   6.726  14.749 -0.9218  0.1235 -0.3004
  145DOPC  H12X17290   3.835   6.775  14.670  2.2394 -1.6420  0.8181
  145DOPC  H12Y17291   3.695   6.665  14.701 -1.3980  0.5068 -0.0079
  145DOPC  C31317292   3.865   6.647  14.839  0.5928  0.1133 -0.3635
  145DOPC  H13X17293   3.942   6.710  14.889 -0.3444  1.1361 -0.1598
  145DOPC  H13Y17294   3.802   6.598  14.916  1.7114 -0.8279 -0.0254
  145DOPC  C31417295   3.936   6.538  14.757 -0.1010  0.1768 -0.3148
  145DOPC  H14X17296   3.995   6.469  14.821  0.5676  1.0313  0.0213
  145DOPC  H14Y17297   3.868   6.476  14.696  3.8397 -1.5204 -3.4424
  145DOPC  C31517298   4.040   6.593  14.658 -0.4108 -0.3347 -0.0393
  145DOPC  H15X17299   4.115   6.654  14.713  0.6184 -1.0402 -0.6179
  145DOPC  H15Y17300   3.980   6.669  14.603  2.5525  0.9999 -1.6201
  145DOPC  C31617301   4.112   6.486  14.578 -0.1328 -0.5566  0.1059
  145DOPC  H16X17302   4.165   6.536  14.493  1.2424 -0.7907  0.7939
  145DOPC  H16Y17303   4.194   6.449  14.644  0.2573  0.9954  0.5563
  145DOPC  C31717304   4.027   6.368  14.518  0.3324 -0.3856 -0.4608
  145DOPC  H17X17305   3.994   6.313  14.608 -2.1384 -0.4684 -1.3306
  145DOPC  H17Y17306   3.931   6.398  14.471 -0.0447 -1.3703 -0.3466
  145DOPC  C31817307   4.098   6.282  14.418  0.0530  0.7036 -0.5045
  145DOPC  H18X17308   4.191   6.251  14.469 -0.8316  2.3606  2.3377
  145DOPC  H18Y17309   4.048   6.190  14.382 -0.1337  0.5862  0.0519
  145DOPC  H18Z17310   4.118   6.332  14.320 -1.3742 -1.9210 -2.2555
  146DOPC     N17311   5.910   3.666  16.166  0.1413  0.1244 -0.0065
  146DOPC   C1217312   5.806   3.772  16.122 -0.1927  0.0145  0.3924
  146DOPC  H12A17313   5.803   3.849  16.197  0.2382  1.0941 -0.6546
  146DOPC  H12B17314   5.709   3.727  16.134 -0.0008 -0.9656 -1.3300
  146DOPC   C1317315   5.923   3.557  16.067 -0.1148  0.0255  0.4814
  146DOPC  H13A17316   5.867   3.471  16.099 -1.7646  0.7550 -0.3415
  146DOPC  H13B17317   5.889   3.584  15.968  1.7283  2.1689  0.3505
  146DOPC  H13C17318   6.024   3.520  16.059  0.5485  1.2765  2.3735
  146DOPC   C1417319   5.873   3.611  16.303 -0.4905 -0.6216 -0.0352
  146DOPC  H14A17320   5.928   3.518  16.314  1.2704  0.6684  3.5497
  146DOPC  H14B17321   5.905   3.678  16.381  1.5832  0.2410 -1.5269
  146DOPC  H14C17322   5.768   3.588  16.308 -0.4664 -0.4210  2.7929
  146DOPC   C1517323   6.038   3.740  16.169  0.1477 -0.4346  0.3604
  146DOPC  H15A17324   6.112   3.690  16.229 -1.5731  0.8197  3.8447
  146DOPC  H15B17325   6.030   3.839  16.213 -0.1371 -1.6077  3.1297
  146DOPC  H15C17326   6.082   3.757  16.072 -2.2248  0.1346 -0.7031
  146DOPC   C1117327   5.816   3.827  15.977  0.4568  0.7071  1.3720
  146DOPC  H11A17328   5.747   3.913  15.960  0.6051  0.4959 -0.4959
  146DOPC  H11B17329   5.918   3.869  15.962  0.1903  1.3069  1.2099
  146DOPC     P17330   5.655   3.673  15.828 -0.2419 -0.0232  0.1362
  146DOPC   O1317331   5.566   3.667  15.946  0.5317  0.1913 -1.1552
  146DOPC   O1417332   5.679   3.546  15.758 -0.4068  0.0784 -0.2932
  146DOPC   O1217333   5.801   3.721  15.874 -0.0702  0.2290  0.0231
  146DOPC   O1117334   5.604   3.779  15.728  0.2668  0.6319  0.2693
  146DOPC    C117335   5.685   3.874  15.657 -0.2777 -0.3883  0.1298
  146DOPC    HA17336   5.766   3.821  15.603 -0.0692 -0.4819  0.5273
  146DOPC    HB17337   5.738   3.944  15.726  0.7905 -1.6707  0.6541
  146DOPC    C217338   5.610   3.950  15.541 -0.7478 -0.0599  0.0352
  146DOPC    HS17339   5.525   4.006  15.586 -0.2724  0.2505  0.5544
  146DOPC   O2117340   5.570   3.850  15.441 -0.6193  0.1838  0.0870
  146DOPC   C2117341   5.480   3.891  15.355 -0.4240 -0.0139  0.2147
  146DOPC   O2217342   5.408   3.994  15.368 -0.0886  0.2478 -0.0933
  146DOPC   C2217343   5.460   3.786  15.243  0.3596 -0.2217 -0.3349
  146DOPC   H2R17344   5.410   3.708  15.304  0.2260  0.3885  0.3486
  146DOPC   H2S17345   5.561   3.758  15.208  0.0175  1.5057 -2.9498
  146DOPC    C317346   5.703   4.056  15.478 -0.0397 -0.7324  0.1555
  146DOPC    HX17347   5.727   4.123  15.563  1.2194 -0.9268 -0.0299
  146DOPC    HY17348   5.646   4.110  15.399  1.4020  1.1842  0.3468
  146DOPC   O3117349   5.810   4.001  15.403  0.4484 -0.3221 -0.5486
  146DOPC   C3117350   5.935   4.014  15.452  0.6707 -0.4723  0.0350
  146DOPC   O3217351   5.972   4.099  15.531  0.1019  0.4010  0.1247
  146DOPC   C3217352   6.020   3.917  15.387  0.7616  0.5348  0.1808
  146DOPC   H2X17353   6.044   3.836  15.459  1.6641 -0.7392 -1.4581
  146DOPC   H2Y17354   5.947   3.877  15.312 -0.5639  0.4708  1.4485
  146DOPC   C2317355   5.369   3.822  15.119  0.0264 -0.2215  0.3817
  146DOPC   H3R17356   5.265   3.858  15.137  0.2354  0.8624 -0.5383
  146DOPC   H3S17357   5.358   3.727  15.062  0.4355  1.0951 -1.9738
  146DOPC   C2417358   5.425   3.921  15.017 -0.7252 -0.1991 -0.2058
  146DOPC   H4R17359   5.535   3.909  15.008 -0.1267  3.8788 -0.0870
  146DOPC   H4S17360   5.405   4.026  15.049  0.9375  0.0639  0.0705
  146DOPC   C2517361   5.365   3.895  14.880  0.2864 -0.1709  0.1243
  146DOPC   H5R17362   5.255   3.907  14.893  0.2224 -0.4907 -0.1106
  146DOPC   H5S17363   5.382   3.795  14.836 -0.1972 -0.1695 -0.0757
  146DOPC   C2617364   5.413   3.993  14.771  0.4243  0.7340  0.4768
  146DOPC   H6R17365   5.515   3.960  14.741  0.0386  0.3956 -0.4960
  146DOPC   H6S17366   5.412   4.095  14.816 -0.3785  1.3421 -0.8488
  146DOPC   C2717367   5.317   3.992  14.653  0.8264  0.5271 -0.8587
  146DOPC   H7R17368   5.221   4.035  14.688  1.6494  0.8338  1.1848
  146DOPC   H7S17369   5.305   3.884  14.629  0.9449 -0.6898  3.6081
  146DOPC   C2817370   5.373   4.070  14.533  0.0136  0.5774  0.6209
  146DOPC   H8R17371   5.481   4.057  14.512 -0.4713 -0.6579 -1.3514
  146DOPC   H8S17372   5.371   4.176  14.569  1.9213  0.5835  0.8334
  146DOPC   C2917373   5.284   4.059  14.403 -0.1462 -0.0615 -0.4121
  146DOPC   H9R17374   5.186   4.012  14.417  0.2661 -0.5119  1.2759
  146DOPC  C21017375   5.325   4.100  14.286 -0.7022 -0.5749  1.0993
  146DOPC  H10R17376   5.259   4.091  14.198 -0.5447  1.5084  0.7177
  146DOPC  C21117377   5.455   4.168  14.242  0.7611 -0.2512 -0.1772
  146DOPC  H11R17378   5.521   4.186  14.330  0.8008  0.2703 -0.3130
  146DOPC  H11S17379   5.437   4.268  14.199 -1.4986 -0.5400 -0.0177
  146DOPC  C21217380   5.529   4.077  14.142  0.2513  0.4295  0.7950
  146DOPC  H12R17381   5.547   3.982  14.196  0.5545  0.0501  0.0281
  146DOPC  H12S17382   5.626   4.122  14.112  0.2801 -1.9827 -3.4787
  146DOPC  C21317383   5.452   4.049  14.013 -0.5035  0.4575  0.2000
  146DOPC  H13R17384   5.411   4.140  13.966 -0.3324 -0.7424 -2.4713
  146DOPC  H13S17385   5.359   3.995  14.042 -0.3152  1.4679  2.8814
  146DOPC  C21417386   5.535   3.964  13.920  0.1760  0.0967 -0.2773
  146DOPC  H14R17387   5.471   3.892  13.865 -0.0289  0.1766 -0.1406
  146DOPC  H14S17388   5.599   3.899  13.984 -0.3134  0.2991  0.4295
  146DOPC  C21517389   5.613   4.061  13.823  0.1263 -0.0653 -0.2441
  146DOPC  H15R17390   5.688   4.124  13.875  0.8429 -0.6397 -0.5691
  146DOPC  H15S17391   5.544   4.130  13.770  1.8221  1.3102 -0.7704
  146DOPC  C21617392   5.702   4.000  13.715 -0.0826  0.3502  0.0786
  146DOPC  H16R17393   5.646   3.921  13.661  0.9483 -0.3314 -0.0359
  146DOPC  H16S17394   5.789   3.952  13.766  0.2957  0.0526 -0.8250
  146DOPC  C21717395   5.747   4.103  13.614 -0.1022 -0.7126  0.5888
  146DOPC  H17R17396   5.823   4.174  13.652  0.5998 -1.7989  1.3083
  146DOPC  H17S17397   5.656   4.164  13.598 -0.7356 -2.1384 -1.7074
  146DOPC  C21817398   5.783   4.054  13.476 -0.8395 -0.1357  0.3357
  146DOPC  H18R17399   5.804   4.132  13.400 -0.5142  0.6375  1.1932
  146DOPC  H18S17400   5.702   3.987  13.440  1.7591 -1.7757 -3.0918
  146DOPC  H18T17401   5.871   3.988  13.492  0.0880  0.8003 -0.7263
  146DOPC   C3317402   6.144   3.972  15.331  0.2893  0.0032  0.3127
  146DOPC   H3X17403   6.124   4.056  15.260  1.1254 -0.2345 -0.2139
  146DOPC   H3Y17404   6.187   3.890  15.271 -1.1790 -0.6885  0.1536
  146DOPC   C3417405   6.268   3.999  15.428  0.7489  0.3914 -0.9185
  146DOPC   H4X17406   6.245   4.084  15.496 -0.2154  0.3334 -1.1658
  146DOPC   H4Y17407   6.343   4.017  15.348 -0.5955  1.9247 -1.8967
  146DOPC   C3517408   6.296   3.882  15.522  0.6691 -0.4826 -0.1767
  146DOPC   H5X17409   6.294   3.788  15.464  2.4732 -1.4778  1.2546
  146DOPC   H5Y17410   6.223   3.874  15.606  1.9546  1.7486  1.2785
  146DOPC   C3617411   6.438   3.878  15.583  0.8332  0.3721  1.5783
  146DOPC   H6X17412   6.466   3.774  15.611 -0.8706 -0.3232  0.8555
  146DOPC   H6Y17413   6.504   3.918  15.504 -3.5006  2.9172 -1.1752
  146DOPC   C3717414   6.453   3.958  15.715  0.1476 -0.0089 -0.1569
  146DOPC   H7X17415   6.379   3.925  15.792 -0.9415 -1.0890 -1.6071
  146DOPC   H7Y17416   6.549   3.928  15.763  0.2368  0.7724  0.1687
  146DOPC   C3817417   6.448   4.114  15.701  0.2916 -0.7135 -0.6302
  146DOPC   H8X17418   6.441   4.150  15.806  2.4736 -1.2736 -0.2339
  146DOPC   H8Y17419   6.350   4.141  15.657 -0.9570  0.1452  2.4479
  146DOPC   C3917420   6.566   4.183  15.658 -0.0748 -0.1766 -0.0840
  146DOPC   H9X17421   6.656   4.175  15.721 -0.3321 -4.3279  0.0349
  146DOPC  C31017422   6.577   4.269  15.556 -0.5502 -0.0500  0.1033
  146DOPC  H10X17423   6.666   4.331  15.539 -0.2085 -0.4220  0.5251
  146DOPC  C31117424   6.474   4.301  15.451  0.7010  0.3660 -0.0250
  146DOPC  H11X17425   6.459   4.410  15.442 -2.3323 -0.0594 -1.3457
  146DOPC  H11Y17426   6.376   4.260  15.484  1.8120 -1.3802  1.2646
  146DOPC  C31217427   6.505   4.239  15.315 -0.6610 -0.1279 -0.4878
  146DOPC  H12X17428   6.403   4.236  15.272 -0.9706 -0.7532  0.2732
  146DOPC  H12Y17429   6.536   4.132  15.316  0.6927  0.2034 -2.4101
  146DOPC  C31317430   6.594   4.324  15.218 -0.5048 -0.1274 -0.6829
  146DOPC  H13X17431   6.553   4.427  15.215 -0.2420  0.0309  0.4913
  146DOPC  H13Y17432   6.696   4.337  15.260 -0.4980  1.9286 -1.2290
  146DOPC  C31417433   6.587   4.272  15.071 -0.4275 -0.0011  0.2264
  146DOPC  H14X17434   6.621   4.166  15.074 -2.3876 -0.7134 -0.8251
  146DOPC  H14Y17435   6.483   4.265  15.032 -0.4725 -2.2895  0.6006
  146DOPC  C31517436   6.674   4.348  14.973 -0.3118 -0.2529 -0.1820
  146DOPC  H15X17437   6.780   4.330  15.001 -0.6454 -0.8648  0.7018
  146DOPC  H15Y17438   6.676   4.459  14.978  1.3408 -0.3081  1.4879
  146DOPC  C31617439   6.652   4.298  14.831 -0.3262  0.0192  0.5588
  146DOPC  H16X17440   6.645   4.187  14.825 -1.6530  0.1500 -0.8022
  146DOPC  H16Y17441   6.553   4.335  14.797 -0.6011 -0.6007  0.6687
  146DOPC  C31717442   6.762   4.331  14.730 -0.0232  0.8416 -0.4919
  146DOPC  H17X17443   6.715   4.328  14.629  0.8293  3.4611 -1.0397
  146DOPC  H17Y17444   6.796   4.437  14.735  2.1386  0.1838 -0.2708
  146DOPC  C31817445   6.894   4.246  14.733 -0.0234  0.4030 -0.3960
  146DOPC  H18X17446   6.925   4.216  14.835 -0.3254 -0.1560 -0.4645
  146DOPC  H18Y17447   6.880   4.152  14.675  1.1916 -0.2550  0.3430
  146DOPC  H18Z17448   6.975   4.298  14.677  1.9907 -1.5847  0.5379
  147DOPC     N17449   4.305   1.444  15.735 -0.8020 -0.2241 -0.1553
  147DOPC   C1217450   4.395   1.567  15.756  0.7940 -0.3707  0.4934
  147DOPC  H12A17451   4.494   1.529  15.733 -0.5146 -3.1311 -1.0056
  147DOPC  H12B17452   4.382   1.589  15.861  0.6056 -0.7348  0.5455
  147DOPC   C1317453   4.316   1.393  15.595 -0.5245  0.3747  0.3771
  147DOPC  H13A17454   4.415   1.354  15.576  1.2230  3.6431  1.8205
  147DOPC  H13B17455   4.256   1.305  15.577 -0.7945  0.8142 -0.9069
  147DOPC  H13C17456   4.302   1.467  15.518  0.1055 -2.0038 -2.1585
  147DOPC   C1417457   4.169   1.493  15.768 -0.9140 -0.7342  0.3260
  147DOPC  H14A17458   4.170   1.526  15.871  1.7901  1.2079 -0.2306
  147DOPC  H14B17459   4.143   1.577  15.706  0.4997  0.6417  1.5078
  147DOPC  H14C17460   4.100   1.411  15.752 -0.8094 -1.1732  1.8991
  147DOPC   C1517461   4.342   1.338  15.838 -0.1164  0.0062 -0.4165
  147DOPC  H15A17462   4.428   1.284  15.801  0.7779  0.0155  1.5029
  147DOPC  H15B17463   4.260   1.275  15.870 -0.2767  1.0677  1.4409
  147DOPC  H15C17464   4.383   1.379  15.929  1.0781 -1.8570 -0.0473
  147DOPC   C1117465   4.372   1.691  15.668 -1.2862 -0.2016  0.5633
  147DOPC  H11A17466   4.445   1.766  15.706 -0.0342 -1.2187  0.2302
  147DOPC  H11B17467   4.392   1.679  15.559 -1.5575  3.5117 -0.0386
  147DOPC     P17468   4.184   1.884  15.655 -0.0181 -0.4647 -0.1376
  147DOPC   O1317469   4.237   1.980  15.750 -1.1122 -0.1958 -0.2972
  147DOPC   O1417470   4.038   1.860  15.663 -0.1378 -0.6255 -0.5993
  147DOPC   O1217471   4.244   1.737  15.677 -0.4028 -0.0439  0.4215
  147DOPC   O1117472   4.228   1.923  15.508  0.1364 -0.2729 -0.1126
  147DOPC    C117473   4.146   1.889  15.397 -0.0611  0.1680  0.1900
  147DOPC    HA17474   4.154   1.970  15.321 -0.3349 -0.7229 -0.8157
  147DOPC    HB17475   4.042   1.866  15.426 -0.5362 -0.4091 -1.8019
  147DOPC    C217476   4.183   1.749  15.337  0.1512 -0.6359  0.6918
  147DOPC    HS17477   4.169   1.675  15.419  0.0258 -0.7359  0.5829
  147DOPC   O2117478   4.318   1.747  15.283  0.2421 -0.3071 -0.3808
  147DOPC   C2117479   4.385   1.632  15.285  0.2971  0.4606  0.9591
  147DOPC   O2217480   4.342   1.521  15.313 -0.2242 -0.7094 -0.0292
  147DOPC   C2217481   4.516   1.654  15.209 -0.1378 -0.4945  0.2826
  147DOPC   H2R17482   4.543   1.761  15.198 -1.9964 -0.0797 -0.5584
  147DOPC   H2S17483   4.497   1.630  15.102  2.1700 -0.7494 -0.1387
  147DOPC    C317484   4.088   1.704  15.226  0.6120 -0.0281 -0.4545
  147DOPC    HX17485   3.987   1.691  15.270  0.6832 -0.6223 -0.4704
  147DOPC    HY17486   4.120   1.607  15.184  0.3586  0.9053 -2.9908
  147DOPC   O3117487   4.077   1.800  15.118 -0.1726 -0.1180 -0.0938
  147DOPC   C3117488   4.170   1.775  15.018  0.2476  0.6242 -0.9907
  147DOPC   O3217489   4.256   1.690  15.017 -0.2273  0.6736 -0.2700
  147DOPC   C3217490   4.138   1.864  14.898  0.1356 -0.0280 -0.7531
  147DOPC   H2X17491   4.032   1.837  14.875 -0.4512 -0.8358  2.4051
  147DOPC   H2Y17492   4.144   1.969  14.933 -2.1169 -1.0266  3.2022
  147DOPC   C2317493   4.643   1.584  15.268  0.0026  0.1109  0.0307
  147DOPC   H3R17494   4.616   1.479  15.293  0.4570 -0.5715 -2.0927
  147DOPC   H3S17495   4.654   1.643  15.362 -0.5357 -0.7795  0.6657
  147DOPC   C2417496   4.766   1.592  15.176 -0.0517 -0.1216 -0.2628
  147DOPC   H4R17497   4.774   1.701  15.154  0.4755 -0.1949 -0.4565
  147DOPC   H4S17498   4.746   1.548  15.076 -1.3974 -2.9682  1.1504
  147DOPC   C2517499   4.899   1.545  15.231 -0.4477 -0.7669 -0.8654
  147DOPC   H5R17500   4.908   1.435  15.241  1.3910 -0.7129 -1.6057
  147DOPC   H5S17501   4.918   1.582  15.334  0.8446 -2.3923 -0.4813
  147DOPC   C2617502   5.019   1.588  15.145  0.6684  0.9158 -0.0060
  147DOPC   H6R17503   5.031   1.698  15.148  1.9102  0.8014 -0.2081
  147DOPC   H6S17504   5.003   1.554  15.040  0.1318  1.7924 -0.2180
  147DOPC   C2717505   5.150   1.536  15.201 -0.2696 -0.2443  0.0276
  147DOPC   H7R17506   5.150   1.425  15.203 -0.2410 -0.3425 -2.5401
  147DOPC   H7S17507   5.168   1.577  15.303  2.8511 -1.3965  0.0388
  147DOPC   C2817508   5.271   1.572  15.109 -1.0100 -0.6937 -0.4854
  147DOPC   H8R17509   5.279   1.681  15.087  0.3363 -0.9058 -1.1471
  147DOPC   H8S17510   5.257   1.527  15.009 -0.6710 -1.4447 -0.2064
  147DOPC   C2917511   5.403   1.517  15.155 -0.0456  0.3842  0.6862
  147DOPC   H9R17512   5.452   1.584  15.227  0.5918  1.1231 -0.4161
  147DOPC  C21017513   5.468   1.402  15.116 -0.5575 -0.5477  0.2699
  147DOPC  H10R17514   5.572   1.386  15.149  0.6881  0.9385 -2.5818
  147DOPC  C21117515   5.417   1.293  15.023  0.2218  0.4978 -0.2458
  147DOPC  H11R17516   5.319   1.331  14.985 -1.3945 -3.1985 -0.2795
  147DOPC  H11S17517   5.400   1.200  15.082  0.2687  0.0041 -0.9887
  147DOPC  C21217518   5.509   1.261  14.902  0.4857 -0.7462  0.2335
  147DOPC  H12R17519   5.612   1.232  14.934  0.8550  0.1501 -0.1079
  147DOPC  H12S17520   5.519   1.361  14.855 -0.1597 -0.9059 -0.2597
  147DOPC  C21317521   5.462   1.167  14.790 -0.6248  0.4698 -0.1647
  147DOPC  H13R17522   5.533   1.185  14.706 -0.5809 -0.1190 -0.2590
  147DOPC  H13S17523   5.353   1.183  14.774 -1.1728  0.3876  2.8918
  147DOPC  C21417524   5.475   1.015  14.817 -0.0504  0.4283  0.4440
  147DOPC  H14R17525   5.440   0.998  14.921  0.8186  0.0199  0.6823
  147DOPC  H14S17526   5.582   0.984  14.810 -0.0899  0.0245  1.4080
  147DOPC  C21517527   5.393   0.930  14.717 -0.1439 -0.2431 -0.3247
  147DOPC  H15R17528   5.289   0.970  14.708 -0.7514 -1.5364  0.5534
  147DOPC  H15S17529   5.385   0.828  14.758 -0.8147  0.1277  0.5055
  147DOPC  C21617530   5.440   0.933  14.571 -0.0708 -0.0738  0.0990
  147DOPC  H16R17531   5.446   1.038  14.537 -0.5926  0.1917  0.8113
  147DOPC  H16S17532   5.361   0.882  14.512 -2.7663  3.4597  0.3299
  147DOPC  C21717533   5.578   0.868  14.536 -0.4427 -0.3922 -0.2404
  147DOPC  H17R17534   5.661   0.929  14.578 -1.1637  0.5322 -0.1527
  147DOPC  H17S17535   5.590   0.859  14.426 -1.7397 -1.0597 -0.3366
  147DOPC  C21817536   5.600   0.721  14.589  0.1383 -0.2669 -0.3587
  147DOPC  H18R17537   5.705   0.689  14.574  0.3936 -0.7829  2.0972
  147DOPC  H18S17538   5.524   0.660  14.536 -1.6692 -0.0006  1.7626
  147DOPC  H18T17539   5.577   0.713  14.698 -0.8127 -0.8407 -0.5970
  147DOPC   C3317540   4.236   1.829  14.785  0.0870 -0.1157 -0.0641
  147DOPC   H3X17541   4.212   1.728  14.745 -0.8601  0.1765 -0.2514
  147DOPC   H3Y17542   4.339   1.823  14.827 -0.6768 -4.5210  1.7473
  147DOPC   C3417543   4.226   1.925  14.671 -0.1186 -0.3543 -0.1500
  147DOPC   H4X17544   4.298   1.906  14.589 -0.5859 -1.5210 -0.3158
  147DOPC   H4Y17545   4.251   2.029  14.699  3.0433 -1.1130  0.1735
  147DOPC   C3517546   4.085   1.931  14.616  0.4993  0.1491 -0.2886
  147DOPC   H5X17547   4.012   1.977  14.687  0.1505  0.2934 -0.7331
  147DOPC   H5Y17548   4.062   1.824  14.599  2.0267 -0.1704 -0.4174
  147DOPC   C3617549   4.070   1.996  14.477 -0.3508  0.5755 -0.7118
  147DOPC   H6X17550   4.139   1.936  14.415  0.4950 -0.0843  0.7947
  147DOPC   H6Y17551   3.964   1.992  14.444 -0.2773  1.1370 -1.0271
  147DOPC   C3717552   4.100   2.144  14.469 -0.4885 -0.4436 -0.0208
  147DOPC   H7X17553   4.024   2.205  14.523  0.4339  0.6923  0.0345
  147DOPC   H7Y17554   4.196   2.149  14.525 -0.8333  0.1923  0.5360
  147DOPC   C3817555   4.100   2.204  14.330  0.1617 -0.1185 -0.0257
  147DOPC   H8X17556   4.000   2.191  14.285 -0.9899  2.8676  1.4191
  147DOPC   H8Y17557   4.165   2.148  14.260 -1.6381 -1.3335 -0.7859
  147DOPC   C3917558   4.136   2.354  14.333 -0.2957 -0.3003  0.0519
  147DOPC   H9X17559   4.074   2.423  14.392  0.3469 -0.9083  1.4918
  147DOPC  C31017560   4.255   2.404  14.297  0.0760 -0.2209  0.1517
  147DOPC  H10X17561   4.266   2.512  14.311  0.1020 -0.3505  1.2916
  147DOPC  C31117562   4.374   2.344  14.228 -0.3286  0.3365  0.9518
  147DOPC  H11X17563   4.398   2.400  14.134 -1.2296 -0.5683  0.1639
  147DOPC  H11Y17564   4.344   2.243  14.194  2.0539 -1.6009  4.0326
  147DOPC  C31217565   4.501   2.310  14.311  0.0717 -0.2420  0.4196
  147DOPC  H12X17566   4.541   2.401  14.361  1.4265 -0.4458 -0.2476
  147DOPC  H12Y17567   4.577   2.275  14.238 -0.8381 -1.8488  0.1787
  147DOPC  C31317568   4.474   2.196  14.409  0.2785 -0.0262  0.0004
  147DOPC  H13X17569   4.388   2.233  14.469  1.4049  1.8869  0.5258
  147DOPC  H13Y17570   4.444   2.101  14.361 -1.7924  0.8562 -0.5489
  147DOPC  C31417571   4.584   2.160  14.516  0.0503 -1.0481 -0.2539
  147DOPC  H14X17572   4.689   2.149  14.483  0.3774 -1.4651  0.8760
  147DOPC  H14Y17573   4.576   2.244  14.589 -4.2722 -0.1788 -1.4072
  147DOPC  C31517574   4.556   2.041  14.598  0.1430 -0.0680 -0.1744
  147DOPC  H15X17575   4.558   1.951  14.532  1.4770 -1.0660  1.1626
  147DOPC  H15Y17576   4.453   2.056  14.636  0.1810  0.9798 -0.4573
  147DOPC  C31617577   4.657   2.016  14.711  0.3012  0.4582 -0.2747
  147DOPC  H16X17578   4.757   2.010  14.664  0.6268  3.7286 -0.2348
  147DOPC  H16Y17579   4.654   2.097  14.787  0.0057 -0.0442  0.2576
  147DOPC  C31717580   4.625   1.886  14.786  0.0582  1.0083 -0.2362
  147DOPC  H17X17581   4.526   1.892  14.836  1.5269 -0.4324  3.1697
  147DOPC  H17Y17582   4.636   1.801  14.715  0.4577  1.0771 -0.2604
  147DOPC  C31817583   4.722   1.865  14.900 -0.5142  1.3295  0.1529
  147DOPC  H18X17584   4.673   1.818  14.988 -1.2822 -0.1917 -1.0490
  147DOPC  H18Y17585   4.792   1.783  14.871  0.0182  0.8702  2.5207
  147DOPC  H18Z17586   4.775   1.958  14.931  1.8459 -0.0587  0.5561
  148DOPC     N17587   1.420   6.150  16.189  0.1845 -0.7147  0.0984
  148DOPC   C1217588   1.500   6.157  16.056  0.0717  0.0486 -0.2410
  148DOPC  H12A17589   1.438   6.119  15.976 -1.0121 -0.1466  0.6779
  148DOPC  H12B17590   1.589   6.096  16.063  0.0330  0.1681  1.9915
  148DOPC   C1317591   1.491   6.214  16.301 -0.3653  0.5009 -0.0333
  148DOPC  H13A17592   1.525   6.313  16.275  1.0358  0.1333  0.3492
  148DOPC  H13B17593   1.425   6.219  16.386 -0.9906 -1.0294 -0.3965
  148DOPC  H13C17594   1.578   6.157  16.328 -0.6650  0.0786  0.0383
  148DOPC   C1417595   1.395   6.008  16.218 -0.1745  0.4269  0.2549
  148DOPC  H14A17596   1.356   5.951  16.135  0.6713  0.9004 -0.4785
  148DOPC  H14B17597   1.483   5.961  16.258 -0.7238 -0.4397  0.4909
  148DOPC  H14C17598   1.327   5.994  16.301 -1.5927 -1.7440 -1.1725
  148DOPC   C1517599   1.284   6.216  16.171 -0.1877  0.7807  0.0734
  148DOPC  H15A17600   1.298   6.316  16.133  0.2077  1.5864  2.1970
  148DOPC  H15B17601   1.229   6.225  16.264 -1.9942  0.7835 -0.9344
  148DOPC  H15C17602   1.218   6.160  16.106  0.7952  1.2524 -1.3747
  148DOPC   C1117603   1.553   6.291  16.009 -0.0423 -0.6801 -0.5429
  148DOPC  H11A17604   1.594   6.276  15.907 -0.9225 -0.4855 -0.9364
  148DOPC  H11B17605   1.473   6.368  16.009  1.6567  1.1623  0.2669
  148DOPC     P17606   1.787   6.278  16.129  0.2659 -0.1123  0.2172
  148DOPC   O1317607   1.795   6.147  16.060 -0.3180  0.4387 -0.0013
  148DOPC   O1417608   1.828   6.293  16.265 -0.2090 -0.1069  0.1840
  148DOPC   O1217609   1.648   6.338  16.103  0.2894 -0.2857  0.5301
  148DOPC   O1117610   1.882   6.375  16.039 -0.0911 -0.2158 -0.1984
  148DOPC    C117611   1.882   6.352  15.898 -0.1755 -0.1415  0.9754
  148DOPC    HA17612   1.780   6.347  15.854 -0.5569  3.1777  1.2205
  148DOPC    HB17613   1.931   6.254  15.882  0.6796  0.4167  0.0166
  148DOPC    C217614   1.947   6.471  15.820 -0.2069 -0.1911 -0.0494
  148DOPC    HS17615   1.946   6.561  15.885  0.9969 -2.6341  3.6807
  148DOPC   O2117616   1.898   6.491  15.684  0.3990  0.2025  0.0150
  148DOPC   C2117617   1.785   6.562  15.686  0.5726 -0.5006  0.6269
  148DOPC   O2217618   1.733   6.608  15.785 -0.0129  0.2745 -0.0613
  148DOPC   C2217619   1.730   6.583  15.541 -0.3027 -0.4297  0.7199
  148DOPC   H2R17620   1.816   6.606  15.474 -1.8318 -0.5874 -1.3915
  148DOPC   H2S17621   1.675   6.679  15.547  3.1154  1.6624  1.1801
  148DOPC    C317622   2.097   6.450  15.822  0.4497 -0.0786  0.1055
  148DOPC    HX17623   2.130   6.439  15.927  1.4413  0.4353 -0.1462
  148DOPC    HY17624   2.130   6.540  15.766 -3.2686  0.7838 -0.9740
  148DOPC   O3117625   2.130   6.331  15.751  0.1423 -0.2549  0.1333
  148DOPC   C3117626   2.261   6.302  15.758 -0.1855  0.4357  0.3812
  148DOPC   O3217627   2.342   6.376  15.818  0.3650 -0.4255  0.3020
  148DOPC   C3217628   2.290   6.170  15.672 -0.5665  0.0611 -0.3099
  148DOPC   H2X17629   2.265   6.087  15.741  0.6250 -0.6628 -0.7322
  148DOPC   H2Y17630   2.222   6.171  15.584 -0.9368 -0.9131 -0.0441
  148DOPC   C2317631   1.643   6.471  15.490  0.0376  0.0241 -0.3153
  148DOPC   H3R17632   1.692   6.375  15.514 -1.6574 -1.1217 -1.2701
  148DOPC   H3S17633   1.617   6.476  15.382 -0.5749 -1.0174 -0.2298
  148DOPC   C2417634   1.500   6.470  15.561 -0.6859 -0.1692  0.4087
  148DOPC   H4R17635   1.428   6.538  15.512 -0.2911 -0.0525 -0.0075
  148DOPC   H4S17636   1.523   6.505  15.664 -0.5022 -0.2818  0.4066
  148DOPC   C2517637   1.424   6.329  15.574 -0.2296  0.0959  0.1270
  148DOPC   H5R17638   1.340   6.342  15.646 -0.6566  1.9917 -0.6439
  148DOPC   H5S17639   1.499   6.252  15.601 -1.3089 -0.5753  1.3668
  148DOPC   C2617640   1.346   6.288  15.449 -0.0515  1.0838  0.1070
  148DOPC   H6R17641   1.420   6.275  15.367  0.1672  0.9151  0.3311
  148DOPC   H6S17642   1.270   6.365  15.425  1.1797  2.0762 -0.7317
  148DOPC   C2717643   1.278   6.154  15.478  0.2244  0.2706 -0.3583
  148DOPC   H7R17644   1.204   6.165  15.560  0.2679 -0.2669 -0.2422
  148DOPC   H7S17645   1.346   6.069  15.500  2.3298  2.0835  0.5407
  148DOPC   C2817646   1.175   6.112  15.365  0.3225  0.2157 -0.2226
  148DOPC   H8R17647   1.085   6.177  15.375 -1.2113 -1.7615 -0.6463
  148DOPC   H8S17648   1.136   6.012  15.393 -0.6483 -0.2056 -2.8445
  148DOPC   C2917649   1.235   6.113  15.220 -0.1429 -0.0268 -0.7932
  148DOPC   H9R17650   1.270   6.215  15.197  1.7878  0.2316  2.5591
  148DOPC  C21017651   1.262   6.015  15.142 -0.4267 -0.3778  0.1559
  148DOPC  H10R17652   1.303   6.024  15.040  1.0246 -2.6491  0.4555
  148DOPC  C21117653   1.245   5.870  15.166 -0.0580 -0.3603 -0.0772
  148DOPC  H11R17654   1.217   5.851  15.272  2.7971 -0.6348  0.7055
  148DOPC  H11S17655   1.349   5.833  15.167  0.3276  0.6210  2.1113
  148DOPC  C21217656   1.153   5.784  15.071 -0.5503  0.6946  0.5380
  148DOPC  H12R17657   1.050   5.817  15.094 -0.9094 -1.1797  1.7692
  148DOPC  H12S17658   1.161   5.679  15.105  1.5113  1.0966  1.4469
  148DOPC  C21317659   1.184   5.779  14.926  0.0018  0.3708 -0.8533
  148DOPC  H13R17660   1.181   5.672  14.898  0.5886 -0.5013  2.1337
  148DOPC  H13S17661   1.281   5.823  14.893  0.8233 -2.1298 -1.9738
  148DOPC  C21417662   1.076   5.850  14.843  0.0614  0.2562  0.0844
  148DOPC  H14R17663   1.129   5.894  14.756 -0.5124  1.3646  0.2815
  148DOPC  H14S17664   1.028   5.931  14.901 -0.8161 -1.3108  1.6374
  148DOPC  C21517665   0.965   5.754  14.810  0.0852 -0.0450  0.0659
  148DOPC  H15R17666   0.915   5.705  14.896 -2.7196 -0.6222 -1.7701
  148DOPC  H15S17667   1.011   5.669  14.755  1.7246  1.4968 -1.0819
  148DOPC  C21617668   0.855   5.825  14.721 -0.6645 -0.2143  0.2734
  148DOPC  H16R17669   0.907   5.847  14.626 -0.1696  0.3584  0.6662
  148DOPC  H16S17670   0.813   5.922  14.756 -0.8368  0.5989 -2.0387
  148DOPC  C21717671   0.733   5.735  14.698  0.4193  0.6168 -0.5823
  148DOPC  H17R17672   0.657   5.749  14.778  1.3811 -1.1328  0.7079
  148DOPC  H17S17673   0.771   5.631  14.702  1.7156  1.0721 -0.1452
  148DOPC  C21817674   0.671   5.768  14.565 -0.0966  0.5482  0.0921
  148DOPC  H18R17675   0.600   5.686  14.541  0.3533  0.0433  0.4574
  148DOPC  H18S17676   0.738   5.778  14.477 -0.5021 -2.0552 -0.5970
  148DOPC  H18T17677   0.610   5.859  14.586 -0.5243  0.4523 -0.6971
  148DOPC   C3317678   2.438   6.154  15.631  0.0987 -0.8542  0.2008
  148DOPC   H3X17679   2.459   6.049  15.602  1.9460 -0.0743 -1.5595
  148DOPC   H3Y17680   2.495   6.171  15.725  0.7373 -2.5708  0.1614
  148DOPC   C3417681   2.483   6.261  15.527 -0.6200 -0.5218  0.0032
  148DOPC   H4X17682   2.455   6.365  15.556 -2.1063 -1.0064  0.3826
  148DOPC   H4Y17683   2.418   6.247  15.438 -1.1849  1.3571  0.0713
  148DOPC   C3517684   2.634   6.234  15.491  0.3877 -0.2602 -0.0315
  148DOPC   H5X17685   2.645   6.124  15.475  0.4186 -0.2688  0.0505
  148DOPC   H5Y17686   2.700   6.254  15.578  1.4916  0.4235 -1.0035
  148DOPC   C3617687   2.701   6.318  15.374 -0.0634  0.1038 -0.2327
  148DOPC   H6X17688   2.708   6.423  15.409 -1.6602  0.3882 -0.6486
  148DOPC   H6Y17689   2.801   6.272  15.360 -0.6973 -1.6741  0.7366
  148DOPC   C3717690   2.617   6.309  15.249  0.0732  0.1835 -0.7649
  148DOPC   H7X17691   2.629   6.203  15.217 -0.8986  0.0272 -0.6438
  148DOPC   H7Y17692   2.514   6.343  15.274  0.4939 -0.1727  1.6300
  148DOPC   C3817693   2.678   6.393  15.135 -0.2391 -0.4689  0.1471
  148DOPC   H8X17694   2.787   6.375  15.129  0.1949  1.6662  0.7818
  148DOPC   H8Y17695   2.666   6.494  15.181  0.5263 -1.1003  1.8196
  148DOPC   C3917696   2.609   6.363  15.004 -0.4021 -0.8276  0.3276
  148DOPC   H9X17697   2.501   6.385  14.996 -0.5409 -1.8373 -0.9886
  148DOPC  C31017698   2.669   6.304  14.900  0.0391  0.6943 -0.2046
  148DOPC  H10X17699   2.606   6.289  14.811 -0.1378 -1.3091  0.2203
  148DOPC  C31117700   2.807   6.253  14.887  0.0669 -0.2897  0.2348
  148DOPC  H11X17701   2.858   6.243  14.985  0.3559 -0.3936  0.0720
  148DOPC  H11Y17702   2.854   6.321  14.813 -1.7312  2.0263  1.1001
  148DOPC  C31217703   2.820   6.106  14.832 -0.1669  0.0741  0.3756
  148DOPC  H12X17704   2.774   6.100  14.732 -0.2254  0.6630  0.3630
  148DOPC  H12Y17705   2.765   6.034  14.897 -1.8125 -1.7076 -2.7509
  148DOPC  C31317706   2.962   6.051  14.824  0.2987  0.3703  0.6595
  148DOPC  H13X17707   3.016   6.059  14.920  1.4269  0.8325  0.0029
  148DOPC  H13Y17708   2.953   5.942  14.803  1.1002  0.7665 -2.2068
  148DOPC  C31417709   3.052   6.118  14.717 -0.1322 -0.0354 -0.0169
  148DOPC  H14X17710   2.996   6.115  14.621  0.9920  1.9404 -0.8008
  148DOPC  H14Y17711   3.064   6.226  14.740  0.6266  0.1503 -1.1925
  148DOPC  C31517712   3.186   6.047  14.700 -0.0591  0.0085  0.8575
  148DOPC  H15X17713   3.163   5.941  14.678 -0.1317  0.2644 -0.3212
  148DOPC  H15Y17714   3.251   6.049  14.790  1.0239  2.2450  0.1048
  148DOPC  C31617715   3.265   6.098  14.577 -0.1227 -0.2942  0.0390
  148DOPC  H16X17716   3.193   6.126  14.497  2.3452 -0.9260 -2.5399
  148DOPC  H16Y17717   3.333   6.182  14.602 -1.1915  0.6138 -0.0395
  148DOPC  C31717718   3.360   5.988  14.523  0.3157  0.5210  0.1541
  148DOPC  H17X17719   3.422   5.950  14.607  3.0950  0.6644 -1.6732
  148DOPC  H17Y17720   3.295   5.915  14.470  0.3427  0.6350 -0.0374
  148DOPC  C31817721   3.452   6.047  14.412 -0.3342  0.5238 -0.5808
  148DOPC  H18X17722   3.392   6.066  14.320 -0.1070  1.7693 -0.4888
  148DOPC  H18Y17723   3.513   6.131  14.449  1.6755 -1.9388  2.1804
  148DOPC  H18Z17724   3.522   5.965  14.384 -1.3915 -0.6294  0.0076
  149DOPC     N17725   2.800   3.369  16.040 -0.0107 -0.7010  0.4535
  149DOPC   C1217726   2.897   3.485  16.020 -0.3880 -0.1382  0.1840
  149DOPC  H12A17727   2.965   3.451  15.944 -1.4073 -0.5640 -0.5520
  149DOPC  H12B17728   2.950   3.502  16.113 -0.3506  0.3589  0.0758
  149DOPC   C1317729   2.871   3.263  16.108 -0.3067  0.3806 -0.1613
  149DOPC  H13A17730   2.915   3.301  16.198  2.4667 -1.6540 -0.5408
  149DOPC  H13B17731   2.796   3.187  16.128 -1.1743  1.1590 -0.3954
  149DOPC  H13C17732   2.945   3.231  16.037 -0.8184  0.6980 -0.8576
  149DOPC   C1417733   2.744   3.312  15.914 -0.1574  0.2817 -0.3693
  149DOPC  H14A17734   2.817   3.279  15.841  0.8390  0.7839  0.3784
  149DOPC  H14B17735   2.668   3.239  15.936  1.3890 -1.0164  0.9909
  149DOPC  H14C17736   2.690   3.391  15.864 -1.8993 -1.8670 -2.0806
  149DOPC   C1517737   2.686   3.411  16.136 -0.2019 -0.2054  0.7250
  149DOPC  H15A17738   2.716   3.424  16.239  0.4863  3.7594  0.1791
  149DOPC  H15B17739   2.604   3.343  16.116 -0.2097 -0.0826  0.3162
  149DOPC  H15C17740   2.652   3.508  16.103 -3.9730 -1.9247 -1.0773
  149DOPC   C1117741   2.847   3.612  15.961 -0.5107  0.3317  0.7443
  149DOPC  H11A17742   2.934   3.679  15.947  1.3298 -2.0625  0.1287
  149DOPC  H11B17743   2.826   3.574  15.859  2.5881  0.1689  0.0549
  149DOPC     P17744   2.751   3.792  16.117  0.2181  0.4203  0.2047
  149DOPC   O1317745   2.878   3.770  16.191 -0.3267  0.1272 -0.0815
  149DOPC   O1417746   2.629   3.812  16.197  0.2995 -0.4637 -0.6535
  149DOPC   O1217747   2.736   3.668  16.022  0.0939 -0.4104  0.0256
  149DOPC   O1117748   2.772   3.912  16.014  0.7535  0.1532  0.9273
  149DOPC    C117749   2.656   3.933  15.921  0.0196 -0.0814 -0.7002
  149DOPC    HA17750   2.660   4.043  15.906  3.0548 -0.2838 -1.9913
  149DOPC    HB17751   2.561   3.911  15.973  0.0742 -1.4980 -1.1731
  149DOPC    C217752   2.675   3.872  15.780  0.3466 -0.2653 -0.2834
  149DOPC    HS17753   2.696   3.763  15.788 -0.9179 -0.5393 -0.5332
  149DOPC   O2117754   2.784   3.933  15.717 -0.1317  0.0269  0.8003
  149DOPC   C2117755   2.874   3.841  15.662  0.2547 -0.7274  0.2226
  149DOPC   O2217756   2.853   3.727  15.641 -0.2255  0.6452 -0.2310
  149DOPC   C2217757   2.991   3.916  15.598 -0.2323 -0.5866 -0.3945
  149DOPC   H2R17758   3.083   3.860  15.628 -0.5618 -0.4308  0.9510
  149DOPC   H2S17759   2.998   4.021  15.634 -2.2642 -1.0361  1.4968
  149DOPC    C317760   2.550   3.885  15.694  0.2887  0.0638  0.6699
  149DOPC    HX17761   2.509   3.989  15.692 -0.7967 -0.3435  0.7565
  149DOPC    HY17762   2.469   3.837  15.753  0.7458 -1.2109  0.2936
  149DOPC   O3117763   2.559   3.832  15.560 -0.5759  0.0498 -0.0746
  149DOPC   C3117764   2.546   3.700  15.558 -0.1795 -0.1302 -0.5630
  149DOPC   O3217765   2.514   3.627  15.650 -0.7031  0.0027 -0.4763
  149DOPC   C3217766   2.588   3.654  15.417  0.2559 -0.1648 -0.7147
  149DOPC   H2X17767   2.501   3.682  15.354 -1.5494 -0.4488  1.5218
  149DOPC   H2Y17768   2.685   3.699  15.387  1.2376 -0.4347  1.7708
  149DOPC   C2317769   2.985   3.918  15.450 -0.3261 -0.8565  0.9716
  149DOPC   H3R17770   3.066   3.983  15.412 -0.7811 -1.4435 -1.1490
  149DOPC   H3S17771   2.892   3.964  15.411  0.3609  0.1167  0.4550
  149DOPC   C2417772   3.021   3.775  15.390  0.8570 -0.9299 -0.8205
  149DOPC   H4R17773   2.937   3.706  15.413  0.4140  0.0511  0.6735
  149DOPC   H4S17774   3.110   3.729  15.437  1.7412 -0.5522 -2.0871
  149DOPC   C2517775   3.043   3.792  15.243  0.2830 -0.1185 -0.1011
  149DOPC   H5R17776   3.119   3.870  15.221 -1.0010  0.5258 -2.6267
  149DOPC   H5S17777   2.946   3.830  15.204  1.9942  1.9502 -2.6880
  149DOPC   C2617778   3.076   3.657  15.173  0.7548  0.3146 -0.6659
  149DOPC   H6R17779   2.998   3.582  15.199  0.5779  0.1879 -1.5045
  149DOPC   H6S17780   3.175   3.618  15.203 -0.5273 -2.0422  0.8625
  149DOPC   C2717781   3.065   3.661  15.025 -0.1340 -0.1966  0.3416
  149DOPC   H7R17782   3.138   3.738  14.991 -2.4686  1.2378 -1.7073
  149DOPC   H7S17783   2.966   3.704  14.999 -0.4929 -1.1582  0.0762
  149DOPC   C2817784   3.103   3.533  14.952  0.2865  0.1727  0.2315
  149DOPC   H8R17785   3.066   3.452  15.019  0.3580 -0.0686 -0.0195
  149DOPC   H8S17786   3.211   3.513  14.935  0.5121  0.9149  0.7764
  149DOPC   C2917787   3.025   3.526  14.818  0.1775  0.1900  0.1489
  149DOPC   H9R17788   2.926   3.480  14.818 -0.3364  1.2601  0.1063
  149DOPC  C21017789   3.075   3.573  14.700  0.3810  0.6645 -0.6360
  149DOPC  H10R17790   3.003   3.576  14.617 -2.0716  0.1585  1.3514
  149DOPC  C21117791   3.210   3.626  14.677  0.7861 -0.0305 -0.4172
  149DOPC  H11R17792   3.252   3.668  14.771  0.1728  1.7607 -0.8981
  149DOPC  H11S17793   3.191   3.708  14.605 -1.4466 -1.1795 -1.2257
  149DOPC  C21217794   3.293   3.518  14.616 -0.2481  0.1353 -0.3058
  149DOPC  H12R17795   3.245   3.469  14.529 -1.3122  0.9486 -0.2065
  149DOPC  H12S17796   3.316   3.439  14.691 -0.2875  1.3639  1.0552
  149DOPC  C21317797   3.429   3.573  14.557  0.6983 -0.6998  0.1060
  149DOPC  H13R17798   3.399   3.654  14.487  2.8023 -0.5874 -0.7468
  149DOPC  H13S17799   3.479   3.498  14.492  0.9710 -0.3259 -0.1209
  149DOPC  C21417800   3.515   3.628  14.673 -0.3594 -0.2737  0.2850
  149DOPC  H14R17801   3.455   3.685  14.747 -1.6043 -2.5666  1.1611
  149DOPC  H14S17802   3.579   3.703  14.622  0.0153 -0.4434  0.5008
  149DOPC  C21517803   3.604   3.515  14.728  0.3379  0.7987 -0.3899
  149DOPC  H15R17804   3.649   3.465  14.640  0.2695 -1.2414  0.6656
  149DOPC  H15S17805   3.530   3.450  14.781 -1.0464  0.6861 -2.3569
  149DOPC  C21617806   3.705   3.551  14.828  0.7774  0.1221 -0.3104
  149DOPC  H16R17807   3.787   3.616  14.791  0.0700 -0.0164 -2.1993
  149DOPC  H16S17808   3.750   3.453  14.856  2.1146  0.3590 -1.5111
  149DOPC  C21717809   3.633   3.614  14.946  0.0653  0.1647  0.7332
  149DOPC  H17R17810   3.556   3.548  14.991 -0.5203 -0.5651 -1.2495
  149DOPC  H17S17811   3.594   3.708  14.903  1.1752 -0.0551 -0.8022
  149DOPC  C21817812   3.730   3.652  15.053  0.5778  0.3408 -0.2415
  149DOPC  H18R17813   3.801   3.727  15.012 -0.9845  1.1516 -1.5496
  149DOPC  H18S17814   3.784   3.561  15.089 -0.5319  0.2941  1.4349
  149DOPC  H18T17815   3.665   3.697  15.131  0.1632 -1.8602  0.7757
  149DOPC   C3317816   2.578   3.495  15.400 -0.0436 -0.7629 -0.1175
  149DOPC   H3X17817   2.470   3.471  15.394 -0.0271 -1.2243  1.0810
  149DOPC   H3Y17818   2.619   3.438  15.486 -0.1782  1.1796  1.2836
  149DOPC   C3417819   2.663   3.452  15.282  0.0726 -0.5582 -0.6821
  149DOPC   H4X17820   2.657   3.341  15.277  3.0482 -0.7682 -1.1173
  149DOPC   H4Y17821   2.769   3.476  15.305 -0.3185  0.4658  0.1207
  149DOPC   C3517822   2.605   3.507  15.146  0.4669 -0.2739  0.7226
  149DOPC   H5X17823   2.606   3.618  15.140 -1.0025 -0.1679  1.8454
  149DOPC   H5Y17824   2.499   3.473  15.150  0.5781 -0.4801  2.0970
  149DOPC   C3617825   2.678   3.445  15.016  0.6668 -0.1247 -0.9923
  149DOPC   H6X17826   2.737   3.524  14.966 -2.0991  2.5846 -0.2579
  149DOPC   H6Y17827   2.741   3.360  15.051  0.0928 -0.0677  0.2464
  149DOPC   C3717828   2.575   3.402  14.922 -0.0673  0.2107  0.4581
  149DOPC   H7X17829   2.546   3.299  14.951 -3.4414  0.6336 -0.8974
  149DOPC   H7Y17830   2.481   3.461  14.928 -0.9015 -0.9257 -0.8243
  149DOPC   C3817831   2.635   3.402  14.774  0.5278  0.1178 -0.0755
  149DOPC   H8X17832   2.726   3.339  14.784  0.1823 -0.3782 -0.0298
  149DOPC   H8Y17833   2.665   3.509  14.765 -1.3992  0.8483  1.4074
  149DOPC   C3917834   2.556   3.367  14.649 -0.3189  0.0130 -0.2862
  149DOPC   H9X17835   2.456   3.411  14.661 -0.6226 -0.2637 -1.6587
  149DOPC  C31017836   2.587   3.318  14.527 -0.0421  0.1078  0.3566
  149DOPC  H10X17837   2.504   3.318  14.456 -1.6712  0.5874  2.1679
  149DOPC  C31117838   2.726   3.272  14.492 -0.3810  0.3849 -0.0649
  149DOPC  H11X17839   2.716   3.189  14.418  0.2380 -0.4004  0.7091
  149DOPC  H11Y17840   2.777   3.231  14.582 -3.3142 -0.8669  1.1881
  149DOPC  C31217841   2.807   3.391  14.431  0.6095  0.4011  0.1162
  149DOPC  H12X17842   2.831   3.479  14.493  0.2240  1.1182 -0.7301
  149DOPC  H12Y17843   2.755   3.433  14.342  1.4015  0.5980 -0.2646
  149DOPC  C31317844   2.950   3.346  14.395 -0.4719 -0.6274 -0.6661
  149DOPC  H13X17845   3.006   3.296  14.477  1.7302 -0.3238 -1.8954
  149DOPC  H13Y17846   2.930   3.269  14.318 -0.0813 -0.1717 -1.2335
  149DOPC  C31417847   3.047   3.443  14.333 -0.4249  0.1034  0.6221
  149DOPC  H14X17848   3.091   3.500  14.417 -1.4771  1.0371  0.5693
  149DOPC  H14Y17849   3.124   3.396  14.268 -2.7919 -0.3391 -2.0575
  149DOPC  C31517850   2.973   3.561  14.252 -0.4158  0.0154 -0.3449
  149DOPC  H15X17851   2.915   3.619  14.327  0.9548  2.0787 -0.7934
  149DOPC  H15Y17852   2.896   3.520  14.184  0.0531  0.9706 -1.4763
  149DOPC  C31617853   3.075   3.642  14.168 -0.8744 -0.0268 -0.4597
  149DOPC  H16X17854   3.142   3.579  14.106  0.2015  1.4754 -0.8632
  149DOPC  H16Y17855   3.017   3.691  14.087 -0.6849 -0.7486 -1.0422
  149DOPC  C31717856   3.164   3.733  14.255  0.5761 -0.8161  0.0476
  149DOPC  H17X17857   3.097   3.805  14.307  0.3730 -1.3753  0.5724
  149DOPC  H17Y17858   3.206   3.681  14.343  0.6335  0.7415  0.9860
  149DOPC  C31817859   3.279   3.812  14.185  0.8997 -0.2714  0.3621
  149DOPC  H18X17860   3.357   3.852  14.254  1.8865 -0.2842 -0.7176
  149DOPC  H18Y17861   3.327   3.736  14.119 -2.8603 -1.8278 -0.8838
  149DOPC  H18Z17862   3.241   3.889  14.114 -0.3310  0.7083  2.0124
  150DOPC     N17863   5.210   6.600  15.944  0.3408 -0.1942 -0.3118
  150DOPC   C1217864   5.084   6.682  15.920 -0.2008 -0.5591 -0.2612
  150DOPC  H12A17865   4.997   6.630  15.959  0.0999 -1.0280 -0.2073
  150DOPC  H12B17866   5.050   6.677  15.817 -0.8598  1.5287 -0.1872
  150DOPC   C1317867   5.336   6.665  15.903  0.1313 -0.2359  0.6818
  150DOPC  H13A17868   5.349   6.758  15.956 -1.6307  0.2837  0.2688
  150DOPC  H13B17869   5.421   6.599  15.915  0.2476 -0.9441 -2.8372
  150DOPC  H13C17870   5.325   6.690  15.798  1.0921  1.7578  1.0233
  150DOPC   C1417871   5.201   6.467  15.868 -0.4215  0.7370 -0.1624
  150DOPC  H14A17872   5.210   6.481  15.761 -0.4765 -0.6388 -0.3738
  150DOPC  H14B17873   5.282   6.398  15.889  0.1656  0.7195 -2.2367
  150DOPC  H14C17874   5.115   6.408  15.896 -2.0295  1.7594 -2.6375
  150DOPC   C1517875   5.224   6.576  16.093  0.6611  0.5926 -0.1530
  150DOPC  H15A17876   5.277   6.484  16.114  0.1343  0.2828 -0.1562
  150DOPC  H15B17877   5.123   6.555  16.124  0.1497  1.8497 -0.9132
  150DOPC  H15C17878   5.271   6.653  16.153  2.9708 -0.6895 -0.1804
  150DOPC   C1117879   5.092   6.821  15.969 -0.2202  0.2590 -0.5009
  150DOPC  H11A17880   4.987   6.858  15.979 -0.3216 -0.1465 -0.0393
  150DOPC  H11B17881   5.131   6.821  16.073  0.2866  1.4939 -0.6684
  150DOPC     P17882   5.250   7.034  15.948 -0.2675 -0.1864 -0.1619
  150DOPC   O1317883   5.377   6.984  16.001 -0.2010  0.3779 -0.4746
  150DOPC   O1417884   5.170   7.108  16.045  0.2659 -0.2710 -0.1192
  150DOPC   O1217885   5.178   6.905  15.895 -0.0242  0.0376 -0.2498
  150DOPC   O1117886   5.283   7.119  15.821 -0.3916 -0.1976  0.1497
  150DOPC    C117887   5.209   7.132  15.700 -0.8040 -0.2441  0.1693
  150DOPC    HA17888   5.224   7.237  15.668  2.1879  0.0424  2.1723
  150DOPC    HB17889   5.099   7.112  15.706 -1.4117  1.0778 -3.4957
  150DOPC    C217890   5.283   7.050  15.591  0.2294  0.0454  0.1824
  150DOPC    HS17891   5.287   6.946  15.631  1.0282  0.4334  1.1284
  150DOPC   O2117892   5.410   7.106  15.573  0.9481 -0.4911 -0.3292
  150DOPC   C2117893   5.514   7.024  15.565 -0.1167 -0.2804 -0.3738
  150DOPC   O2217894   5.510   6.904  15.561  0.4965 -0.2916  0.1020
  150DOPC   C2217895   5.645   7.109  15.558  0.4617  0.0143  0.6532
  150DOPC   H2R17896   5.670   7.129  15.664 -1.2518  1.8248  0.7881
  150DOPC   H2S17897   5.631   7.206  15.505 -1.4280  0.6043  2.1083
  150DOPC    C317898   5.202   7.059  15.460  0.3599 -0.5089  0.0206
  150DOPC    HX17899   5.192   7.166  15.431  2.7139 -0.4754 -0.8831
  150DOPC    HY17900   5.097   7.024  15.465 -0.2973  1.0851 -1.5788
  150DOPC   O3117901   5.274   6.998  15.351 -0.1434  0.1634 -0.3049
  150DOPC   C3117902   5.266   6.859  15.342 -0.3335 -0.4926  0.3588
  150DOPC   O3217903   5.191   6.789  15.407  0.2275 -0.3036  0.3085
  150DOPC   C3217904   5.393   6.825  15.261  0.8164  0.1918 -0.5912
  150DOPC   H2X17905   5.422   6.906  15.191 -1.2279 -0.3634 -2.1822
  150DOPC   H2Y17906   5.472   6.798  15.335  0.8012 -1.2570 -1.0701
  150DOPC   C2317907   5.746   7.029  15.469 -0.3685  0.0605 -0.1483
  150DOPC   H3R17908   5.713   7.005  15.365  1.2931  0.1416 -0.7121
  150DOPC   H3S17909   5.778   6.932  15.512 -1.5645 -0.6333 -0.7386
  150DOPC   C2417910   5.875   7.116  15.463  0.5123  1.2225 -0.5046
  150DOPC   H4R17911   5.926   7.112  15.562  0.3215  0.7174 -0.4218
  150DOPC   H4S17912   5.855   7.219  15.429 -1.4794  1.3040  0.7383
  150DOPC   C2517913   5.972   7.049  15.367  0.4172  0.3237  0.3303
  150DOPC   H5R17914   5.914   7.054  15.273 -1.5833 -0.7395  1.4219
  150DOPC   H5S17915   5.980   6.945  15.406 -3.1034 -0.2610 -0.1100
  150DOPC   C2617916   6.109   7.119  15.365 -0.1810  0.2094 -0.1048
  150DOPC   H6R17917   6.186   7.044  15.335  0.2879  0.4253  0.5357
  150DOPC   H6S17918   6.124   7.152  15.470 -0.6355  0.2050 -0.0381
  150DOPC   C2717919   6.115   7.232  15.264  0.5185  0.1388  0.5772
  150DOPC   H7R17920   6.032   7.298  15.295 -0.7885 -1.5481  0.8476
  150DOPC   H7S17921   6.105   7.201  15.158 -1.8780  1.8912  0.2079
  150DOPC   C2817922   6.251   7.308  15.284  0.2887  0.1748 -0.3579
  150DOPC   H8R17923   6.264   7.323  15.393 -0.9830  0.6748 -0.2572
  150DOPC   H8S17924   6.235   7.409  15.240  0.8514  0.1002 -0.7518
  150DOPC   C2917925   6.369   7.227  15.243 -0.4767 -0.2989  0.2091
  150DOPC   H9R17926   6.411   7.164  15.323 -1.0428 -0.4562  0.3870
  150DOPC  C21017927   6.426   7.217  15.119  0.7053  0.3681 -0.3879
  150DOPC  H10R17928   6.522   7.163  15.114  1.1080  1.0649 -0.2418
  150DOPC  C21117929   6.371   7.300  15.005 -0.4033 -0.6078 -0.8340
  150DOPC  H11R17930   6.452   7.367  14.969 -0.0823 -1.3233 -1.4781
  150DOPC  H11S17931   6.284   7.364  15.029 -0.1945 -1.1207  1.6572
  150DOPC  C21217932   6.322   7.210  14.893 -0.3740  0.6863 -0.3423
  150DOPC  H12R17933   6.234   7.153  14.927  0.7252 -0.3327  0.8927
  150DOPC  H12S17934   6.386   7.124  14.863 -0.3147  0.1628  1.2122
  150DOPC  C21317935   6.290   7.291  14.768  0.2688 -0.0633  0.3793
  150DOPC  H13R17936   6.262   7.391  14.807 -1.0667 -0.9344  1.8043
  150DOPC  H13S17937   6.211   7.231  14.718 -0.0716 -0.8685  1.8028
  150DOPC  C21417938   6.401   7.329  14.667  0.5876  0.4071  0.0929
  150DOPC  H14R17939   6.460   7.237  14.647 -0.4497  0.1301 -1.9038
  150DOPC  H14S17940   6.475   7.387  14.726  0.9281  0.3531 -0.2731
  150DOPC  C21517941   6.344   7.400  14.545  0.6792 -0.8613  0.6507
  150DOPC  H15R17942   6.266   7.470  14.583 -0.0131 -1.6443  0.6862
  150DOPC  H15S17943   6.298   7.326  14.476  3.0348 -1.5228 -0.3016
  150DOPC  C21617944   6.455   7.477  14.464 -0.0930 -0.3957  0.4425
  150DOPC  H16R17945   6.472   7.565  14.529 -4.5909 -0.4073  1.9566
  150DOPC  H16S17946   6.404   7.518  14.374  0.2579 -1.7139 -0.3873
  150DOPC  C21717947   6.581   7.400  14.430  0.2805  0.1096  1.0826
  150DOPC  H17R17948   6.551   7.321  14.358  0.9672 -1.0990  2.0801
  150DOPC  H17S17949   6.612   7.354  14.527 -1.2743  1.0686  2.0955
  150DOPC  C21817950   6.697   7.492  14.381 -0.1808  0.2717 -0.1140
  150DOPC  H18R17951   6.671   7.549  14.289  3.3265 -0.9756 -2.0502
  150DOPC  H18S17952   6.782   7.426  14.353  0.5540  1.5554 -1.0012
  150DOPC  H18T17953   6.723   7.563  14.463  0.2084 -0.8403  0.7570
  150DOPC   C3317954   5.355   6.713  15.165 -0.2898 -0.2358  0.2065
  150DOPC   H3X17955   5.292   6.639  15.218 -0.3774  0.6039  1.3087
  150DOPC   H3Y17956   5.452   6.664  15.139 -0.1735  0.3566 -0.5180
  150DOPC   C3417957   5.292   6.759  15.025  0.3321  0.4167 -0.3401
  150DOPC   H4X17958   5.356   6.840  14.982 -0.4737  1.5240  0.4809
  150DOPC   H4Y17959   5.198   6.814  15.044  0.3260  1.1324 -2.1986
  150DOPC   C3517960   5.265   6.640  14.933  0.8262  0.7492  0.5591
  150DOPC   H5X17961   5.177   6.583  14.972 -1.1101  1.5734 -2.3245
  150DOPC   H5Y17962   5.353   6.573  14.933  1.8990  2.1104  1.3419
  150DOPC   C3617963   5.231   6.686  14.789 -0.0278  0.8657 -0.1710
  150DOPC   H6X17964   5.137   6.746  14.789 -1.2903 -1.0027 -0.7045
  150DOPC   H6Y17965   5.313   6.747  14.746 -0.4803  2.5006  1.1692
  150DOPC   C3717966   5.187   6.578  14.692  0.3626  0.2484  0.0669
  150DOPC   H7X17967   5.267   6.504  14.669  0.1723 -0.0046  0.2194
  150DOPC   H7Y17968   5.099   6.516  14.719 -1.2145  2.9615  1.4723
  150DOPC   C3817969   5.167   6.642  14.555 -0.4202 -0.1479  1.0010
  150DOPC   H8X17970   5.261   6.685  14.516 -1.0380  2.0088  1.7625
  150DOPC   H8Y17971   5.098   6.729  14.565 -0.9094 -0.3901 -0.0694
  150DOPC   C3917972   5.099   6.553  14.456 -0.0946 -0.0519  1.1646
  150DOPC   H9X17973   4.996   6.522  14.477 -0.4515 -0.2297 -0.7375
  150DOPC  C31017974   5.159   6.519  14.345  0.6204 -0.3819 -0.6106
  150DOPC  H10X17975   5.105   6.454  14.275 -0.6048  0.0694 -0.1234
  150DOPC  C31117976   5.297   6.561  14.303  0.7185 -0.0156  0.4061
  150DOPC  H11X17977   5.311   6.671  14.297  0.3488  0.0152  0.0011
  150DOPC  H11Y17978   5.312   6.531  14.197  1.3704 -1.0947  0.7833
  150DOPC  C31217979   5.414   6.491  14.371 -0.8146 -0.8392  0.3047
  150DOPC  H12X17980   5.397   6.500  14.481 -0.9348  3.2731  0.0951
  150DOPC  H12Y17981   5.506   6.547  14.343 -0.7365 -0.3693  1.4335
  150DOPC  C31317982   5.438   6.346  14.333 -0.6380 -0.3007 -0.3529
  150DOPC  H13X17983   5.362   6.283  14.383  1.3925 -1.2998  1.7034
  150DOPC  H13Y17984   5.435   6.335  14.223  0.2435 -1.8071 -0.2573
  150DOPC  C31417985   5.581   6.295  14.376  0.5247  0.4225  0.4228
  150DOPC  H14X17986   5.652   6.368  14.331 -0.2232  1.3373  0.6864
  150DOPC  H14Y17987   5.588   6.289  14.487  0.9836  2.3450  0.5296
  150DOPC  C31517988   5.622   6.163  14.307 -0.1698 -0.2324 -0.6008
  150DOPC  H15X17989   5.556   6.078  14.333 -2.0176  1.4946  0.6121
  150DOPC  H15Y17990   5.721   6.150  14.356  1.5006  2.6634 -2.8251
  150DOPC  C31617991   5.630   6.164  14.152  0.6278 -0.1163  0.4739
  150DOPC  H16X17992   5.673   6.065  14.125  2.4432  0.3690  1.3757
  150DOPC  H16Y17993   5.532   6.181  14.103  0.2344 -0.0459  1.2745
  150DOPC  C31717994   5.714   6.276  14.088 -0.1526 -0.8232  0.6871
  150DOPC  H17X17995   5.672   6.376  14.111  0.2261 -0.0859 -1.6066
  150DOPC  H17Y17996   5.815   6.272  14.134  0.1574 -0.8479  0.0203
  150DOPC  C31817997   5.732   6.263  13.941  0.7862 -0.0003 -0.8138
  150DOPC  H18X17998   5.658   6.192  13.900  0.0472  1.3943 -1.9653
  150DOPC  H18Y17999   5.727   6.365  13.896  1.2208  1.0359  1.3283
  150DOPC  H18Z18000   5.829   6.214  13.920  0.6796 -0.1586 -0.9382
  151DOPC     N18001   1.397   2.564  15.585  0.6220  0.2870 -0.2216
  151DOPC   C1218002   1.497   2.677  15.617  0.3770  0.1302  0.0329
  151DOPC  H12A18003   1.549   2.658  15.710  1.1066  1.1870 -0.1415
  151DOPC  H12B18004   1.436   2.766  15.621  1.5655  0.9856 -0.2867
  151DOPC   C1318005   1.284   2.559  15.693 -0.0786 -0.0306 -0.1103
  151DOPC  H13A18006   1.322   2.540  15.792  1.2534 -1.8887 -0.9222
  151DOPC  H13B18007   1.233   2.654  15.702  0.0945 -0.0226  0.9014
  151DOPC  H13C18008   1.208   2.487  15.665 -1.1729  1.1918 -0.4257
  151DOPC   C1418009   1.470   2.437  15.580  0.2265 -0.1010  0.5620
  151DOPC  H14A18010   1.528   2.425  15.670 -1.0656 -0.0047  1.4330
  151DOPC  H14B18011   1.406   2.351  15.569  0.4075 -0.5425  2.6833
  151DOPC  H14C18012   1.541   2.434  15.498  1.2367 -3.0339  1.4263
  151DOPC   C1518013   1.326   2.579  15.456  0.4533  0.3647 -0.4182
  151DOPC  H15A18014   1.283   2.678  15.450  0.8617  0.4802 -1.5907
  151DOPC  H15B18015   1.242   2.511  15.446 -0.5671  1.0095  2.5423
  151DOPC  H15C18016   1.395   2.564  15.374 -0.0890  1.8608 -1.1683
  151DOPC   C1118017   1.607   2.705  15.521 -0.8095  0.2647 -0.3171
  151DOPC  H11A18018   1.647   2.611  15.477  1.2164  0.6110  0.6551
  151DOPC  H11B18019   1.574   2.767  15.435  3.4478 -1.6668 -3.7329
  151DOPC     P18020   1.717   2.927  15.614  0.2802  0.1208  0.3362
  151DOPC   O1318021   1.836   2.968  15.683 -0.2190 -0.0155  0.0983
  151DOPC   O1418022   1.578   2.982  15.653 -0.5471  0.2090  0.7700
  151DOPC   O1218023   1.706   2.773  15.603  0.1892  0.1582 -0.0740
  151DOPC   O1118024   1.726   2.954  15.454  0.3029  0.4478  0.3574
  151DOPC    C118025   1.846   2.943  15.383 -0.0339 -0.4276 -0.2428
  151DOPC    HA18026   1.875   2.839  15.361  0.0287 -1.1825  2.9616
  151DOPC    HB18027   1.933   2.988  15.437  0.9372 -0.0113 -2.0682
  151DOPC    C218028   1.847   3.034  15.253  0.9061  1.0875  0.6247
  151DOPC    HS18029   1.748   3.042  15.204  1.2781  1.0542 -0.1433
  151DOPC   O2118030   1.927   2.971  15.154 -0.7364  0.0390 -0.2042
  151DOPC   C2118031   1.863   2.868  15.092  0.1246 -0.1853  0.3646
  151DOPC   O2218032   1.757   2.825  15.127  0.2626  0.4577  0.1897
  151DOPC   C2218033   1.954   2.809  14.977  0.0986  0.4282 -0.0275
  151DOPC   H2R18034   2.045   2.763  15.021  0.2994 -0.3359 -1.2048
  151DOPC   H2S18035   1.996   2.893  14.917 -0.5009  1.0210  0.3656
  151DOPC    C318036   1.887   3.179  15.293  0.5001 -0.3940 -0.1676
  151DOPC    HX18037   1.987   3.181  15.342 -0.5821 -0.1181  2.1908
  151DOPC    HY18038   1.824   3.216  15.376 -1.0360 -2.7859 -0.1792
  151DOPC   O3118039   1.882   3.271  15.181 -0.4399 -0.2582  0.1912
  151DOPC   C3118040   1.917   3.395  15.215  0.1114 -0.5401  0.2030
  151DOPC   O3218041   1.974   3.430  15.317 -0.5557  0.1160 -0.1979
  151DOPC   C3218042   1.888   3.482  15.091 -0.5835  0.1176  0.2434
  151DOPC   H2X18043   1.972   3.470  15.019 -1.6957 -1.0651 -0.8979
  151DOPC   H2Y18044   1.800   3.442  15.036  0.7866  0.9776 -2.8277
  151DOPC   C2318045   1.874   2.702  14.894  0.2719  0.4585  0.2703
  151DOPC   H3R18046   1.940   2.679  14.808 -1.9562 -0.7193 -1.2141
  151DOPC   H3S18047   1.780   2.742  14.851  0.2796  0.0345 -0.1433
  151DOPC   C2418048   1.848   2.569  14.964  0.7388  0.2009 -0.1774
  151DOPC   H4R18049   1.781   2.588  15.051 -0.1661 -0.8344 -0.6303
  151DOPC   H4S18050   1.941   2.532  15.013  0.5770  0.7058  0.5334
  151DOPC   C2518051   1.798   2.453  14.868 -0.2653  0.1877 -0.4131
  151DOPC   H5R18052   1.882   2.391  14.832 -0.0106 -0.6673  1.5638
  151DOPC   H5S18053   1.756   2.492  14.773  1.3596  0.3499 -1.0951
  151DOPC   C2618054   1.705   2.361  14.946  0.1544 -0.0936  0.9133
  151DOPC   H6R18055   1.618   2.419  14.983  1.1701  1.8867  0.3801
  151DOPC   H6S18056   1.745   2.323  15.042 -1.6597 -1.6717  1.0967
  151DOPC   C2718057   1.661   2.239  14.859  0.2565 -1.0006  0.1003
  151DOPC   H7R18058   1.630   2.152  14.921  2.9152 -0.2546  2.7245
  151DOPC   H7S18059   1.749   2.202  14.801 -0.5356 -1.8383 -0.5980
  151DOPC   C2818060   1.551   2.276  14.750 -0.7891  0.2997 -0.6648
  151DOPC   H8R18061   1.518   2.181  14.702 -0.9327 -0.5274  1.0037
  151DOPC   H8S18062   1.606   2.337  14.675 -0.5099  1.7557  0.6815
  151DOPC   C2918063   1.423   2.345  14.799 -0.0924  0.1900  0.7589
  151DOPC   H9R18064   1.356   2.289  14.867  0.5672  0.9964  2.1167
  151DOPC  C21018065   1.384   2.470  14.769  0.6739  0.1969  0.5797
  151DOPC  H10R18066   1.293   2.508  14.816  0.3484  1.1605 -0.7654
  151DOPC  C21118067   1.445   2.568  14.671  0.2979 -0.1735  0.7248
  151DOPC  H11R18068   1.365   2.582  14.595  0.6936 -0.8188  0.1733
  151DOPC  H11S18069   1.537   2.537  14.616 -0.0692  0.5367 -0.3230
  151DOPC  C21218070   1.482   2.713  14.716  0.1816  0.0915 -0.1269
  151DOPC  H12R18071   1.539   2.713  14.811  4.3008  2.5336 -2.3015
  151DOPC  H12S18072   1.389   2.771  14.737  1.2730  1.7367  0.3558
  151DOPC  C21318073   1.570   2.785  14.616  0.1563 -0.8809  0.0252
  151DOPC  H13R18074   1.542   2.770  14.510  1.1163  2.1450 -0.7564
  151DOPC  H13S18075   1.668   2.733  14.623  2.5548  3.1623 -0.4837
  151DOPC  C21418076   1.572   2.932  14.643  0.5704 -0.4051  0.2451
  151DOPC  H14R18077   1.597   2.965  14.747  0.5863  0.8585 -0.1368
  151DOPC  H14S18078   1.474   2.980  14.622  1.5861  1.8255  0.2879
  151DOPC  C21518079   1.668   3.011  14.552  0.4501  0.4371 -0.5795
  151DOPC  H15R18080   1.763   2.954  14.553  0.3671  0.1567  3.0358
  151DOPC  H15S18081   1.696   3.106  14.603  2.6184 -2.3463  4.1041
  151DOPC  C21618082   1.626   3.031  14.403  0.2142  0.4174  0.1685
  151DOPC  H16R18083   1.530   3.088  14.403 -0.3080 -0.4363 -0.5514
  151DOPC  H16S18084   1.613   2.931  14.357 -0.4963  0.4047  0.3843
  151DOPC  C21718085   1.734   3.116  14.323  0.2272  0.1396  0.9651
  151DOPC  H17R18086   1.827   3.056  14.321 -0.1084 -0.4224  1.6314
  151DOPC  H17S18087   1.758   3.205  14.385 -0.2360  1.3499 -0.5140
  151DOPC  C21818088   1.685   3.150  14.186 -0.1473  0.5447  0.1480
  151DOPC  H18R18089   1.600   3.220  14.186 -1.2548 -0.7481 -0.6229
  151DOPC  H18S18090   1.654   3.057  14.133  0.9403 -0.4194  1.1498
  151DOPC  H18T18091   1.757   3.208  14.124 -0.5648  3.3207  2.1166
  151DOPC   C3318092   1.865   3.635  15.114  0.0607  0.2453 -0.4288
  151DOPC   H3X18093   1.939   3.681  15.183 -2.0129  0.7564  1.5819
  151DOPC   H3Y18094   1.772   3.649  15.173  0.4192  0.0175  0.1886
  151DOPC   C3418095   1.858   3.718  14.988 -0.5774 -0.5680 -0.0109
  151DOPC   H4X18096   1.791   3.665  14.917 -0.1401 -1.3876  0.1669
  151DOPC   H4Y18097   1.957   3.706  14.939 -1.0263 -0.5224 -0.9429
  151DOPC   C3518098   1.832   3.873  15.012 -0.3814 -1.0536 -0.7389
  151DOPC   H5X18099   1.890   3.897  15.105  0.3403 -1.0880 -1.1729
  151DOPC   H5Y18100   1.728   3.876  15.050 -0.6008 -0.9662 -1.3442
  151DOPC   C3618101   1.873   3.967  14.905  0.0657  0.5684  0.0848
  151DOPC   H6X18102   1.982   3.957  14.889 -0.1136 -1.8133 -0.0791
  151DOPC   H6Y18103   1.825   3.931  14.811 -0.4073 -0.1600  0.5967
  151DOPC   C3718104   1.827   4.111  14.938 -0.3572 -0.0916 -0.5482
  151DOPC   H7X18105   1.717   4.101  14.950 -0.6966  3.2150  0.2785
  151DOPC   H7Y18106   1.863   4.137  15.040  0.0614 -1.3311 -0.3621
  151DOPC   C3818107   1.852   4.221  14.833  0.5949  0.0009  0.1901
  151DOPC   H8X18108   1.767   4.292  14.830 -0.3871 -1.0846  1.1523
  151DOPC   H8Y18109   1.854   4.174  14.732  0.2211 -0.2630  0.3047
  151DOPC   C3918110   1.980   4.299  14.844 -0.3647  0.3644 -0.2800
  151DOPC   H9X18111   1.972   4.366  14.931 -1.0135 -0.3149  0.1840
  151DOPC  C31018112   2.096   4.292  14.773 -0.3156  0.0343  0.3496
  151DOPC  H10X18113   2.180   4.356  14.804 -1.1475  1.3037  0.0143
  151DOPC  C31118114   2.131   4.184  14.674  0.4097 -0.0083 -0.1802
  151DOPC  H11X18115   2.038   4.127  14.653  1.2517 -1.0766 -1.1501
  151DOPC  H11Y18116   2.207   4.113  14.711  0.6665  0.3320 -0.0521
  151DOPC  C31218117   2.165   4.234  14.535 -0.0130  0.2133 -0.0906
  151DOPC  H12X18118   2.080   4.292  14.493 -2.1381 -2.6630 -0.0057
  151DOPC  H12Y18119   2.178   4.151  14.463 -3.0545  1.2524 -2.0118
  151DOPC  C31318120   2.290   4.325  14.536  0.7560 -0.5240 -0.0968
  151DOPC  H13X18121   2.265   4.414  14.597  1.9711 -0.2264 -0.0247
  151DOPC  H13Y18122   2.371   4.276  14.594  0.2486  1.1764  2.2067
  151DOPC  C31418123   2.336   4.372  14.400  0.1246  0.1982 -0.0409
  151DOPC  H14X18124   2.250   4.420  14.348  0.8234  0.9115 -0.5653
  151DOPC  H14Y18125   2.413   4.445  14.433  1.4478 -0.7437 -0.9489
  151DOPC  C31518126   2.400   4.264  14.311 -0.3232  0.5260  0.2300
  151DOPC  H15X18127   2.316   4.193  14.303  0.3448 -0.4507  1.4840
  151DOPC  H15Y18128   2.484   4.217  14.366 -2.2364 -3.0570  0.4045
  151DOPC  C31618129   2.449   4.309  14.173  0.9375  0.4424  0.1177
  151DOPC  H16X18130   2.498   4.217  14.135  2.3475  1.6720 -1.1463
  151DOPC  H16Y18131   2.361   4.340  14.113  0.6826 -1.9082 -0.8169
  151DOPC  C31718132   2.550   4.418  14.175  0.2224  0.1633 -0.5534
  151DOPC  H17X18133   2.507   4.510  14.220  1.3767 -0.7542  2.7241
  151DOPC  H17Y18134   2.637   4.382  14.233 -0.1260 -1.1659 -0.8170
  151DOPC  C31818135   2.602   4.446  14.039  0.0726  0.2587  0.8166
  151DOPC  H18X18136   2.641   4.357  13.984 -1.9177 -0.4264  0.4480
  151DOPC  H18Y18137   2.512   4.467  13.978 -0.1939 -0.8305  0.8058
  151DOPC  H18Z18138   2.683   4.522  14.040  2.0247 -1.7272  1.4000
  152DOPC     N18139   5.181   1.745  16.544 -0.6393 -0.3328 -0.0763
  152DOPC   C1218140   5.224   1.762  16.406 -0.4744  0.3853 -0.2810
  152DOPC  H12A18141   5.285   1.680  16.370  0.5181  0.4047  1.2367
  152DOPC  H12B18142   5.285   1.851  16.408 -0.7466  0.5699 -0.1112
  152DOPC   C1318143   5.111   1.867  16.594  0.1905  0.4656 -0.7192
  152DOPC  H13A18144   5.025   1.901  16.538 -1.5907 -1.5757  0.5793
  152DOPC  H13B18145   5.080   1.850  16.697  1.0989 -0.6500 -0.6110
  152DOPC  H13C18146   5.175   1.954  16.596 -0.5951  1.0625 -0.0420
  152DOPC   C1418147   5.299   1.722  16.639  0.1862 -0.0859  0.3890
  152DOPC  H14A18148   5.371   1.803  16.636 -0.7040  0.7409  0.7640
  152DOPC  H14B18149   5.259   1.699  16.736 -0.2314 -0.0226  0.2343
  152DOPC  H14C18150   5.355   1.637  16.604 -2.2622 -1.3989 -0.5148
  152DOPC   C1518151   5.096   1.619  16.563  0.4766 -0.2429 -0.2702
  152DOPC  H15A18152   5.079   1.597  16.668 -0.5726 -1.0394 -0.5924
  152DOPC  H15B18153   5.153   1.542  16.514  2.0210 -0.0827  1.2092
  152DOPC  H15C18154   5.004   1.636  16.509 -0.2796  1.6238  1.4436
  152DOPC   C1118155   5.120   1.777  16.300 -0.0053 -0.1240 -0.2854
  152DOPC  H11A18156   5.102   1.671  16.274  0.3126  0.3226 -2.5379
  152DOPC  H11B18157   5.024   1.814  16.342  0.0294  0.5814 -0.8147
  152DOPC     P18158   5.134   1.836  16.051 -0.0990  0.1511  0.1491
  152DOPC   O1318159   5.140   1.960  15.973 -0.3631 -0.3052 -0.2716
  152DOPC   O1418160   5.004   1.766  16.053 -0.3974 -0.4313  0.3023
  152DOPC   O1218161   5.178   1.862  16.200  0.0067  0.7139 -0.2408
  152DOPC   O1118162   5.242   1.737  15.999 -0.2630  0.3943 -0.2280
  152DOPC    C118163   5.320   1.769  15.880 -0.5953  0.6870 -0.5047
  152DOPC    HA18164   5.425   1.734  15.888 -0.0151  2.5201  0.8322
  152DOPC    HB18165   5.328   1.880  15.873  0.1648  0.6141 -0.8672
  152DOPC    C218166   5.252   1.719  15.746 -0.8187 -0.2956 -0.6215
  152DOPC    HS18167   5.153   1.765  15.727  0.3464  2.7056  0.0023
  152DOPC   O2118168   5.248   1.570  15.768  0.2131 -0.3622  0.5820
  152DOPC   C2118169   5.176   1.511  15.679 -0.0597  0.4720 -0.1941
  152DOPC   O2218170   5.087   1.564  15.609  0.4149 -0.1806 -0.3754
  152DOPC   C2218171   5.218   1.361  15.680  0.5023 -0.0328  0.5703
  152DOPC   H2R18172   5.142   1.305  15.737 -2.7770  3.7106  0.3165
  152DOPC   H2S18173   5.315   1.364  15.734  0.4919  0.7754  0.5599
  152DOPC    C318174   5.339   1.756  15.619  0.4348  0.2044 -0.2828
  152DOPC    HX18175   5.322   1.865  15.606  0.5040  0.2812  0.2682
  152DOPC    HY18176   5.291   1.698  15.537 -1.3466  0.4215  0.5640
  152DOPC   O3118177   5.471   1.708  15.639 -0.7000  0.0166 -0.8426
  152DOPC   C3118178   5.550   1.711  15.535  0.2612 -0.1221 -0.1285
  152DOPC   O3218179   5.519   1.751  15.422  0.0790  0.3611 -0.1163
  152DOPC   C3218180   5.681   1.649  15.574  0.0569 -0.2339  0.6407
  152DOPC   H2X18181   5.748   1.730  15.609  1.9971 -0.9471 -1.2377
  152DOPC   H2Y18182   5.660   1.591  15.667 -0.6374 -1.1082 -0.0417
  152DOPC   C2318183   5.235   1.306  15.535  0.5098  0.2187  0.5011
  152DOPC   H3R18184   5.299   1.378  15.480  1.6975 -0.2648  1.1990
  152DOPC   H3S18185   5.137   1.292  15.485 -0.6507  0.7531  2.4824
  152DOPC   C2418186   5.295   1.172  15.539 -0.0457  0.1410  0.3783
  152DOPC   H4R18187   5.212   1.102  15.560 -1.0543  1.2453  0.1612
  152DOPC   H4S18188   5.381   1.159  15.608 -0.3417 -0.5897  0.6177
  152DOPC   C2518189   5.359   1.134  15.403  0.2720  0.2810  0.6805
  152DOPC   H5R18190   5.459   1.183  15.396 -0.9874  2.9852  0.1987
  152DOPC   H5S18191   5.305   1.173  15.314  1.3732 -3.0552 -1.6234
  152DOPC   C2618192   5.369   0.980  15.392  0.0621 -0.1369  0.3505
  152DOPC   H6R18193   5.275   0.938  15.433  0.6716 -1.1723  0.7254
  152DOPC   H6S18194   5.447   0.951  15.466  0.2942 -0.2375  0.0696
  152DOPC   C2718195   5.400   0.934  15.249 -0.3252  0.4543  0.6765
  152DOPC   H7R18196   5.501   0.971  15.224  0.9028 -3.3865 -0.7344
  152DOPC   H7S18197   5.324   0.986  15.187  0.0728 -0.6292 -0.7589
  152DOPC   C2818198   5.386   0.783  15.226  0.6001 -0.2342 -0.8649
  152DOPC   H8R18199   5.384   0.760  15.117 -1.1237 -0.2175 -0.8570
  152DOPC   H8S18200   5.293   0.747  15.273  1.3255  0.6183  1.3539
  152DOPC   C2918201   5.498   0.707  15.297  0.0030  0.7746 -0.2112
  152DOPC   H9R18202   5.484   0.682  15.403  0.1067  1.2511 -0.0862
  152DOPC  C21018203   5.623   0.697  15.255 -0.3471 -0.7933  0.6384
  152DOPC  H10R18204   5.698   0.653  15.322  1.4570  2.5293  1.0194
  152DOPC  C21118205   5.670   0.745  15.119  0.1038 -0.5154  0.0569
  152DOPC  H11R18206   5.750   0.822  15.122  1.2138 -1.6227 -0.1621
  152DOPC  H11S18207   5.584   0.794  15.069 -0.3402  1.2535  2.3658
  152DOPC  C21218208   5.728   0.633  15.027  0.7411  0.2866 -0.1781
  152DOPC  H12R18209   5.809   0.579  15.081  0.3725  0.6508  0.7485
  152DOPC  H12S18210   5.778   0.685  14.942  1.6660  2.2815  1.4930
  152DOPC  C21318211   5.620   0.531  14.973  0.3582  0.1513  0.1032
  152DOPC  H13R18212   5.539   0.575  14.912 -0.1230 -1.6861 -0.6422
  152DOPC  H13S18213   5.586   0.488  15.070  0.1420  0.5640  0.2147
  152DOPC  C21418214   5.676   0.410  14.888  0.7614 -0.1154 -0.0372
  152DOPC  H14R18215   5.744   0.341  14.941  0.0872 -0.7149  0.0496
  152DOPC  H14S18216   5.722   0.440  14.790 -0.0816 -0.8231 -0.6618
  152DOPC  C21518217   5.562   0.330  14.819  0.2456 -0.5046 -0.5053
  152DOPC  H15R18218   5.490   0.391  14.761 -0.5636 -1.4344 -0.5251
  152DOPC  H15S18219   5.515   0.280  14.907 -0.0253  1.7802  0.7274
  152DOPC  C21618220   5.609   0.220  14.723  0.2324 -0.4021  0.3158
  152DOPC  H16R18221   5.670   0.267  14.643  0.3238  1.3794  1.3964
  152DOPC  H16S18222   5.514   0.185  14.678  1.0852 -4.7878  1.4330
  152DOPC  C21718223   5.673   0.100  14.798  0.0705 -0.4011 -0.2270
  152DOPC  H17R18224   5.622   0.098  14.897  0.3972  0.0093 -0.0513
  152DOPC  H17S18225   5.780   0.111  14.823  0.1664 -0.3300 -0.6575
  152DOPC  C21818226   5.645  -0.031  14.726  0.2105 -0.4251 -0.1062
  152DOPC  H18R18227   5.678  -0.017  14.621 -2.0604  0.6830 -0.7342
  152DOPC  H18S18228   5.534  -0.043  14.727 -0.2708  2.9940 -0.8410
  152DOPC  H18T18229   5.699  -0.117  14.770 -0.8381 -1.1905 -0.2723
  152DOPC   C3318230   5.745   1.548  15.476 -0.9309 -0.7287  0.2690
  152DOPC   H3X18231   5.668   1.475  15.445 -0.0653 -0.6279 -2.3198
  152DOPC   H3Y18232   5.815   1.485  15.535  0.6343  1.5853  1.0230
  152DOPC   C3418233   5.837   1.616  15.368 -0.1331 -0.0918 -0.0799
  152DOPC   H4X18234   5.901   1.696  15.410  1.0886 -1.1553  0.1627
  152DOPC   H4Y18235   5.763   1.667  15.302  2.6436  0.8095 -2.7267
  152DOPC   C3518236   5.931   1.521  15.308  0.1970 -0.1380 -0.1630
  152DOPC   H5X18237   5.865   1.440  15.269 -1.2189 -1.0141  3.6156
  152DOPC   H5Y18238   6.002   1.485  15.386  0.7879  1.2670 -0.0238
  152DOPC   C3618239   6.014   1.571  15.187  0.6547 -0.7741 -0.7169
  152DOPC   H6X18240   6.060   1.484  15.135  0.4466 -0.6314 -1.1528
  152DOPC   H6Y18241   5.950   1.628  15.116  1.5762  0.8278 -0.3193
  152DOPC   C3718242   6.128   1.668  15.227 -0.1370  0.4193 -0.1929
  152DOPC   H7X18243   6.073   1.764  15.240  0.8043  1.4726 -3.0984
  152DOPC   H7Y18244   6.185   1.641  15.318 -1.4779  2.3849  1.3251
  152DOPC   C3818245   6.236   1.708  15.119 -0.2956  0.7491  0.6312
  152DOPC   H8X18246   6.296   1.618  15.096  0.4030  1.2868  0.3076
  152DOPC   H8Y18247   6.306   1.786  15.157  1.4222 -1.4808  2.3511
  152DOPC   C3918248   6.184   1.765  14.990  0.3559 -0.7031  0.5324
  152DOPC   H9X18249   6.096   1.830  14.991 -0.2807 -1.5342 -0.0544
  152DOPC  C31018250   6.220   1.742  14.864 -0.4679 -0.3534  0.7336
  152DOPC  H10X18251   6.169   1.800  14.786 -0.1707 -1.0450  0.0135
  152DOPC  C31118252   6.335   1.660  14.812 -0.1707  0.3901  0.2710
  152DOPC  H11X18253   6.406   1.646  14.896 -0.4912 -1.9464  0.2369
  152DOPC  H11Y18254   6.379   1.705  14.721 -0.7260  0.1514 -0.1265
  152DOPC  C31218255   6.278   1.526  14.772 -0.2759 -0.2952 -0.4055
  152DOPC  H12X18256   6.209   1.540  14.686 -0.9249  1.9191  0.3990
  152DOPC  H12Y18257   6.227   1.476  14.857 -0.1947 -0.5373 -0.4959
  152DOPC  C31318258   6.385   1.428  14.721 -0.2776 -0.2704  0.6213
  152DOPC  H13X18259   6.436   1.487  14.641 -1.2669  0.6068  0.6119
  152DOPC  H13Y18260   6.467   1.399  14.790  0.4217 -0.0262 -0.0897
  152DOPC  C31418261   6.333   1.305  14.651  0.1302 -0.4074  0.0018
  152DOPC  H14X18262   6.301   1.236  14.732 -0.7314  0.3211  0.3010
  152DOPC  H14Y18263   6.247   1.311  14.581  1.1933  1.2323 -1.2290
  152DOPC  C31518264   6.449   1.236  14.574 -0.4676  0.6362  0.1302
  152DOPC  H15X18265   6.533   1.220  14.646 -0.7489 -1.2342  0.0812
  152DOPC  H15Y18266   6.478   1.298  14.486 -2.7665 -0.2404 -1.3234
  152DOPC  C31618267   6.409   1.103  14.511  0.0199 -0.2131 -0.2709
  152DOPC  H16X18268   6.352   1.041  14.582  1.3140 -1.8902 -0.6224
  152DOPC  H16Y18269   6.344   1.138  14.427  0.9043 -0.4579 -1.0838
  152DOPC  C31718270   6.527   1.027  14.448  0.4280 -0.5188  0.0647
  152DOPC  H17X18271   6.588   0.994  14.534  1.9331  0.9199 -0.3893
  152DOPC  H17Y18272   6.490   0.934  14.401 -0.5788 -0.4188  0.6341
  152DOPC  C31818273   6.609   1.100  14.346  0.1142 -0.1494 -0.1165
  152DOPC  H18X18274   6.685   1.027  14.311 -0.7288 -0.4406 -1.4252
  152DOPC  H18Y18275   6.548   1.117  14.254 -0.7105 -0.6726  0.3196
  152DOPC  H18Z18276   6.649   1.200  14.373  1.4546 -0.9134  0.8235
  153DOPC     N18277   6.297   5.652  16.303  0.1285  0.1784 -0.1340
  153DOPC   C1218278   6.397   5.570  16.233 -0.4890 -0.1627 -0.2956
  153DOPC  H12A18279   6.356   5.480  16.191  0.3746 -0.5754 -0.2751
  153DOPC  H12B18280   6.467   5.523  16.300  0.0524  0.7332 -0.2063
  153DOPC   C1318281   6.212   5.716  16.196 -0.3209  0.7649 -0.2117
  153DOPC  H13A18282   6.133   5.774  16.243 -0.8795  0.1898 -0.4347
  153DOPC  H13B18283   6.269   5.787  16.138  0.7986  1.7734  1.9724
  153DOPC  H13C18284   6.165   5.642  16.134  2.6236  0.0819 -1.8225
  153DOPC   C1418285   6.364   5.745  16.395  0.0180 -0.1558 -0.4954
  153DOPC  H14A18286   6.431   5.695  16.463 -2.2760  1.0179  2.8632
  153DOPC  H14B18287   6.432   5.804  16.335  3.6532 -2.3081  1.1871
  153DOPC  H14C18288   6.301   5.816  16.446  0.6560  1.7882 -2.2630
  153DOPC   C1518289   6.213   5.568  16.389 -0.7286 -0.0754  0.6170
  153DOPC  H15A18290   6.179   5.480  16.336  1.1072 -2.1379  2.6176
  153DOPC  H15B18291   6.126   5.622  16.422  0.8185  3.6779 -0.8933
  153DOPC  H15C18292   6.266   5.536  16.478 -0.4256  2.5633  1.4526
  153DOPC   C1118293   6.478   5.632  16.115 -0.0219  0.0010 -0.2420
  153DOPC  H11A18294   6.548   5.555  16.076 -1.5257 -1.6611  0.2015
  153DOPC  H11B18295   6.417   5.645  16.023 -1.6120  0.6385  0.8614
  153DOPC     P18296   6.692   5.747  16.207  0.1004  0.3318  0.0552
  153DOPC   O1318297   6.712   5.618  16.273 -0.2294  0.1919  0.5872
  153DOPC   O1418298   6.729   5.868  16.277 -0.4344 -0.1334  0.1750
  153DOPC   O1218299   6.543   5.748  16.149 -0.1727 -0.4588  0.3649
  153DOPC   O1118300   6.780   5.749  16.082  0.7254  0.0040  0.4617
  153DOPC    C118301   6.775   5.858  15.991 -0.1704 -0.3411  0.1610
  153DOPC    HA18302   6.877   5.871  15.950  2.2531 -1.4489  5.0339
  153DOPC    HB18303   6.752   5.954  16.041  0.0853 -0.6649  0.9206
  153DOPC    C218304   6.670   5.845  15.878 -0.0692 -0.4486  0.6741
  153DOPC    HS18305   6.570   5.861  15.922  0.1364  2.3360  0.2955
  153DOPC   O2118306   6.691   5.720  15.805 -0.2276  0.3714  0.1064
  153DOPC   C2118307   6.580   5.660  15.765  0.3065 -0.0421  0.2831
  153DOPC   O2218308   6.467   5.709  15.763  0.2975 -0.4890  0.3249
  153DOPC   C2218309   6.616   5.514  15.753 -0.6345 -0.1013  1.1609
  153DOPC   H2R18310   6.610   5.465  15.852 -1.6573  1.3522  1.8551
  153DOPC   H2S18311   6.721   5.516  15.717 -0.5546  3.7912  1.1544
  153DOPC    C318312   6.682   5.969  15.787  0.3418  0.2903 -0.8763
  153DOPC    HX18313   6.786   5.971  15.749  0.0961 -0.5076 -1.6341
  153DOPC    HY18314   6.663   6.055  15.854  2.9874  0.7174 -0.5802
  153DOPC   O3118315   6.589   5.971  15.672  0.2152 -0.0893  0.0348
  153DOPC   C3118316   6.462   6.001  15.702  0.1586  0.2158  0.4629
  153DOPC   O3218317   6.418   6.020  15.813  0.4284  0.3119 -0.0626
  153DOPC   C3218318   6.382   6.024  15.578  0.0064  0.6872  0.5620
  153DOPC   H2X18319   6.413   5.936  15.518 -2.4350  0.5600 -0.6165
  153DOPC   H2Y18320   6.279   6.013  15.616  0.2660  0.4947  1.2277
  153DOPC   C2318321   6.523   5.462  15.642 -0.2624 -0.7862  0.0278
  153DOPC   H3R18322   6.416   5.479  15.665 -0.3736 -0.6781 -0.5393
  153DOPC   H3S18323   6.538   5.352  15.653  0.7185 -0.5211  1.5745
  153DOPC   C2418324   6.553   5.495  15.496 -0.5247  0.1365  0.1813
  153DOPC   H4R18325   6.542   5.401  15.437  0.4775  0.4353 -0.5085
  153DOPC   H4S18326   6.661   5.508  15.475 -0.2263 -1.5465  0.5742
  153DOPC   C2518327   6.475   5.616  15.437  0.1423 -0.2540  0.0348
  153DOPC   H5R18328   6.509   5.710  15.486 -0.3002  0.0370 -0.2202
  153DOPC   H5S18329   6.372   5.596  15.472  0.6962 -4.1783 -0.0991
  153DOPC   C2618330   6.485   5.612  15.284  0.7270  0.3593  0.0902
  153DOPC   H6R18331   6.412   5.534  15.254  1.3874  0.2566 -1.3013
  153DOPC   H6S18332   6.590   5.594  15.254  0.3407  0.6275 -1.5081
  153DOPC   C2718333   6.440   5.738  15.213 -0.5996 -0.4068  0.5924
  153DOPC   H7R18334   6.502   5.814  15.264 -0.9159 -1.0906  2.0452
  153DOPC   H7S18335   6.334   5.762  15.233 -1.2526 -1.7738 -0.9911
  153DOPC   C2818336   6.463   5.732  15.059  0.4833 -0.0940 -0.3458
  153DOPC   H8R18337   6.563   5.692  15.033  0.4903  0.0028 -0.4644
  153DOPC   H8S18338   6.465   5.836  15.020  1.6662 -0.2348 -0.7132
  153DOPC   C2918339   6.356   5.655  14.979  0.3596  0.4801 -0.2717
  153DOPC   H9R18340   6.317   5.576  15.046  0.1392  0.4642 -0.4180
  153DOPC  C21018341   6.314   5.671  14.853  0.0073 -0.4091 -0.1763
  153DOPC  H10R18342   6.244   5.600  14.807  0.0574 -0.9182  0.5173
  153DOPC  C21118343   6.355   5.792  14.765 -0.0191  0.4384  0.1357
  153DOPC  H11R18344   6.451   5.828  14.806 -0.0507  0.4725  0.1799
  153DOPC  H11S18345   6.278   5.871  14.776 -0.0942  0.1818  1.6924
  153DOPC  C21218346   6.369   5.771  14.613  0.2347 -0.1988  0.4665
  153DOPC  H12R18347   6.364   5.864  14.553  1.8611 -0.6930 -0.5337
  153DOPC  H12S18348   6.269   5.732  14.586  0.2729 -0.4037  0.6205
  153DOPC  C21318349   6.489   5.690  14.574  0.0236 -0.0106 -0.2314
  153DOPC  H13R18350   6.501   5.600  14.639  2.0230  0.7976  0.6153
  153DOPC  H13S18351   6.578   5.756  14.581 -0.0028 -0.0111  0.1221
  153DOPC  C21418352   6.482   5.647  14.420  0.1732  0.1714  0.0478
  153DOPC  H14R18353   6.441   5.734  14.365 -1.3747 -1.1718 -1.0388
  153DOPC  H14S18354   6.411   5.562  14.412  0.8282 -0.5497  1.5062
  153DOPC  C21518355   6.615   5.585  14.369 -0.2279  0.1049 -0.6329
  153DOPC  H15R18356   6.682   5.674  14.371 -1.7242  1.2522  0.7977
  153DOPC  H15S18357   6.590   5.567  14.262 -0.9473  1.8154 -0.7826
  153DOPC  C21618358   6.674   5.462  14.454  0.5290  0.2326 -0.3126
  153DOPC  H16R18359   6.607   5.375  14.447 -0.7583  1.2246 -0.7189
  153DOPC  H16S18360   6.671   5.492  14.561  1.7508  0.9263 -0.4474
  153DOPC  C21718361   6.815   5.421  14.409 -0.7784 -0.2026 -0.6768
  153DOPC  H17R18362   6.871   5.364  14.487  0.5065  3.3302  1.2310
  153DOPC  H17S18363   6.871   5.516  14.393  0.9389 -1.1050 -0.3199
  153DOPC  C21818364   6.817   5.342  14.281  0.0633 -0.4737 -0.1588
  153DOPC  H18R18365   6.756   5.381  14.197 -0.1464 -1.1936 -0.3493
  153DOPC  H18S18366   6.785   5.237  14.297  2.8306 -1.2544  0.7998
  153DOPC  H18T18367   6.920   5.339  14.238  0.8019 -0.9308  1.5561
  153DOPC   C3318368   6.400   6.159  15.524  1.0800 -0.5344  0.6267
  153DOPC   H3X18369   6.504   6.197  15.519  0.5770  0.7288 -2.8117
  153DOPC   H3Y18370   6.351   6.240  15.582 -1.1286 -1.6478  0.4157
  153DOPC   C3418371   6.334   6.184  15.384 -0.5585 -0.1341 -0.0680
  153DOPC   H4X18372   6.315   6.292  15.368  3.2674  1.4119  3.9192
  153DOPC   H4Y18373   6.235   6.135  15.382 -0.5860 -0.0630 -1.3315
  153DOPC   C3518374   6.419   6.132  15.262  0.6549  0.2157  0.1233
  153DOPC   H5X18375   6.453   6.029  15.287  0.1295 -0.0185 -0.1019
  153DOPC   H5Y18376   6.504   6.202  15.251 -0.1287  1.3546  1.1123
  153DOPC   C3618377   6.345   6.132  15.117  0.3454  0.2920 -0.1800
  153DOPC   H6X18378   6.360   6.040  15.057  0.8168 -1.4363  2.4562
  153DOPC   H6Y18379   6.236   6.134  15.133  0.2355 -2.6736 -0.1461
  153DOPC   C3718380   6.378   6.263  15.043 -0.5772  0.5628  0.1598
  153DOPC   H7X18381   6.365   6.348  15.113  0.5471  0.0283  1.0405
  153DOPC   H7Y18382   6.483   6.255  15.008  0.0930  0.4031  2.1132
  153DOPC   C3818383   6.298   6.290  14.914 -0.9838  0.6342 -0.0133
  153DOPC   H8X18384   6.189   6.305  14.929 -1.1631  0.3037 -0.9156
  153DOPC   H8Y18385   6.301   6.193  14.859 -1.8863  0.3932  0.3436
  153DOPC   C3918386   6.354   6.408  14.831  0.5952  0.4448 -0.2152
  153DOPC   H9X18387   6.374   6.505  14.879  2.8517  1.0932 -2.2524
  153DOPC  C31018388   6.384   6.415  14.703 -0.2922 -0.1011  0.4871
  153DOPC  H10X18389   6.416   6.512  14.661 -0.8325 -0.3408 -0.5157
  153DOPC  C31118390   6.357   6.316  14.590 -0.5280  0.4286  0.1530
  153DOPC  H11X18391   6.334   6.214  14.627  2.7031 -0.2438  0.6410
  153DOPC  H11Y18392   6.449   6.294  14.530  0.2723  0.9103  1.1757
  153DOPC  C31218393   6.258   6.376  14.481  0.3664 -0.1458 -0.4894
  153DOPC  H12X18394   6.315   6.450  14.421  0.4130 -0.0020 -0.2682
  153DOPC  H12Y18395   6.185   6.441  14.533 -1.2342  0.6231 -3.4571
  153DOPC  C31318396   6.186   6.268  14.396  0.6545  0.3406  0.1841
  153DOPC  H13X18397   6.265   6.198  14.362  0.4626  0.7662 -1.1769
  153DOPC  H13Y18398   6.125   6.208  14.468  1.4358 -0.0336  0.5385
  153DOPC  C31418399   6.094   6.321  14.287  0.5343 -0.3642 -0.6794
  153DOPC  H14X18400   6.023   6.242  14.252  1.0035 -1.0898 -0.0161
  153DOPC  H14Y18401   6.030   6.401  14.330  0.1937 -0.1989 -1.4708
  153DOPC  C31518402   6.162   6.392  14.170 -0.1945  0.3131 -0.0887
  153DOPC  H15X18403   6.268   6.358  14.165  0.3078  1.9438 -1.8239
  153DOPC  H15Y18404   6.177   6.501  14.188  1.0489  0.2555 -0.6624
  153DOPC  C31618405   6.093   6.366  14.036  0.2447 -0.4777 -0.6000
  153DOPC  H16X18406   6.080   6.256  14.026  2.0071 -0.8335  0.6130
  153DOPC  H16Y18407   5.994   6.416  14.042  0.6744  0.4200 -0.7551
  153DOPC  C31718408   6.175   6.407  13.909  0.1395 -0.6186 -0.2890
  153DOPC  H17X18409   6.212   6.511  13.918  1.3436 -0.9287 -1.3128
  153DOPC  H17Y18410   6.267   6.345  13.904  0.6855  0.2765 -2.0398
  153DOPC  C31818411   6.101   6.387  13.777 -0.0177 -0.2600  0.1335
  153DOPC  H18X18412   6.167   6.422  13.695  0.7165  1.7328  1.4892
  153DOPC  H18Y18413   6.082   6.278  13.768 -0.2458 -0.4035  2.0425
  153DOPC  H18Z18414   6.000   6.434  13.772  1.4262  3.0622 -1.5211
  154DOPC     N18415   6.456   3.110  16.131 -0.4573 -0.0132 -0.1386
  154DOPC   C1218416   6.578   3.071  16.053  0.3717  0.0235  0.3957
  154DOPC  H12A18417   6.554   2.985  15.993 -1.2531  1.3994 -1.0356
  154DOPC  H12B18418   6.659   3.030  16.111 -0.0562  0.5985  1.4362
  154DOPC   C1318419   6.481   3.239  16.191  0.0423 -0.3269  0.0572
  154DOPC  H13A18420   6.518   3.308  16.117 -1.6035  1.4891  0.8381
  154DOPC  H13B18421   6.393   3.279  16.240 -1.0395  0.3529 -2.3360
  154DOPC  H13C18422   6.558   3.234  16.267 -1.2659 -0.4420  1.4163
  154DOPC   C1418423   6.425   3.014  16.234 -0.0713  0.2239 -0.7552
  154DOPC  H14A18424   6.390   2.922  16.189 -0.4487 -0.5649  1.0379
  154DOPC  H14B18425   6.509   2.968  16.284 -0.2298 -1.5346 -2.0052
  154DOPC  H14C18426   6.344   3.041  16.299  1.0574  0.3504  0.6634
  154DOPC   C1518427   6.330   3.125  16.048  0.6098  0.6409 -0.1095
  154DOPC  H15A18428   6.336   3.205  15.976 -1.7398 -0.2813 -1.4591
  154DOPC  H15B18429   6.244   3.152  16.108 -0.6907 -0.4051 -1.4137
  154DOPC  H15C18430   6.302   3.035  15.995 -1.1523  1.1714 -0.1567
  154DOPC   C1118431   6.623   3.177  15.950 -0.4403 -0.1395  0.0312
  154DOPC  H11A18432   6.697   3.126  15.884 -0.7588 -2.4615  1.3412
  154DOPC  H11B18433   6.540   3.219  15.890  1.2117  0.4467 -1.9335
  154DOPC     P18434   6.757   3.399  15.928  0.1554  0.0393 -0.1346
  154DOPC   O1318435   6.899   3.364  15.897 -0.6402 -0.0778 -0.5270
  154DOPC   O1418436   6.744   3.522  16.013  0.3812  0.0898  0.2885
  154DOPC   O1218437   6.694   3.279  16.013 -0.5525 -1.5899 -0.4270
  154DOPC   O1118438   6.673   3.406  15.795  0.0323 -0.2019 -0.3388
  154DOPC    C118439   6.626   3.529  15.730 -0.0774  0.2008  0.6127
  154DOPC    HA18440   6.626   3.617  15.798 -0.1266  1.5292 -1.0612
  154DOPC    HB18441   6.523   3.523  15.691  0.5998 -0.7357 -1.1329
  154DOPC    C218442   6.721   3.567  15.618  0.4830 -0.6909  0.2315
  154DOPC    HS18443   6.823   3.532  15.645  1.9834  2.7699 -0.3825
  154DOPC   O2118444   6.718   3.716  15.610 -0.4036  0.1239 -0.0260
  154DOPC   C2118445   6.821   3.771  15.531 -0.0385  0.1959 -0.0658
  154DOPC   O2218446   6.912   3.704  15.491 -0.1847  0.0520  0.4271
  154DOPC   C2218447   6.808   3.920  15.535  0.4980  0.4766 -0.2490
  154DOPC   H2R18448   6.786   3.968  15.633 -1.3480  1.8839 -1.2751
  154DOPC   H2S18449   6.730   3.947  15.461  1.7206 -1.0390 -2.1747
  154DOPC    C318450   6.671   3.505  15.484  0.3793 -0.2168 -0.2236
  154DOPC    HX18451   6.589   3.569  15.445  1.1982  1.6111  0.9276
  154DOPC    HY18452   6.629   3.406  15.509  0.2593 -0.3946 -1.0781
  154DOPC   O3118453   6.761   3.505  15.379 -1.2467  0.0943  0.1995
  154DOPC   C3118454   6.856   3.409  15.390 -0.7225  0.5573 -0.0463
  154DOPC   O3218455   6.880   3.348  15.490  0.0662 -0.2040 -0.1244
  154DOPC   C3218456   6.923   3.380  15.249 -0.1880 -0.6629 -0.3020
  154DOPC   H2X18457   6.865   3.433  15.170 -0.2880  0.2542  0.3744
  154DOPC   H2Y18458   7.024   3.425  15.250  1.1451 -3.4511  1.0155
  154DOPC   C2318459   6.931   3.994  15.471  0.9892 -0.1376 -0.2539
  154DOPC   H3R18460   6.975   3.944  15.382  0.8012 -0.6300 -0.0737
  154DOPC   H3S18461   7.014   3.998  15.544 -0.1996  2.1738  1.0680
  154DOPC   C2418462   6.891   4.138  15.437  0.7108 -0.1162  0.2127
  154DOPC   H4R18463   6.863   4.200  15.525 -1.2959  0.8525 -1.0398
  154DOPC   H4S18464   6.809   4.151  15.363 -1.1615 -1.8971  1.8646
  154DOPC   C2518465   7.009   4.204  15.351  0.6245  0.2728  0.3996
  154DOPC   H5R18466   7.029   4.158  15.252 -0.5371 -1.9255  1.1162
  154DOPC   H5S18467   7.103   4.197  15.411  0.5727 -1.9210  0.3009
  154DOPC   C2618468   6.990   4.363  15.341 -0.5579  0.2912  0.3166
  154DOPC   H6R18469   6.965   4.411  15.438  0.9756 -0.7757  1.2817
  154DOPC   H6S18470   6.911   4.393  15.270  0.8426  0.2858 -1.3071
  154DOPC   C2718471   7.117   4.430  15.282 -0.3038  0.2510 -0.5246
  154DOPC   H7R18472   7.161   4.357  15.211  1.5860  0.1655  0.6607
  154DOPC   H7S18473   7.187   4.446  15.367 -0.0130 -0.2698 -0.6643
  154DOPC   C2818474   7.093   4.562  15.214 -0.4668  0.2990  0.4752
  154DOPC   H8R18475   7.198   4.585  15.186  0.8906 -3.2289  2.0329
  154DOPC   H8S18476   7.065   4.641  15.286 -1.0557  1.1750 -0.6851
  154DOPC   C2918477   6.996   4.575  15.092 -0.0072 -0.0818 -0.2958
  154DOPC   H9R18478   7.031   4.530  14.998 -1.6607  1.5687 -1.7558
  154DOPC  C21018479   6.881   4.645  15.081  0.1330  0.3384 -0.4366
  154DOPC  H10R18480   6.825   4.651  14.987 -1.0890 -1.0480  0.1433
  154DOPC  C21118481   6.827   4.735  15.187 -0.0129 -0.4210 -0.2936
  154DOPC  H11R18482   6.776   4.823  15.141  2.3455  0.0667 -2.1743
  154DOPC  H11S18483   6.909   4.765  15.256  0.4975  0.2434 -1.1670
  154DOPC  C21218484   6.712   4.664  15.263 -0.6259  0.3951 -0.3747
  154DOPC  H12R18485   6.743   4.568  15.310 -1.2232 -0.0624 -0.8809
  154DOPC  H12S18486   6.632   4.632  15.192 -1.2144 -1.5715  1.0740
  154DOPC  C21318487   6.639   4.748  15.373 -0.5604 -0.2791 -0.2453
  154DOPC  H13R18488   6.547   4.694  15.404 -0.0983 -0.5941  0.6138
  154DOPC  H13S18489   6.597   4.834  15.316 -1.5556 -0.3188  0.3963
  154DOPC  C21418490   6.731   4.792  15.493 -0.5324  0.6910 -0.3575
  154DOPC  H14R18491   6.670   4.857  15.559 -0.8124  0.3635 -0.2848
  154DOPC  H14S18492   6.807   4.864  15.456  1.3886 -1.2300 -0.3479
  154DOPC  C21518493   6.784   4.676  15.570 -0.1942 -0.4574 -0.3811
  154DOPC  H15R18494   6.837   4.606  15.502 -0.4681  0.7813 -1.9256
  154DOPC  H15S18495   6.714   4.615  15.631 -0.6459 -1.2932 -1.6980
  154DOPC  C21618496   6.894   4.745  15.671 -0.4364 -0.0414  0.4795
  154DOPC  H16R18497   6.833   4.799  15.747  0.1438 -0.3743  1.1948
  154DOPC  H16S18498   6.967   4.814  15.625  0.2723 -0.3927  1.0618
  154DOPC  C21718499   6.989   4.653  15.738  0.6678  0.6046 -0.3698
  154DOPC  H17R18500   6.933   4.565  15.776 -1.4443  0.5050 -3.3781
  154DOPC  H17S18501   7.042   4.697  15.825  0.8877 -0.3923  0.0232
  154DOPC  C21818502   7.094   4.582  15.652  0.2178 -0.0781  0.0212
  154DOPC  H18R18503   7.170   4.651  15.610 -1.7809  0.0665 -3.8901
  154DOPC  H18S18504   7.058   4.521  15.566 -0.3498  1.4505 -0.8720
  154DOPC  H18T18505   7.151   4.512  15.717 -0.3488  0.8676  1.5716
  154DOPC   C3318506   6.948   3.241  15.199  0.2736  0.1143  0.0942
  154DOPC   H3X18507   6.851   3.194  15.174  0.1655 -0.1709  1.0025
  154DOPC   H3Y18508   6.984   3.189  15.291  2.1964 -1.3900 -1.4145
  154DOPC   C3418509   7.047   3.230  15.087  0.3418 -0.0155 -0.1204
  154DOPC   H4X18510   7.134   3.296  15.105 -1.1528  1.6214  1.4793
  154DOPC   H4Y18511   6.992   3.269  14.998  0.9766 -2.8305 -1.9109
  154DOPC   C3518512   7.090   3.085  15.061  0.4479 -0.6139 -1.5418
  154DOPC   H5X18513   7.010   3.008  15.052  1.5065 -1.9222 -0.1908
  154DOPC   H5Y18514   7.146   3.067  15.155 -2.2938  2.3744  0.8696
  154DOPC   C3618515   7.182   3.077  14.941  0.5173  0.1643  0.2923
  154DOPC   H6X18516   7.261   3.155  14.943 -0.3355  1.1716 -1.6577
  154DOPC   H6Y18517   7.236   2.980  14.937  0.0698 -0.0897  0.2611
  154DOPC   C3718518   7.094   3.069  14.820  0.2534 -0.0354  0.4169
  154DOPC   H7X18519   7.024   2.983  14.822 -0.7345  0.7527  1.9288
  154DOPC   H7Y18520   7.026   3.157  14.816 -0.6056 -0.7184 -0.7334
  154DOPC   C3818521   7.168   3.041  14.691 -0.2908 -0.2305  0.2300
  154DOPC   H8X18522   7.246   2.963  14.705 -2.6022 -2.8446 -0.3727
  154DOPC   H8Y18523   7.215   3.136  14.657 -0.7336 -0.5886 -1.5088
  154DOPC   C3918524   7.069   2.988  14.582 -0.8873  0.3304  0.1529
  154DOPC   H9X18525   6.969   3.036  14.584 -0.9194  0.3808 -1.2478
  154DOPC  C31018526   7.092   2.893  14.488 -0.2891 -0.4585  0.0560
  154DOPC  H10X18527   7.014   2.864  14.417 -2.5909  1.7160  1.5527
  154DOPC  C31118528   7.225   2.831  14.465 -0.2425  0.3272 -0.7142
  154DOPC  H11X18529   7.236   2.746  14.536  2.9935  0.0617 -1.3964
  154DOPC  H11Y18530   7.307   2.894  14.506 -1.1233 -0.2870  2.2326
  154DOPC  C31218531   7.255   2.788  14.323  0.1671 -0.2099 -0.0270
  154DOPC  H12X18532   7.277   2.880  14.265  3.4505 -1.6874 -1.3313
  154DOPC  H12Y18533   7.167   2.732  14.284 -0.0455  0.7722 -0.9986
  154DOPC  C31318534   7.380   2.697  14.298 -0.1704 -0.2425 -0.1817
  154DOPC  H13X18535   7.463   2.753  14.345 -0.1370  1.4750 -2.1689
  154DOPC  H13Y18536   7.373   2.600  14.353  2.1717 -0.9217 -0.9443
  154DOPC  C31418537   7.412   2.664  14.156 -0.2401 -0.7223  0.7519
  154DOPC  H14X18538   7.328   2.619  14.098  0.2580 -0.0753 -0.5275
  154DOPC  H14Y18539   7.438   2.762  14.111  0.5109 -1.1693  0.1674
  154DOPC  C31518540   7.528   2.570  14.140  0.0429 -0.7638 -0.2984
  154DOPC  H15X18541   7.583   2.590  14.234  0.3458 -0.9361 -0.4370
  154DOPC  H15Y18542   7.601   2.589  14.059  0.8232  2.0181  0.9287
  154DOPC  C31618543   7.483   2.419  14.126  0.0739  0.0539  0.3693
  154DOPC  H16X18544   7.414   2.398  14.211  0.5314 -2.1095  0.2481
  154DOPC  H16Y18545   7.431   2.411  14.028 -0.8909  3.6530  0.4293
  154DOPC  C31718546   7.609   2.332  14.128  0.9581  0.3282 -0.4624
  154DOPC  H17X18547   7.680   2.367  14.050 -1.4821  2.2165 -1.9750
  154DOPC  H17Y18548   7.646   2.342  14.232  1.0928 -1.0135 -0.3597
  154DOPC  C31818549   7.584   2.182  14.099 -0.0739  0.3326  0.3288
  154DOPC  H18X18550   7.522   2.146  14.184 -3.4812  0.9200 -1.7058
  154DOPC  H18Y18551   7.525   2.171  14.005  2.0429  3.8633 -1.6501
  154DOPC  H18Z18552   7.683   2.132  14.100  0.4198  1.2312  2.4422
  155DOPC     N18553   3.470   2.135  15.774 -0.1411 -0.2974  0.8968
  155DOPC   C1218554   3.583   2.183  15.863  0.7106 -0.9325 -0.8189
  155DOPC  H12A18555   3.680   2.143  15.839  1.8912  0.5659  1.0785
  155DOPC  H12B18556   3.557   2.145  15.961  1.2436  2.1394  0.6320
  155DOPC   C1318557   3.349   2.196  15.817  0.5904  0.0131 -0.4596
  155DOPC  H13A18558   3.265   2.158  15.761 -0.0135 -0.1755  0.5679
  155DOPC  H13B18559   3.341   2.192  15.924 -0.2608 -0.1772 -0.5225
  155DOPC  H13C18560   3.346   2.301  15.791  1.4076 -0.0282 -0.7744
  155DOPC   C1418561   3.459   1.983  15.791 -0.7794 -0.8123  0.0710
  155DOPC  H14A18562   3.386   1.948  15.719 -0.7753  0.5629 -0.6318
  155DOPC  H14B18563   3.550   1.931  15.767 -0.1420  0.7011 -0.9644
  155DOPC  H14C18564   3.423   1.946  15.886  0.4539  0.2034  0.9849
  155DOPC   C1518565   3.495   2.166  15.630  0.1701  0.0470  0.7354
  155DOPC  H15A18566   3.404   2.146  15.576  0.3184  0.5629  0.2897
  155DOPC  H15B18567   3.568   2.097  15.588 -0.5564 -0.1680 -0.2108
  155DOPC  H15C18568   3.532   2.265  15.609  0.4580 -0.5229 -1.8176
  155DOPC   C1118569   3.615   2.338  15.877  0.0988  0.2168  0.6573
  155DOPC  H11A18570   3.533   2.408  15.902 -0.1052  0.9193 -1.6658
  155DOPC  H11B18571   3.692   2.342  15.956  0.1685 -1.7117  0.7344
  155DOPC     P18572   3.832   2.386  15.730 -0.1254 -0.1528 -0.4633
  155DOPC   O1318573   3.895   2.252  15.757 -0.7118 -0.4698 -0.0772
  155DOPC   O1418574   3.893   2.501  15.812 -0.1385 -0.0028  0.7518
  155DOPC   O1218575   3.672   2.378  15.755  0.3721 -0.3129  0.0630
  155DOPC   O1118576   3.857   2.418  15.582 -0.1526 -0.0746 -0.1911
  155DOPC    C118577   3.978   2.398  15.510  0.5520 -0.4684 -0.1548
  155DOPC    HA18578   4.039   2.334  15.578 -2.9774 -1.8913  1.9184
  155DOPC    HB18579   4.024   2.494  15.478 -2.6153  0.4847 -2.3244
  155DOPC    C218580   3.947   2.310  15.375 -0.9351 -0.5642 -0.0118
  155DOPC    HS18581   4.048   2.310  15.329 -0.1199  0.8522  1.6301
  155DOPC   O2118582   3.839   2.354  15.293  0.0458  0.2987 -0.1755
  155DOPC   C2118583   3.870   2.454  15.219 -0.1016 -0.7425  0.1662
  155DOPC   O2218584   3.979   2.513  15.218  0.0158 -0.0638 -0.3086
  155DOPC   C2218585   3.751   2.482  15.123 -0.1174 -0.3640 -0.5601
  155DOPC   H2R18586   3.707   2.580  15.151  0.1653 -0.4843  0.3247
  155DOPC   H2S18587   3.671   2.407  15.142 -0.4663 -0.5428 -2.4879
  155DOPC    C318588   3.914   2.162  15.425 -0.0058 -0.9472 -0.6779
  155DOPC    HX18589   3.822   2.165  15.486 -0.7350  1.0081 -1.7856
  155DOPC    HY18590   3.994   2.127  15.493  1.3542  1.0223 -1.1739
  155DOPC   O3118591   3.925   2.064  15.314  0.9251  0.1364 -0.3385
  155DOPC   C3118592   3.805   2.043  15.272  0.2865  0.4054 -0.2550
  155DOPC   O3218593   3.700   2.061  15.329 -0.2761 -0.0120 -0.5372
  155DOPC   C3218594   3.808   1.980  15.138  0.2147  0.2116  0.5964
  155DOPC   H2X18595   3.906   1.932  15.113 -0.0818  0.1905 -0.5714
  155DOPC   H2Y18596   3.728   1.904  15.142  1.3719 -1.0030  2.6362
  155DOPC   C2318597   3.798   2.456  14.979 -0.0118 -0.0015 -0.2137
  155DOPC   H3R18598   3.865   2.368  14.968  1.5033  1.2733 -1.5853
  155DOPC   H3S18599   3.860   2.545  14.954  0.2400 -0.4453 -1.2060
  155DOPC   C2418600   3.684   2.425  14.884 -0.1685 -0.5500  0.0056
  155DOPC   H4R18601   3.617   2.514  14.886  0.5943  0.0427  2.5808
  155DOPC   H4S18602   3.625   2.347  14.937  0.3511 -0.6328  0.4686
  155DOPC   C2518603   3.733   2.380  14.748 -0.3973 -0.1881  0.0246
  155DOPC   H5R18604   3.822   2.314  14.744  0.9553  1.4910  1.1562
  155DOPC   H5S18605   3.786   2.467  14.703  2.2710 -1.5079  0.4298
  155DOPC   C2618606   3.631   2.333  14.638 -0.3695 -0.4155 -0.0661
  155DOPC   H6R18607   3.551   2.410  14.638  0.1054  0.1835  2.5686
  155DOPC   H6S18608   3.587   2.239  14.678  1.2023 -0.9166  0.5712
  155DOPC   C2718609   3.692   2.305  14.502  0.1581  0.2232  0.2142
  155DOPC   H7R18610   3.774   2.229  14.501  1.3581  1.4610 -1.8985
  155DOPC   H7S18611   3.739   2.398  14.465 -0.4787  0.5388  0.2011
  155DOPC   C2818612   3.596   2.249  14.397  0.7622  0.0005 -0.1269
  155DOPC   H8R18613   3.649   2.253  14.299  1.1601 -1.2618  0.0176
  155DOPC   H8S18614   3.513   2.322  14.391 -0.2201 -1.1369 -0.9044
  155DOPC   C2918615   3.548   2.104  14.424  0.1603 -0.1777 -0.2478
  155DOPC   H9R18616   3.500   2.082  14.521  2.5834  0.1465  1.0883
  155DOPC  C21018617   3.583   1.991  14.352  0.6029 -0.2177  0.7259
  155DOPC  H10R18618   3.551   1.893  14.391 -0.4692 -0.7258 -1.2928
  155DOPC  C21118619   3.669   1.985  14.228 -0.4757  0.2247 -0.2711
  155DOPC  H11R18620   3.777   1.981  14.254 -0.3398  0.1041 -0.8511
  155DOPC  H11S18621   3.661   2.073  14.160  2.1346 -0.0923 -1.0948
  155DOPC  C21218622   3.627   1.869  14.125  0.1533  0.3368 -0.1801
  155DOPC  H12R18623   3.519   1.877  14.101 -0.3430 -1.1901  1.3057
  155DOPC  H12S18624   3.646   1.773  14.178  1.8297  0.7994  0.0930
  155DOPC  C21318625   3.710   1.865  13.994  0.5046  0.1480 -0.1093
  155DOPC  H13R18626   3.684   1.956  13.936  1.1250  0.1432 -0.4121
  155DOPC  H13S18627   3.687   1.773  13.935 -0.1944 -0.6256  1.3212
  155DOPC  C21418628   3.857   1.855  14.019  0.4778  0.6273 -0.2337
  155DOPC  H14R18629   3.888   1.774  14.089 -0.8158  0.5644  0.2922
  155DOPC  H14S18630   3.876   1.951  14.071  0.2901  1.2325 -1.2520
  155DOPC  C21518631   3.935   1.841  13.889  0.3583  0.0260  0.0999
  155DOPC  H15R18632   3.917   1.937  13.834  0.7388  0.1866  0.2552
  155DOPC  H15S18633   3.906   1.758  13.821 -0.1457  1.3346 -1.3459
  155DOPC  C21618634   4.084   1.808  13.901  0.4695 -0.1462  0.2967
  155DOPC  H16R18635   4.123   1.800  13.798 -1.2417  0.5578 -0.4560
  155DOPC  H16S18636   4.090   1.715  13.962  0.5849  0.8538  1.8754
  155DOPC  C21718637   4.169   1.918  13.971  0.5821 -0.6516 -0.2694
  155DOPC  H17R18638   4.106   2.009  13.981 -0.0554 -0.5460 -3.9864
  155DOPC  H17S18639   4.255   1.959  13.914 -0.2184  0.3220 -0.8096
  155DOPC  C21818640   4.223   1.884  14.114 -0.0078 -0.0185  0.1812
  155DOPC  H18R18641   4.248   1.778  14.134  0.3931  0.1060  0.3519
  155DOPC  H18S18642   4.146   1.914  14.189 -0.2025 -1.6996  0.6852
  155DOPC  H18T18643   4.307   1.951  14.143 -0.8021  0.1069  2.4124
  155DOPC   C3318644   3.778   2.082  15.022 -0.2114 -0.6915 -0.4101
  155DOPC   H3X18645   3.863   2.154  15.019  0.1070 -1.0306  0.2016
  155DOPC   H3Y18646   3.680   2.126  15.053  0.0453 -1.3660  1.5180
  155DOPC   C3418647   3.765   2.015  14.886 -0.9236 -0.3522  0.7762
  155DOPC   H4X18648   3.864   1.989  14.844 -2.5741 -1.1475 -3.0092
  155DOPC   H4Y18649   3.724   2.077  14.803 -1.1929 -0.4687  0.8221
  155DOPC   C3518650   3.687   1.881  14.897  0.3877 -0.4378  0.6269
  155DOPC   H5X18651   3.596   1.903  14.957  0.8602  0.0795  1.1657
  155DOPC   H5Y18652   3.746   1.805  14.952  0.4765 -0.6032  0.3028
  155DOPC   C3618653   3.655   1.821  14.762 -0.0839  1.0031  0.1694
  155DOPC   H6X18654   3.612   1.895  14.691 -1.6529  0.2213  0.2661
  155DOPC   H6Y18655   3.756   1.796  14.723 -0.4218 -1.3788  0.6184
  155DOPC   C3718656   3.581   1.690  14.757 -0.1168 -0.4107  0.4213
  155DOPC   H7X18657   3.594   1.666  14.649 -0.1080  1.0311  0.0764
  155DOPC   H7Y18658   3.634   1.610  14.813  2.2735 -1.7813 -3.3980
  155DOPC   C3818659   3.430   1.707  14.779  0.4044  0.4320 -0.1914
  155DOPC   H8X18660   3.377   1.779  14.714  0.0971 -0.5849 -1.1032
  155DOPC   H8Y18661   3.408   1.734  14.884 -1.3723  0.0402 -0.4337
  155DOPC   C3918662   3.347   1.582  14.755  0.1874 -0.5961  0.3479
  155DOPC   H9X18663   3.407   1.491  14.741  2.1727  0.6319  0.5367
  155DOPC  C31018664   3.214   1.583  14.736  0.3414 -0.4280 -0.6952
  155DOPC  H10X18665   3.164   1.485  14.739 -0.0308 -0.2825  3.2595
  155DOPC  C31118666   3.124   1.703  14.735 -0.0183 -0.9077  0.3385
  155DOPC  H11X18667   3.176   1.801  14.743 -1.1524 -0.0313 -1.9014
  155DOPC  H11Y18668   3.057   1.699  14.824 -0.4059  1.5843  0.2177
  155DOPC  C31218669   3.031   1.699  14.612 -0.1874  0.8081 -0.2482
  155DOPC  H12X18670   2.950   1.771  14.637 -1.3025 -0.7526  0.8354
  155DOPC  H12Y18671   2.982   1.600  14.603 -0.4138  0.9856 -0.9966
  155DOPC  C31318672   3.095   1.742  14.480 -0.0124  0.5234  0.0633
  155DOPC  H13X18673   3.107   1.853  14.480 -3.4711  1.0099  1.7227
  155DOPC  H13Y18674   3.193   1.694  14.460  1.3123  2.7270  0.8504
  155DOPC  C31418675   3.010   1.704  14.360  0.4488  0.8322 -0.2228
  155DOPC  H14X18676   3.057   1.739  14.265 -0.3624  0.7760 -0.6537
  155DOPC  H14Y18677   2.995   1.596  14.376 -1.7011  1.1647  0.2743
  155DOPC  C31518678   2.868   1.771  14.365 -0.0820  0.3158  0.0432
  155DOPC  H15X18679   2.819   1.728  14.455  0.1140 -0.4360 -0.1950
  155DOPC  H15Y18680   2.808   1.734  14.278  0.7846  1.7615 -1.2082
  155DOPC  C31618681   2.863   1.921  14.352 -0.0058 -0.1084  0.2731
  155DOPC  H16X18682   2.908   1.967  14.443  2.4884  0.5379 -1.1858
  155DOPC  H16Y18683   2.906   1.958  14.257 -0.6213  0.3801  0.1770
  155DOPC  C31718684   2.716   1.966  14.344  0.2771  0.2215  0.8213
  155DOPC  H17X18685   2.683   1.933  14.243  0.6146  0.8292  0.5050
  155DOPC  H17Y18686   2.660   1.912  14.423 -0.9191 -0.1630 -0.2558
  155DOPC  C31818687   2.692   2.116  14.341 -0.6203  1.4684  0.6886
  155DOPC  H18X18688   2.583   2.140  14.335 -0.4196  2.3184  0.2044
  155DOPC  H18Y18689   2.748   2.159  14.427 -0.1284  0.3754  0.9288
  155DOPC  H18Z18690   2.729   2.167  14.249  0.1222  1.4835  0.9866
  156DOPC     N18691   5.170   4.881  16.184 -0.5967  0.2736  0.1144
  156DOPC   C1218692   5.211   5.024  16.225 -0.1030 -0.2443  0.3770
  156DOPC  H12A18693   5.260   5.024  16.321  0.0402  2.0713  0.3415
  156DOPC  H12B18694   5.119   5.081  16.228  0.4765  0.6658  1.5687
  156DOPC   C1318695   5.093   4.823  16.294  0.6624  0.0196 -0.6900
  156DOPC  H13A18696   5.086   4.716  16.286  1.9074 -0.1359  0.0889
  156DOPC  H13B18697   5.130   4.845  16.392  1.3409 -2.9901 -0.1833
  156DOPC  H13C18698   4.992   4.861  16.294  1.1956  1.5525  1.0512
  156DOPC   C1418699   5.293   4.797  16.178 -0.1309 -0.5376 -0.8729
  156DOPC  H14A18700   5.344   4.806  16.272  1.3992 -0.7002 -1.6530
  156DOPC  H14B18701   5.275   4.696  16.143 -1.6660 -0.5183 -0.2163
  156DOPC  H14C18702   5.352   4.852  16.106 -0.6267  3.4406  1.4677
  156DOPC   C1518703   5.089   4.874  16.061  0.2059  0.7432  0.1638
  156DOPC  H15A18704   5.160   4.903  15.985 -1.0473  0.2616 -1.2234
  156DOPC  H15B18705   5.002   4.938  16.062  0.8701  1.6955  1.9481
  156DOPC  H15C18706   5.065   4.772  16.036 -1.2109  1.1572 -0.2485
  156DOPC   C1118707   5.310   5.098  16.131 -0.6396 -0.2749  0.2357
  156DOPC  H11A18708   5.376   5.166  16.188  2.2179 -1.3033 -1.6103
  156DOPC  H11B18709   5.368   5.022  16.074  2.3104  1.3077  0.9458
  156DOPC     P18710   5.193   5.316  16.050 -0.3597 -0.0344 -0.4006
  156DOPC   O1318711   5.315   5.396  16.081 -0.5618  0.0198 -0.4478
  156DOPC   O1418712   5.082   5.311  16.156 -0.1669  0.2868 -0.6220
  156DOPC   O1218713   5.235   5.165  16.031 -0.1496 -0.6449  0.6226
  156DOPC   O1118714   5.128   5.359  15.922  0.2351 -0.5442 -0.1333
  156DOPC    C118715   5.138   5.298  15.791 -0.9210  0.0872  0.3184
  156DOPC    HA18716   5.045   5.315  15.733 -1.6318 -2.1716  0.7133
  156DOPC    HB18717   5.148   5.188  15.800 -0.2781  0.1530  0.4559
  156DOPC    C218718   5.259   5.360  15.716 -1.0741 -0.0308  0.5067
  156DOPC    HS18719   5.262   5.329  15.609 -0.2206 -0.0593  0.5353
  156DOPC   O2118720   5.381   5.316  15.778  0.7959  0.2123 -0.1555
  156DOPC   C2118721   5.425   5.201  15.742 -0.2553  0.2072  0.7394
  156DOPC   O2218722   5.377   5.130  15.651 -0.1524 -0.7983  0.4364
  156DOPC   C2218723   5.555   5.182  15.817 -0.3650 -0.2005 -0.1927
  156DOPC   H2R18724   5.531   5.140  15.917 -1.9639  1.5162  0.1763
  156DOPC   H2S18725   5.597   5.284  15.830 -0.8139  0.5551 -3.6385
  156DOPC    C318726   5.248   5.513  15.715 -0.7623 -1.0842 -0.3865
  156DOPC    HX18727   5.229   5.552  15.817  3.0211 -0.5311  0.2450
  156DOPC    HY18728   5.150   5.538  15.668 -1.5711 -0.9647  1.3182
  156DOPC   O3118729   5.358   5.569  15.641 -0.5609 -0.1013 -0.1257
  156DOPC   C3118730   5.365   5.697  15.633  0.2406 -0.4698  0.5083
  156DOPC   O3218731   5.283   5.779  15.664 -0.2946 -0.0072  0.3254
  156DOPC   C3218732   5.509   5.734  15.582 -0.2402  0.3172 -0.5833
  156DOPC   H2X18733   5.578   5.742  15.668  1.1943  0.9117 -1.7453
  156DOPC   H2Y18734   5.548   5.643  15.532 -0.2898 -0.9745  1.6090
  156DOPC   C2318735   5.659   5.087  15.751 -0.4415  0.3412 -0.4658
  156DOPC   H3R18736   5.674   5.089  15.641  0.8065 -2.3408 -0.4036
  156DOPC   H3S18737   5.643   4.979  15.771 -2.0987  0.8318  1.2619
  156DOPC   C2418738   5.800   5.102  15.806  0.0290 -0.1433 -0.2998
  156DOPC   H4R18739   5.813   5.052  15.904  1.9319  0.3795 -0.2408
  156DOPC   H4S18740   5.828   5.209  15.815  1.2419 -0.5767  1.8198
  156DOPC   C2518741   5.908   5.046  15.707 -0.0050 -0.2315  0.2030
  156DOPC   H5R18742   6.008   5.079  15.742 -0.1341 -0.8924  1.2230
  156DOPC   H5S18743   5.893   5.094  15.608 -0.0741  0.9767  0.7819
  156DOPC   C2618744   5.900   4.889  15.704  1.0473 -0.3135 -0.2044
  156DOPC   H6R18745   5.811   4.835  15.743  0.6102 -1.1112 -2.2067
  156DOPC   H6S18746   5.983   4.851  15.768  2.3978  1.5786 -0.7401
  156DOPC   C2718747   5.925   4.832  15.560  0.0881 -0.6348  0.4093
  156DOPC   H7R18748   6.024   4.860  15.518 -0.1856  0.8881  0.7300
  156DOPC   H7S18749   5.855   4.881  15.488  1.3752 -0.6260 -0.8806
  156DOPC   C2818750   5.893   4.683  15.553 -0.1064  0.3751  0.2724
  156DOPC   H8R18751   5.902   4.665  15.443  1.1971  1.4290  0.1785
  156DOPC   H8S18752   5.788   4.667  15.585 -0.2400  2.5380  1.0564
  156DOPC   C2918753   5.981   4.591  15.640  0.2712 -0.1822  0.3294
  156DOPC   H9R18754   5.929   4.553  15.730  0.2302 -0.7000  0.0899
  156DOPC  C21018755   6.099   4.540  15.600  0.2344  0.6386 -0.1320
  156DOPC  H10R18756   6.154   4.484  15.677 -1.4000  0.6799  1.1219
  156DOPC  C21118757   6.166   4.563  15.469 -0.3817 -0.2420 -0.1840
  156DOPC  H11R18758   6.274   4.543  15.485 -0.4793 -0.5454  0.0823
  156DOPC  H11S18759   6.161   4.674  15.456 -1.2675 -0.2079  0.3684
  156DOPC  C21218760   6.106   4.481  15.350  0.3423  0.1966 -0.5358
  156DOPC  H12R18761   6.004   4.520  15.327  0.2253 -0.1992 -0.6888
  156DOPC  H12S18762   6.091   4.378  15.388  0.9549  0.0072 -0.7833
  156DOPC  C21318763   6.197   4.481  15.230 -0.6110 -0.8012  0.3355
  156DOPC  H13R18764   6.144   4.452  15.137  0.8111  2.6459 -1.7842
  156DOPC  H13S18765   6.282   4.414  15.255 -0.0915 -0.2116  0.2025
  156DOPC  C21418766   6.248   4.623  15.198  0.7963 -0.8528 -0.3185
  156DOPC  H14R18767   6.296   4.676  15.283  0.0062 -1.2789  0.4135
  156DOPC  H14S18768   6.157   4.675  15.162  1.4324  0.2837 -0.3470
  156DOPC  C21518769   6.343   4.615  15.080  0.0729  0.0232  0.4068
  156DOPC  H15R18770   6.289   4.573  14.993  1.0916 -1.5876  0.5126
  156DOPC  H15S18771   6.416   4.536  15.106  1.2117  0.1461 -2.0927
  156DOPC  C21618772   6.408   4.744  15.047  0.3307  0.3821 -0.4686
  156DOPC  H16R18773   6.461   4.790  15.133 -3.7881  3.1068  0.9050
  156DOPC  H16S18774   6.331   4.820  15.026  1.0639  0.9295 -1.2310
  156DOPC  C21718775   6.505   4.746  14.922  0.0922  0.3410 -1.1714
  156DOPC  H17R18776   6.600   4.705  14.964 -1.1341 -1.4223  0.0361
  156DOPC  H17S18777   6.522   4.848  14.881 -0.2274  0.9418  0.1447
  156DOPC  C21818778   6.458   4.655  14.810  0.7478  0.0682 -0.1701
  156DOPC  H18R18779   6.347   4.663  14.800  0.4231  2.5521  3.5143
  156DOPC  H18S18780   6.472   4.546  14.831 -1.0794 -0.1125  0.3396
  156DOPC  H18T18781   6.511   4.683  14.717  0.9049  0.8980  0.1609
  156DOPC   C3318782   5.515   5.871  15.510 -0.2813 -0.5713 -0.5394
  156DOPC   H3X18783   5.491   5.962  15.569  1.2249  0.9581 -2.1586
  156DOPC   H3Y18784   5.460   5.856  15.415  0.7454  0.3693 -1.3122
  156DOPC   C3418785   5.669   5.892  15.470 -0.3483 -1.2016 -0.4006
  156DOPC   H4X18786   5.717   5.801  15.428  2.5136  0.0515 -0.0765
  156DOPC   H4Y18787   5.718   5.919  15.566 -2.0488  2.2822 -0.3589
  156DOPC   C3518788   5.681   6.013  15.379  0.1351  0.7067 -0.1966
  156DOPC   H5X18789   5.677   6.106  15.439  0.9642 -0.0697  1.0902
  156DOPC   H5Y18790   5.598   6.019  15.305  0.6407  2.0202 -0.7011
  156DOPC   C3618791   5.809   6.002  15.286 -0.4713  0.1375 -0.0885
  156DOPC   H6X18792   5.902   6.009  15.346  0.5391  0.5904 -1.6292
  156DOPC   H6Y18793   5.809   5.907  15.228  1.0404  0.0668 -0.0078
  156DOPC   C3718794   5.830   6.106  15.169  0.4766  0.0835  0.2816
  156DOPC   H7X18795   5.754   6.087  15.090  2.5404  1.3596 -2.1229
  156DOPC   H7Y18796   5.802   6.202  15.216 -1.7434 -0.3937  0.0933
  156DOPC   C3818797   5.976   6.104  15.123  0.9130 -0.4001 -0.1685
  156DOPC   H8X18798   6.034   6.126  15.216  0.1500 -0.1728  0.2585
  156DOPC   H8Y18799   5.998   6.188  15.052 -0.1776 -1.8429 -2.3209
  156DOPC   C3918800   6.027   5.981  15.058  0.5959 -0.4873  0.5481
  156DOPC   H9X18801   6.045   5.894  15.123  0.9374 -1.1564 -0.4221
  156DOPC  C31018802   6.042   5.960  14.924 -0.9975  0.5938 -0.6082
  156DOPC  H10X18803   6.079   5.862  14.889 -3.5118  0.0241 -1.9051
  156DOPC  C31118804   6.025   6.056  14.810  0.4530 -0.6501  0.5589
  156DOPC  H11X18805   6.066   6.020  14.713  0.2412 -1.2275  0.6797
  156DOPC  H11Y18806   6.089   6.146  14.821  0.3699 -0.5756  0.4458
  156DOPC  C31218807   5.882   6.115  14.787 -0.3909  0.3214 -0.1875
  156DOPC  H12X18808   5.848   6.170  14.877 -0.2845 -0.4393  0.3265
  156DOPC  H12Y18809   5.819   6.024  14.783  2.1438 -1.4961 -1.6170
  156DOPC  C31318810   5.868   6.204  14.660 -0.2622  0.3912 -0.1280
  156DOPC  H13X18811   5.908   6.147  14.574  1.1127 -2.3851  2.1802
  156DOPC  H13Y18812   5.767   6.237  14.627  0.1698  0.9679 -0.9124
  156DOPC  C31418813   5.956   6.330  14.673  0.0751  0.5654 -0.0793
  156DOPC  H14X18814   6.062   6.298  14.663 -0.3119 -0.8601  0.1108
  156DOPC  H14Y18815   5.945   6.401  14.588  0.0329  0.9897  0.2759
  156DOPC  C31518816   5.941   6.420  14.803  0.3227 -0.5470  0.5789
  156DOPC  H15X18817   6.005   6.510  14.791  1.9877 -1.8367 -0.8826
  156DOPC  H15Y18818   5.971   6.360  14.892  6.2722  0.8642 -0.0414
  156DOPC  C31618819   5.791   6.467  14.807  0.1255 -0.8750 -0.4565
  156DOPC  H16X18820   5.728   6.379  14.833 -1.8933  0.8414  0.8631
  156DOPC  H16Y18821   5.788   6.537  14.894 -0.0052 -0.6649 -0.6269
  156DOPC  C31718822   5.732   6.538  14.683 -0.1524 -0.2227 -1.0682
  156DOPC  H17X18823   5.794   6.628  14.660  1.0273 -0.6988  0.1212
  156DOPC  H17Y18824   5.742   6.461  14.603 -2.6210 -1.8467  0.0849
  156DOPC  C31818825   5.583   6.574  14.701  0.1962 -0.6341  0.3041
  156DOPC  H18X18826   5.547   6.641  14.621  0.3179 -0.1374  0.6606
  156DOPC  H18Y18827   5.519   6.484  14.717  0.9133 -1.1390  0.3660
  156DOPC  H18Z18828   5.580   6.631  14.796 -1.8662  1.0123 -0.6560
  157DOPC     N18829   8.111   1.736  16.042  0.3459  0.7795 -0.1946
  157DOPC   C1218830   8.004   1.632  16.066  0.4263 -0.6833  0.2263
  157DOPC  H12A18831   7.932   1.677  16.134  0.2506  2.1114 -1.6599
  157DOPC  H12B18832   8.053   1.555  16.123  1.4938  0.4027  0.8239
  157DOPC   C1318833   8.154   1.802  16.162  0.4009 -0.7346 -0.0709
  157DOPC  H13A18834   8.073   1.834  16.226 -0.2633  0.6127 -1.5095
  157DOPC  H13B18835   8.220   1.735  16.216 -0.6501 -1.3591  0.4544
  157DOPC  H13C18836   8.216   1.889  16.143  0.8151 -1.1248 -0.5246
  157DOPC   C1418837   8.069   1.830  15.941  0.0377  0.0573  0.0180
  157DOPC  H14A18838   8.069   1.788  15.841  3.6575 -0.9421  0.2896
  157DOPC  H14B18839   7.970   1.865  15.967 -0.6322 -2.5270  1.2333
  157DOPC  H14C18840   8.129   1.920  15.942 -0.8938  0.7490  3.0486
  157DOPC   C1518841   8.229   1.671  15.984 -0.3304  0.3500  0.0689
  157DOPC  H15A18842   8.280   1.594  16.041  0.1787 -1.6181 -2.8066
  157DOPC  H15B18843   8.299   1.750  15.962  0.2214  0.5556  2.2871
  157DOPC  H15C18844   8.200   1.637  15.886  0.0085 -2.0130  0.7223
  157DOPC   C1118845   7.945   1.564  15.939  0.8622  0.2807  0.7612
  157DOPC  H11A18846   7.869   1.493  15.977  1.3787  0.5750  2.4128
  157DOPC  H11B18847   7.886   1.641  15.884  1.5638 -0.6549 -1.4010
  157DOPC     P18848   7.997   1.482  15.694 -0.2906  0.1927 -0.0054
  157DOPC   O1318849   8.094   1.388  15.633 -0.2112 -0.2084 -0.1496
  157DOPC   O1418850   7.984   1.617  15.641  0.5473  0.0686 -0.2465
  157DOPC   O1218851   8.026   1.486  15.855 -0.0142 -0.0742  0.3224
  157DOPC   O1118852   7.860   1.412  15.683  0.6704 -0.5234 -0.2473
  157DOPC    C118853   7.751   1.477  15.617 -0.3239 -0.3713  0.0775
  157DOPC    HA18854   7.763   1.487  15.507 -0.3018  4.0484  0.2875
  157DOPC    HB18855   7.734   1.580  15.657  0.3475 -0.9078  1.8669
  157DOPC    C218856   7.610   1.403  15.641 -0.4444 -0.3697 -0.7282
  157DOPC    HS18857   7.612   1.385  15.750 -0.5964  0.5479 -0.5616
  157DOPC   O2118858   7.618   1.275  15.576 -0.0391 -0.1762 -0.0361
  157DOPC   C2118859   7.530   1.179  15.598 -0.2926 -0.0588  0.4743
  157DOPC   O2218860   7.447   1.175  15.685  0.7076 -0.0823 -0.3351
  157DOPC   C2218861   7.549   1.055  15.504  0.2907  0.3291 -0.7065
  157DOPC   H2R18862   7.500   0.970  15.556  0.1082  0.3677 -0.8147
  157DOPC   H2S18863   7.657   1.031  15.497  0.5919  0.5230  2.0934
  157DOPC    C318864   7.482   1.494  15.621 -0.7219  0.0234 -0.0392
  157DOPC    HX18865   7.490   1.572  15.699 -1.6699 -0.2163  0.3167
  157DOPC    HY18866   7.389   1.440  15.652  0.7681 -2.7658 -0.0650
  157DOPC   O3118867   7.478   1.543  15.484  0.4983 -0.6469 -0.1938
  157DOPC   C3118868   7.390   1.489  15.397  0.5994 -0.2837 -0.4125
  157DOPC   O3218869   7.308   1.403  15.429  0.2564  0.5538  0.0684
  157DOPC   C3218870   7.390   1.550  15.258  0.0399 -0.1296 -0.4089
  157DOPC   H2X18871   7.288   1.533  15.219 -0.8041  0.0412  1.6090
  157DOPC   H2Y18872   7.412   1.659  15.258 -0.3670 -0.0431 -1.1161
  157DOPC   C2318873   7.472   1.094  15.378  0.0785 -0.4727  0.2989
  157DOPC   H3R18874   7.482   1.203  15.356  0.1543  0.1212  3.0083
  157DOPC   H3S18875   7.364   1.083  15.399  0.3029 -1.6625  0.8710
  157DOPC   C2418876   7.506   0.995  15.271 -0.6809 -0.0942 -0.5730
  157DOPC   H4R18877   7.497   0.894  15.317 -0.2650  1.0907  2.3125
  157DOPC   H4S18878   7.613   0.999  15.243 -0.0436 -0.6778  1.6051
  157DOPC   C2518879   7.399   0.996  15.160 -0.8775  0.7871 -0.2648
  157DOPC   H5R18880   7.297   0.968  15.193 -0.3360 -0.0512  0.7725
  157DOPC   H5S18881   7.425   0.919  15.085 -1.3130 -0.7819  1.1313
  157DOPC   C2618882   7.388   1.136  15.091 -0.4969 -0.2184 -0.0986
  157DOPC   H6R18883   7.492   1.145  15.052 -1.2101  1.2518 -1.7675
  157DOPC   H6S18884   7.372   1.211  15.171  1.0641 -2.0003  2.0269
  157DOPC   C2718885   7.277   1.163  14.990  0.1748 -0.1419  0.8114
  157DOPC   H7R18886   7.274   1.082  14.914  1.8968  1.5486 -1.1628
  157DOPC   H7S18887   7.307   1.256  14.938  2.8171 -1.8606 -0.9590
  157DOPC   C2818888   7.133   1.185  15.046  0.6477 -0.3155  0.1693
  157DOPC   H8R18889   7.075   1.106  15.098 -1.5913  1.6797  0.8550
  157DOPC   H8S18890   7.072   1.199  14.954 -1.6433 -0.7131  1.5718
  157DOPC   C2918891   7.122   1.307  15.143  0.0824  1.1511 -0.0147
  157DOPC   H9R18892   7.125   1.281  15.250 -2.4942  1.8744  0.3033
  157DOPC  C21018893   7.086   1.434  15.118 -0.2683 -0.6651 -0.1824
  157DOPC  H10R18894   7.069   1.499  15.205  2.4699  1.4693 -1.0940
  157DOPC  C21118895   7.067   1.508  14.986 -0.6770  0.2983 -0.0501
  157DOPC  H11R18896   7.063   1.435  14.902 -1.9071  0.1899  0.0834
  157DOPC  H11S18897   7.150   1.579  14.967 -0.3188  0.4809  1.9304
  157DOPC  C21218898   6.931   1.577  14.988  0.1755  0.7303  0.7523
  157DOPC  H12R18899   6.925   1.661  15.061  2.7136  0.9708  0.7759
  157DOPC  H12S18900   6.854   1.498  14.996 -0.8799  1.7261  0.7503
  157DOPC  C21318901   6.913   1.639  14.851  0.3353 -0.5494 -0.0714
  157DOPC  H13R18902   6.969   1.576  14.778  0.5488 -0.2530 -0.1646
  157DOPC  H13S18903   6.958   1.740  14.855 -1.3562  0.2091  0.2524
  157DOPC  C21418904   6.768   1.663  14.824  0.7832 -0.0384  0.0779
  157DOPC  H14R18905   6.727   1.744  14.888  1.4049 -0.2896  0.8085
  157DOPC  H14S18906   6.698   1.578  14.838 -0.9398  1.2163 -0.5146
  157DOPC  C21518907   6.735   1.696  14.669  0.1846 -0.0296  0.4735
  157DOPC  H15R18908   6.790   1.783  14.626  0.9440 -0.5173  0.4420
  157DOPC  H15S18909   6.626   1.711  14.655 -0.1845 -2.7924 -0.0268
  157DOPC  C21618910   6.763   1.577  14.580 -0.3070 -0.0690  0.1384
  157DOPC  H16R18911   6.712   1.488  14.622  0.4795 -1.1605 -1.1288
  157DOPC  H16S18912   6.872   1.555  14.577 -0.2124  0.2762  0.7828
  157DOPC  C21718913   6.717   1.591  14.436  0.5522  0.2898 -1.0456
  157DOPC  H17R18914   6.736   1.694  14.401  0.9525  0.5209 -0.1717
  157DOPC  H17S18915   6.607   1.583  14.428  0.3810  0.6287  0.6116
  157DOPC  C21818916   6.775   1.488  14.349  0.3665  0.2200  0.0948
  157DOPC  H18R18917   6.883   1.504  14.329  0.8051 -2.1479  0.2389
  157DOPC  H18S18918   6.715   1.469  14.257 -1.4416  1.4745  0.9539
  157DOPC  H18T18919   6.768   1.395  14.409  0.3159  0.9640  1.2565
  157DOPC   C3318920   7.503   1.496  15.175  0.3711  0.0675  0.6075
  157DOPC   H3X18921   7.477   1.390  15.152 -0.0814  0.2794  0.0911
  157DOPC   H3Y18922   7.598   1.495  15.231  1.4112  0.2977 -1.0946
  157DOPC   C3418923   7.519   1.563  15.043  0.3183  0.1131  0.2057
  157DOPC   H4X18924   7.421   1.580  14.994  0.7813 -2.9079 -2.0485
  157DOPC   H4Y18925   7.573   1.487  14.982 -0.6350 -0.2758 -0.1735
  157DOPC   C3518926   7.601   1.693  15.032  0.0360  0.7950  0.5746
  157DOPC   H5X18927   7.677   1.680  15.113  1.0367  3.6152  0.2072
  157DOPC   H5Y18928   7.538   1.780  15.060 -1.2861  0.2556 -0.6086
  157DOPC   C3618929   7.660   1.731  14.887 -0.2547  0.2760 -0.1713
  157DOPC   H6X18930   7.729   1.649  14.857 -1.4713 -0.7848 -0.1377
  157DOPC   H6Y18931   7.566   1.724  14.829 -1.2836 -4.0546  1.5881
  157DOPC   C3718932   7.735   1.866  14.880  0.4118  0.3370  0.3889
  157DOPC   H7X18933   7.660   1.948  14.885 -1.4176 -1.2989  0.6302
  157DOPC   H7Y18934   7.803   1.871  14.969  0.1304  2.9928  0.5627
  157DOPC   C3818935   7.818   1.878  14.753 -0.0648 -0.2879  0.0163
  157DOPC   H8X18936   7.904   1.807  14.757  2.2014  2.3587  1.2167
  157DOPC   H8Y18937   7.863   1.979  14.752 -1.2663  0.3006  1.3960
  157DOPC   C3918938   7.736   1.857  14.628 -0.1607 -0.4794  0.2870
  157DOPC   H9X18939   7.701   1.754  14.610 -1.6560 -0.3678  2.1674
  157DOPC  C31018940   7.703   1.952  14.535  0.6649 -0.6480 -0.6556
  157DOPC  H10X18941   7.628   1.925  14.459 -0.1941 -0.0035 -0.0598
  157DOPC  C31118942   7.748   2.095  14.538 -0.0914 -0.0885  0.4240
  157DOPC  H11X18943   7.824   2.112  14.458 -1.6923 -0.4152 -1.2274
  157DOPC  H11Y18944   7.795   2.123  14.635 -0.1673 -1.6131  0.9266
  157DOPC  C31218945   7.626   2.201  14.529 -0.5112  0.5732  0.5731
  157DOPC  H12X18946   7.571   2.183  14.624 -0.0251  0.8173  0.9016
  157DOPC  H12Y18947   7.557   2.171  14.447 -0.3533 -2.4649  1.4338
  157DOPC  C31318948   7.680   2.344  14.519 -0.0097  0.2557 -0.2412
  157DOPC  H13X18949   7.733   2.361  14.615  1.3800  1.2389 -1.1529
  157DOPC  H13Y18950   7.741   2.351  14.427 -1.1938 -1.3152 -1.1852
  157DOPC  C31418951   7.573   2.452  14.516 -0.0814 -0.4477  0.3490
  157DOPC  H14X18952   7.603   2.550  14.475  1.6261 -0.9755  0.2863
  157DOPC  H14Y18953   7.488   2.426  14.449  1.1737 -1.3451 -0.9375
  157DOPC  C31518954   7.515   2.482  14.652 -0.3267  0.3049  0.2543
  157DOPC  H15X18955   7.584   2.513  14.733 -1.5415  1.1203  1.0200
  157DOPC  H15Y18956   7.467   2.385  14.678 -1.0182  0.1828 -1.3475
  157DOPC  C31618957   7.402   2.589  14.631  0.6553  0.2668 -0.1704
  157DOPC  H16X18958   7.441   2.673  14.570 -0.0229  1.2048  0.6378
  157DOPC  H16Y18959   7.321   2.538  14.576 -0.4969 -1.5130  2.9276
  157DOPC  C31718960   7.337   2.644  14.756  0.3629  0.9200  0.1637
  157DOPC  H17X18961   7.233   2.675  14.732  0.1126  0.5465  0.7400
  157DOPC  H17Y18962   7.321   2.560  14.827  1.2470  1.0587  0.5345
  157DOPC  C31818963   7.419   2.753  14.835  0.5303 -0.7616 -0.4307
  157DOPC  H18X18964   7.520   2.719  14.865  1.1053  0.2287 -1.1954
  157DOPC  H18Y18965   7.444   2.843  14.776  0.9973  0.8973  2.1495
  157DOPC  H18Z18966   7.363   2.785  14.926  0.1690 -1.5734 -0.3575
  158DOPC     N18967   5.212   7.906  15.781  0.2953  0.4116 -0.2361
  158DOPC   C1218968   5.333   7.828  15.770  0.0238 -0.5216  0.1301
  158DOPC  H12A18969   5.367   7.827  15.668 -0.3111  2.2810 -0.0993
  158DOPC  H12B18970   5.321   7.729  15.810  4.1710 -0.8625  1.0489
  158DOPC   C1318971   5.100   7.813  15.730  0.2721 -0.3449  0.1629
  158DOPC  H13A18972   5.011   7.874  15.726  1.5299  1.5940  0.0335
  158DOPC  H13B18973   5.127   7.778  15.632 -0.7255  0.0077 -0.2452
  158DOPC  H13C18974   5.079   7.737  15.803 -2.6249  0.2629  0.0817
  158DOPC   C1418975   5.211   8.026  15.690  0.2892 -0.5815  0.1764
  158DOPC  H14A18976   5.288   8.093  15.726  1.4542 -2.3669  1.1200
  158DOPC  H14B18977   5.248   8.005  15.591 -0.3218 -3.0688  0.4222
  158DOPC  H14C18978   5.117   8.080  15.690  0.0375 -0.8331 -2.9083
  158DOPC   C1518979   5.181   7.943  15.926  0.0462 -0.0418  0.3520
  158DOPC  H15A18980   5.188   7.849  15.980 -1.3529 -1.4580 -1.7905
  158DOPC  H15B18981   5.086   7.987  15.952 -0.6984 -0.8846 -0.8268
  158DOPC  H15C18982   5.262   8.008  15.956 -0.9237  1.7951 -0.8692
  158DOPC   C1118983   5.454   7.879  15.853  0.0129 -0.2882 -0.2702
  158DOPC  H11A18984   5.449   7.855  15.962  2.6949 -1.3432 -0.3013
  158DOPC  H11B18985   5.542   7.819  15.821 -0.8611 -1.7005 -0.0999
  158DOPC     P18986   5.566   8.074  15.715 -0.2581 -0.1641 -0.2639
  158DOPC   O1318987   5.672   8.159  15.772  0.7149 -0.1300  0.0812
  158DOPC   O1418988   5.472   8.138  15.619 -0.0779  0.1976 -0.8135
  158DOPC   O1218989   5.480   8.020  15.836  0.3668  0.4916 -0.7485
  158DOPC   O1118990   5.622   7.950  15.645 -0.2011  0.3181 -0.4001
  158DOPC    C118991   5.734   7.960  15.552  0.2407  0.2298 -0.0319
  158DOPC    HA18992   5.822   7.911  15.599 -0.2835 -1.6608 -0.9253
  158DOPC    HB18993   5.762   8.066  15.533  1.1247  0.1446  0.7137
  158DOPC    C218994   5.714   7.888  15.415  0.9905  0.5257 -0.1334
  158DOPC    HS18995   5.630   7.939  15.364 -0.0936  0.1115  1.1589
  158DOPC   O2118996   5.682   7.746  15.430  0.2069 -0.8017 -0.2953
  158DOPC   C2118997   5.546   7.728  15.440  1.0528 -0.1579  0.0714
  158DOPC   O2218998   5.460   7.813  15.436 -0.3543 -0.2757  0.2092
  158DOPC   C2218999   5.522   7.574  15.437  0.1459 -0.5349 -0.0021
  158DOPC   H2R19000   5.428   7.558  15.494 -1.0481  0.1903 -1.6836
  158DOPC   H2S19001   5.607   7.525  15.490  0.5050  0.7839  0.6898
  158DOPC    C319002   5.839   7.908  15.329  0.3803  0.1975 -0.5999
  158DOPC    HX19003   5.930   7.894  15.391 -0.0452 -0.9245 -0.2097
  158DOPC    HY19004   5.827   8.018  15.315  0.6128  0.9543  3.7618
  158DOPC   O3119005   5.845   7.836  15.207 -0.1912  0.2408 -0.0713
  158DOPC   C3119006   5.909   7.711  15.218 -0.1533 -0.9557 -0.1749
  158DOPC   O3219007   5.951   7.668  15.320 -0.6203  1.1064  0.1597
  158DOPC   C3219008   5.908   7.650  15.075 -0.1345 -0.1589  0.1818
  158DOPC   H2X19009   5.808   7.668  15.030 -0.1406  2.4093  1.0571
  158DOPC   H2Y19010   5.978   7.715  15.018  0.3611 -1.0091 -0.1931
  158DOPC   C2319011   5.522   7.512  15.298  0.2029 -0.2667 -0.2993
  158DOPC   H3R19012   5.543   7.404  15.312  3.0550  0.1791 -0.5423
  158DOPC   H3S19013   5.599   7.558  15.232 -1.2819  1.9087 -0.6176
  158DOPC   C2419014   5.381   7.531  15.242 -0.2887  0.6778 -0.4301
  158DOPC   H4R19015   5.387   7.518  15.132 -1.9568 -1.5901 -0.3419
  158DOPC   H4S19016   5.356   7.638  15.258  2.3429  1.4169 -0.8741
  158DOPC   C2519017   5.254   7.450  15.278 -0.7002 -0.6939  0.0236
  158DOPC   H5R19018   5.239   7.462  15.387  2.0780  1.5309  0.2772
  158DOPC   H5S19019   5.268   7.340  15.266 -0.1491 -0.7774  1.2880
  158DOPC   C2619020   5.130   7.485  15.196  0.1397  0.0453  0.3917
  158DOPC   H6R19021   5.051   7.417  15.234  0.3497 -0.6168 -0.3139
  158DOPC   H6S19022   5.155   7.454  15.092 -1.8446 -1.3272  0.2623
  158DOPC   C2719023   5.083   7.632  15.202 -0.1428  0.1471  0.0601
  158DOPC   H7R19024   4.998   7.653  15.134 -0.6817  1.9767  1.2119
  158DOPC   H7S19025   5.165   7.701  15.171 -0.2862  0.3661  0.1605
  158DOPC   C2819026   5.044   7.689  15.344  0.0944 -0.2630  0.5808
  158DOPC   H8R19027   5.022   7.798  15.345  1.0590 -0.0321  3.2765
  158DOPC   H8S19028   5.135   7.677  15.407 -0.5721 -1.6339  1.3333
  158DOPC   C2919029   4.926   7.612  15.397 -0.3299  0.8354  0.2813
  158DOPC   H9R19030   4.943   7.504  15.411 -0.7814  0.7218 -0.0034
  158DOPC  C21019031   4.808   7.664  15.444  0.0974  0.1525  0.2125
  158DOPC  H10R19032   4.734   7.597  15.490  1.7675 -0.5129  2.0612
  158DOPC  C21119033   4.777   7.812  15.463 -0.0499  0.2091  0.6068
  158DOPC  H11R19034   4.862   7.878  15.436 -1.2458  1.7722  0.5433
  158DOPC  H11S19035   4.764   7.837  15.570  1.1203  0.9141  0.6033
  158DOPC  C21219036   4.663   7.864  15.366 -0.5568  0.0054  0.5572
  158DOPC  H12R19037   4.561   7.840  15.402 -0.8168  0.3623  0.0734
  158DOPC  H12S19038   4.668   7.828  15.261  1.7020 -2.0294  1.2671
  158DOPC  C21319039   4.685   8.020  15.361  0.8831 -0.6263 -0.1138
  158DOPC  H13R19040   4.778   8.047  15.307  2.4725 -1.2109  2.1944
  158DOPC  H13S19041   4.703   8.050  15.466  0.2180 -0.6463  0.0118
  158DOPC  C21419042   4.553   8.092  15.318  0.7506  0.0547  0.8663
  158DOPC  H14R19043   4.571   8.202  15.322  0.6687  0.0551  1.2607
  158DOPC  H14S19044   4.463   8.080  15.382 -1.3765  0.2614 -1.8786
  158DOPC  C21519045   4.503   8.055  15.176  0.0799 -0.1821  0.1997
  158DOPC  H15R19046   4.409   8.112  15.158 -1.4623 -2.0490  1.8996
  158DOPC  H15S19047   4.472   7.949  15.172 -0.4139 -0.0330  0.0766
  158DOPC  C21619048   4.603   8.083  15.061  0.4425  0.1391 -0.1727
  158DOPC  H16R19049   4.691   8.014  15.068  0.9434  0.4023 -2.8018
  158DOPC  H16S19050   4.631   8.187  15.088  0.6019  0.1991 -0.5598
  158DOPC  C21719051   4.544   8.088  14.914 -0.5204 -0.6119 -0.4020
  158DOPC  H17R19052   4.519   7.986  14.878 -0.2472 -1.3563  1.3970
  158DOPC  H17S19053   4.628   8.124  14.850 -0.0792 -0.8653  0.0271
  158DOPC  C21819054   4.428   8.186  14.898 -0.2717  0.6803 -0.1731
  158DOPC  H18R19055   4.418   8.199  14.788  1.4803  0.4986 -0.3763
  158DOPC  H18S19056   4.440   8.291  14.933  0.7197  0.0733  1.3815
  158DOPC  H18T19057   4.327   8.155  14.933 -1.5722  3.8737 -0.6703
  158DOPC   C3319058   5.947   7.500  15.082 -0.2147  0.5870 -0.2150
  158DOPC   H3X19059   5.874   7.454  15.152  2.6882  0.4593  2.9385
  158DOPC   H3Y19060   6.049   7.498  15.125  0.0240  0.6210 -0.7648
  158DOPC   C3419061   5.959   7.433  14.948 -0.0967 -0.5466 -0.9256
  158DOPC   H4X19062   6.006   7.333  14.952  1.3322  0.1386  1.3322
  158DOPC   H4Y19063   6.032   7.498  14.894  0.4801  1.4422  1.9736
  158DOPC   C3519064   5.828   7.436  14.871  1.0914 -0.1576  0.1557
  158DOPC   H5X19065   5.800   7.540  14.843  2.7412  0.4325  0.6120
  158DOPC   H5Y19066   5.757   7.400  14.949  1.4785 -0.4611  0.3735
  158DOPC   C3619067   5.836   7.343  14.751  0.1779 -0.0314  0.2466
  158DOPC   H6X19068   5.919   7.379  14.687  1.6893  1.7173  2.9739
  158DOPC   H6Y19069   5.862   7.246  14.801 -3.2883  0.0400  2.5190
  158DOPC   C3719070   5.717   7.332  14.661 -0.2199  0.2032  0.2233
  158DOPC   H7X19071   5.629   7.311  14.725 -0.2299  0.8551  0.4376
  158DOPC   H7Y19072   5.703   7.430  14.610  0.8909  0.4857  0.4513
  158DOPC   C3819073   5.727   7.225  14.550 -0.3863  0.3500  0.2933
  158DOPC   H8X19074   5.821   7.253  14.498 -1.2975  2.7397 -0.2081
  158DOPC   H8Y19075   5.650   7.247  14.474 -0.8503  1.1984  0.9804
  158DOPC   C3919076   5.719   7.082  14.592  0.1991  0.2935 -0.1666
  158DOPC   H9X19077   5.802   7.060  14.660 -1.1247  0.0371  1.4237
  158DOPC  C31019078   5.626   6.991  14.562 -0.1056  0.1090 -0.1330
  158DOPC  H10X19079   5.633   6.887  14.598 -0.2391 -0.1266 -0.7744
  158DOPC  C31119080   5.506   7.019  14.466 -0.6788  0.0642 -0.6966
  158DOPC  H11X19081   5.474   6.919  14.427 -0.6452 -0.8495  1.4894
  158DOPC  H11Y19082   5.542   7.084  14.384  2.3680  2.3601  2.2034
  158DOPC  C31219083   5.380   7.072  14.537 -0.0385  0.3673  0.2844
  158DOPC  H12X19084   5.401   7.172  14.581  0.7465  0.9484 -1.3138
  158DOPC  H12Y19085   5.346   7.008  14.622  0.6113 -1.7282 -0.9453
  158DOPC  C31319086   5.256   7.058  14.447 -0.5742 -0.0624  0.2471
  158DOPC  H13X19087   5.271   7.124  14.359 -0.2347  1.6711  1.5401
  158DOPC  H13Y19088   5.236   6.957  14.408 -1.6554  1.0953 -2.4153
  158DOPC  C31419089   5.136   7.115  14.517  0.4776  0.2085 -0.5129
  158DOPC  H14X19090   5.113   7.063  14.612 -0.9061 -0.3392 -1.1203
  158DOPC  H14Y19091   5.156   7.221  14.543 -2.7096  0.9919 -0.8230
  158DOPC  C31519092   4.999   7.107  14.440 -0.4821 -0.3083 -0.5011
  158DOPC  H15X19093   5.023   7.166  14.349  3.1519  1.1013  1.1648
  158DOPC  H15Y19094   4.918   7.161  14.493 -0.7270 -1.0011 -0.1565
  158DOPC  C31619095   4.937   6.970  14.406 -0.8843 -0.5029  0.5164
  158DOPC  H16X19096   5.011   6.898  14.365 -1.3904 -0.4493 -0.5046
  158DOPC  H16Y19097   4.900   6.927  14.502 -2.0920  1.2193  0.8771
  158DOPC  C31719098   4.816   6.971  14.316  0.3673  0.2498 -0.2951
  158DOPC  H17X19099   4.738   7.041  14.352 -0.8265 -0.8293 -0.6766
  158DOPC  H17Y19100   4.851   6.999  14.214 -0.2559  0.2126 -0.5277
  158DOPC  C31819101   4.747   6.831  14.304 -0.2505 -0.3483  0.0230
  158DOPC  H18X19102   4.666   6.838  14.229 -1.1037  1.4803  1.0660
  158DOPC  H18Y19103   4.819   6.748  14.286  0.3000  0.1965 -0.3188
  158DOPC  H18Z19104   4.694   6.810  14.399 -0.3909 -0.0683  0.0074
  159DOPC     N19105   8.369   3.124  15.768 -0.0211  0.3478 -0.4060
  159DOPC   C1219106   8.346   2.971  15.776  0.3352  0.6666 -0.0014
  159DOPC  H12A19107   8.378   2.936  15.873 -0.6227  1.4721  0.6284
  159DOPC  H12B19108   8.401   2.908  15.708 -2.5370 -1.9688 -0.0890
  159DOPC   C1319109   8.510   3.159  15.775 -0.2305  0.6230 -0.1217
  159DOPC  H13A19110   8.562   3.116  15.690 -0.8318  1.4021 -0.9002
  159DOPC  H13B19111   8.527   3.265  15.772 -1.8834  0.8947 -1.0518
  159DOPC  H13C19112   8.550   3.117  15.866 -3.4054 -0.7374  0.7950
  159DOPC   C1419113   8.302   3.202  15.879 -0.3737  0.1083 -0.4797
  159DOPC  H14A19114   8.342   3.177  15.976 -0.9989 -0.2846 -0.3188
  159DOPC  H14B19115   8.316   3.308  15.864 -1.1226  0.2960  0.1259
  159DOPC  H14C19116   8.195   3.189  15.878 -0.5578 -0.2741  4.2744
  159DOPC   C1519117   8.307   3.170  15.646 -0.3633  0.2182 -0.0040
  159DOPC  H15A19118   8.211   3.119  15.640 -0.7992  0.9138  0.9038
  159DOPC  H15B19119   8.360   3.155  15.553  0.7868 -1.0420  0.8259
  159DOPC  H15C19120   8.287   3.275  15.658  0.1359  0.1478  1.5645
  159DOPC   C1119121   8.196   2.924  15.757 -0.4891  0.2067 -0.0165
  159DOPC  H11A19122   8.180   2.825  15.805 -1.6898  1.2769  1.9295
  159DOPC  H11B19123   8.135   2.987  15.826 -2.8081 -3.3647  1.5138
  159DOPC     P19124   8.158   2.788  15.539  0.0042 -0.4528  0.1040
  159DOPC   O1319125   8.095   2.682  15.619 -0.1940  0.4219 -0.1627
  159DOPC   O1419126   8.289   2.747  15.475  0.8416  0.3225  0.2515
  159DOPC   O1219127   8.172   2.928  15.621 -0.1197  0.0206 -0.0363
  159DOPC   O1119128   8.056   2.813  15.429  0.3465  0.1299 -0.0007
  159DOPC    C119129   8.024   2.934  15.359 -0.1436 -0.1689  0.4427
  159DOPC    HA19130   8.056   3.027  15.410  0.5286  0.5808 -1.2740
  159DOPC    HB19131   7.915   2.936  15.338  0.0229 -0.0738 -0.4377
  159DOPC    C219132   8.092   2.939  15.216 -0.1788 -1.0438  0.0817
  159DOPC    HS19133   8.056   3.030  15.162  1.5890 -1.0244 -1.1632
  159DOPC   O2119134   8.054   2.822  15.137  0.5131  0.3444  0.3731
  159DOPC   C2119135   7.928   2.831  15.080 -0.3634 -0.3452  0.2819
  159DOPC   O2219136   7.858   2.928  15.093  0.4096  0.3062 -0.0739
  159DOPC   C2219137   7.885   2.692  15.012  0.5614 -0.1925 -0.6220
  159DOPC   H2R19138   7.797   2.653  15.068  1.6507 -1.6495  0.1316
  159DOPC   H2S19139   7.972   2.626  15.026 -0.1221 -1.0361 -0.2654
  159DOPC    C319140   8.248   2.954  15.206  0.0515  0.2681 -0.5247
  159DOPC    HX19141   8.287   2.865  15.260 -2.2702 -0.7795 -0.4478
  159DOPC    HY19142   8.268   3.046  15.266 -2.7225  0.0412  0.8858
  159DOPC   O3119143   8.288   2.965  15.069  0.1652  0.1041  0.0304
  159DOPC   C3119144   8.334   2.848  15.012 -0.4285 -1.0668  0.0415
  159DOPC   O3219145   8.317   2.743  15.067 -0.1661  0.0398  0.2820
  159DOPC   C3219146   8.398   2.871  14.876  0.0310 -0.2298 -0.0065
  159DOPC   H2X19147   8.308   2.866  14.812 -0.4502  3.8131  0.0859
  159DOPC   H2Y19148   8.444   2.972  14.875  1.9658 -1.0098  1.9891
  159DOPC   C2319149   7.846   2.698  14.861 -0.0774 -0.4430  0.3206
  159DOPC   H3R19150   7.742   2.735  14.859 -0.7990 -1.7808  4.1022
  159DOPC   H3S19151   7.849   2.593  14.824  0.9645 -0.9415  1.7007
  159DOPC   C2419152   7.937   2.789  14.773  0.5888 -0.1905 -0.6133
  159DOPC   H4R19153   8.041   2.748  14.770  0.3799 -0.7358 -0.5293
  159DOPC   H4S19154   7.942   2.888  14.823  2.0021 -0.1210 -0.8529
  159DOPC   C2519155   7.888   2.798  14.628  0.3587  0.2755  0.0614
  159DOPC   H5R19156   7.889   2.695  14.587 -0.5451  0.1625  0.3123
  159DOPC   H5S19157   7.967   2.861  14.581 -0.4654  1.2930  0.0204
  159DOPC   C2619158   7.749   2.867  14.623  0.4174 -0.4507 -0.5396
  159DOPC   H6R19159   7.762   2.972  14.658 -0.9727  0.2356 -1.9152
  159DOPC   H6S19160   7.678   2.827  14.698  0.1247  1.1142  0.0588
  159DOPC   C2719161   7.683   2.873  14.488 -0.1455  0.1458 -0.1245
  159DOPC   H7R19162   7.599   2.946  14.493  0.7328  1.4436 -2.9236
  159DOPC   H7S19163   7.650   2.772  14.454  1.4343  0.0853 -1.6151
  159DOPC   C2819164   7.773   2.927  14.372 -0.0602 -0.2361  0.1095
  159DOPC   H8R19165   7.859   2.857  14.363 -0.4101 -1.2127  3.1173
  159DOPC   H8S19166   7.805   3.030  14.396 -2.2676  0.9295 -1.6312
  159DOPC   C2919167   7.691   2.934  14.247  0.4171  0.5028  0.1361
  159DOPC   H9R19168   7.589   2.894  14.254  0.5324 -0.1325 -1.3299
  159DOPC  C21019169   7.739   2.995  14.136 -0.0634 -0.0416 -0.3059
  159DOPC  H10R19170   7.668   3.001  14.052 -0.6438  1.3728  0.2534
  159DOPC  C21119171   7.883   3.050  14.115  0.4681  0.3765  0.0296
  159DOPC  H11R19172   7.950   2.984  14.175  0.6321  0.0039 -0.5574
  159DOPC  H11S19173   7.894   3.153  14.156 -1.5906  1.9332 -2.9811
  159DOPC  C21219174   7.912   3.056  13.964 -0.0549 -0.3593  0.2343
  159DOPC  H12R19175   7.871   3.148  13.918  1.3986 -1.0799 -2.7147
  159DOPC  H12S19176   7.881   2.963  13.912 -1.0695 -0.0326  0.2413
  159DOPC  C21319177   8.059   3.059  13.939  0.1100 -0.1022 -0.0327
  159DOPC  H13R19178   8.101   2.960  13.966  0.3379 -0.0397 -0.1619
  159DOPC  H13S19179   8.097   3.128  14.016 -1.1260 -0.5645  1.0352
  159DOPC  C21419180   8.102   3.084  13.795  0.2826  0.0981  0.4106
  159DOPC  H14R19181   8.060   3.003  13.730  0.0824 -1.7450  2.6947
  159DOPC  H14S19182   8.212   3.069  13.794  0.0361 -2.4313  2.3289
  159DOPC  C21519183   8.069   3.223  13.748 -0.7958  0.1179  0.0676
  159DOPC  H15R19184   8.102   3.297  13.824  1.8211 -0.2346 -0.6167
  159DOPC  H15S19185   7.959   3.221  13.733 -0.7765 -3.4111 -0.4402
  159DOPC  C21619186   8.138   3.269  13.618 -0.0204  0.4254 -0.5528
  159DOPC  H16R19187   8.114   3.198  13.536 -1.7460  0.1982  0.1040
  159DOPC  H16S19188   8.249   3.263  13.617 -0.0168  0.4705 -1.3057
  159DOPC  C21719189   8.104   3.413  13.598 -0.2155 -0.0825  0.2453
  159DOPC  H17R19190   8.120   3.481  13.684  0.0073 -1.0054  0.9530
  159DOPC  H17S19191   7.996   3.412  13.571  0.3191 -2.0898 -2.1382
  159DOPC  C21819192   8.188   3.473  13.478  0.2725  0.0122 -0.1695
  159DOPC  H18R19193   8.149   3.571  13.443 -1.5194 -0.7167 -0.3240
  159DOPC  H18S19194   8.191   3.398  13.396 -1.5551  0.0952 -0.3599
  159DOPC  H18T19195   8.289   3.491  13.521 -0.1544  0.7050  0.5635
  159DOPC   C3319196   8.505   2.765  14.833  0.2443 -0.5554  0.5728
  159DOPC   H3X19197   8.513   2.775  14.722  1.0263  2.1109  0.7861
  159DOPC   H3Y19198   8.460   2.669  14.866 -2.8841  1.3168  2.2246
  159DOPC   C3419199   8.642   2.797  14.898 -1.5647  0.9994 -0.5608
  159DOPC   H4X19200   8.623   2.844  14.997 -2.1983 -1.0282  0.3306
  159DOPC   H4Y19201   8.693   2.867  14.829 -1.2602  0.8522 -0.4843
  159DOPC   C3519202   8.724   2.666  14.911 -0.1805  0.0278 -0.7890
  159DOPC   H5X19203   8.725   2.609  14.816  0.9107 -1.2224 -0.0754
  159DOPC   H5Y19204   8.659   2.601  14.973  1.1725 -0.0367  0.6473
  159DOPC   C3619205   8.866   2.678  14.960 -0.1003 -0.1233  0.3442
  159DOPC   H6X19206   8.869   2.722  15.062  0.9549  1.1531 -0.2100
  159DOPC   H6Y19207   8.915   2.579  14.976  1.4742  0.7045  0.8714
  159DOPC   C3719208   8.957   2.769  14.874 -0.1751  0.0044  0.5882
  159DOPC   H7X19209   8.944   2.878  14.885 -1.4675  0.0451 -0.9167
  159DOPC   H7Y19210   9.062   2.752  14.907  0.4247  1.0263 -0.6888
  159DOPC   C3819211   8.946   2.742  14.719 -0.3875 -0.3731 -0.0245
  159DOPC   H8X19212   8.840   2.751  14.688 -0.4572 -0.3997  0.1991
  159DOPC   H8Y19213   8.963   2.634  14.701 -2.6358 -0.7587 -0.1044
  159DOPC   C3919214   9.038   2.828  14.638 -0.5357  0.2583 -0.2056
  159DOPC   H9X19215   8.984   2.919  14.606 -2.1345 -0.3502  0.6213
  159DOPC  C31019216   9.169   2.798  14.622  0.4444 -0.0628  0.6803
  159DOPC  H10X19217   9.228   2.863  14.555  1.9029 -2.1104 -0.1295
  159DOPC  C31119218   9.247   2.679  14.674 -0.2065  0.4212  0.1699
  159DOPC  H11X19219   9.174   2.610  14.724 -1.3170  2.1850  1.0811
  159DOPC  H11Y19220   9.315   2.706  14.758 -1.5562  1.5619  0.9347
  159DOPC  C31219221   9.328   2.597  14.568 -0.0393 -0.1643  0.0673
  159DOPC  H12X19222   9.275   2.588  14.470 -1.0704 -0.4301  0.6264
  159DOPC  H12Y19223   9.348   2.493  14.602 -2.2788 -0.6799  0.0111
  159DOPC  C31319224   9.457   2.672  14.525 -0.1639  1.0070  0.8195
  159DOPC  H13X19225   9.424   2.769  14.481 -0.4013 -0.1165 -1.6647
  159DOPC  H13Y19226   9.518   2.693  14.616 -1.9084  0.8466  2.0762
  159DOPC  C31419227   9.554   2.615  14.423  0.8659  0.8534 -0.4960
  159DOPC  H14X19228   9.602   2.525  14.466  0.4487  1.1385  0.5955
  159DOPC  H14Y19229   9.489   2.576  14.342 -1.9460  0.7211  1.6485
  159DOPC  C31519230   9.656   2.709  14.366 -0.0237  0.7140  0.4771
  159DOPC  H15X19231   9.713   2.764  14.444 -0.8991  1.0384  0.9020
  159DOPC  H15Y19232   9.601   2.780  14.301  0.3526 -1.0053 -1.8700
  159DOPC  C31619233   9.773   2.636  14.289 -0.0275 -0.3369 -0.4713
  159DOPC  H16X19234   9.830   2.579  14.364  0.0642  0.5356  0.1307
  159DOPC  H16Y19235   9.721   2.561  14.225  1.9427 -1.5723 -0.7003
  159DOPC  C31719236   9.862   2.725  14.202 -0.0592 -0.7678  0.1077
  159DOPC  H17X19237   9.902   2.805  14.268  1.4850 -0.5727 -1.0244
  159DOPC  H17Y19238   9.955   2.675  14.169  0.3889  0.8408 -1.1933
  159DOPC  C31819239   9.799   2.782  14.077 -0.4360 -0.3749  0.1816
  159DOPC  H18X19240   9.841   2.881  14.050 -1.3818  0.7693  2.5629
  159DOPC  H18Y19241   9.802   2.706  13.996 -0.7937 -1.2481  0.9609
  159DOPC  H18Z19242   9.693   2.808  14.097 -0.0453  0.8336  0.7802
  160DOPC     N19243   0.679   6.321  16.154  0.0696 -0.7367  0.1019
  160DOPC   C1219244   0.814   6.273  16.185  0.1102  0.0126 -0.4513
  160DOPC  H12A19245   0.824   6.261  16.292 -0.2240  1.6929 -0.2117
  160DOPC  H12B19246   0.881   6.349  16.147 -0.7071  0.1883 -1.5763
  160DOPC   C1319247   0.655   6.369  16.016 -0.3056 -0.1754  0.5052
  160DOPC  H13A19248   0.558   6.405  15.985 -1.0336  1.3000  3.9841
  160DOPC  H13B19249   0.729   6.447  16.002  0.1593 -0.7581 -0.3257
  160DOPC  H13C19250   0.687   6.288  15.953 -2.1151  0.0413 -0.7478
  160DOPC   C1419251   0.642   6.432  16.245  1.0461  0.8509 -0.1485
  160DOPC  H14A19252   0.611   6.393  16.341 -0.7450 -0.9954 -1.3838
  160DOPC  H14B19253   0.719   6.505  16.265  1.7132 -0.2483  1.5949
  160DOPC  H14C19254   0.560   6.491  16.207 -0.7552 -1.3212  0.1457
  160DOPC   C1519255   0.572   6.214  16.174 -0.0284  0.4425 -0.4280
  160DOPC  H15A19256   0.576   6.175  16.275  1.1509  0.1167 -0.5790
  160DOPC  H15B19257   0.588   6.131  16.107 -0.5366  0.9486 -1.1952
  160DOPC  H15C19258   0.481   6.262  16.142 -0.2041 -1.1671 -2.6137
  160DOPC   C1119259   0.865   6.131  16.124  0.7943 -0.4854 -0.4378
  160DOPC  H11A19260   0.973   6.119  16.145  1.3370  0.4675 -2.4863
  160DOPC  H11B19261   0.799   6.052  16.165 -0.7929  0.0089 -1.9482
  160DOPC     P19262   0.820   6.025  15.891 -0.1695 -0.3763 -0.1000
  160DOPC   O1319263   0.723   5.925  15.958 -0.3554  0.0538  0.1388
  160DOPC   O1419264   0.950   5.976  15.847  0.5754 -0.2701  0.1991
  160DOPC   O1219265   0.844   6.151  15.986 -0.2512  0.1390  0.1410
  160DOPC   O1119266   0.746   6.094  15.773 -0.3370 -0.0710  0.4599
  160DOPC    C119267   0.823   6.154  15.673 -0.2548 -0.6637  0.4172
  160DOPC    HA19268   0.864   6.086  15.595  1.4813  0.5418  0.2395
  160DOPC    HB19269   0.920   6.193  15.707  0.3604 -2.1053  0.4081
  160DOPC    C219270   0.736   6.272  15.612 -0.1875 -0.2752  0.6495
  160DOPC    HS19271   0.686   6.331  15.692 -0.4075  0.2962  0.1022
  160DOPC   O2119272   0.627   6.208  15.541 -0.3062 -0.4955  0.2072
  160DOPC   C2119273   0.524   6.294  15.510 -0.7304  0.9109 -0.0768
  160DOPC   O2219274   0.507   6.403  15.559  0.1754  0.1868 -0.2216
  160DOPC   C2219275   0.433   6.221  15.405  0.5055 -0.1953  0.0959
  160DOPC   H2R19276   0.340   6.191  15.457 -1.0963  0.5102 -2.2579
  160DOPC   H2S19277   0.481   6.130  15.362 -3.9415 -2.0887 -1.4645
  160DOPC    C319278   0.815   6.371  15.520  0.0471  0.7135  0.6449
  160DOPC    HX19279   0.747   6.442  15.467 -1.5304 -1.2933 -0.1532
  160DOPC    HY19280   0.875   6.306  15.453  0.3377  0.2265  1.3624
  160DOPC   O3119281   0.918   6.449  15.593  0.1347  0.3215  0.2370
  160DOPC   C3119282   0.873   6.563  15.641 -0.0497  0.6150 -0.4146
  160DOPC   O3219283   0.760   6.605  15.643 -0.2576  0.1817 -0.2780
  160DOPC   C3219284   1.002   6.640  15.700 -0.1093 -0.2452  0.1983
  160DOPC   H2X19285   0.962   6.709  15.778  1.3302 -0.4671  1.1798
  160DOPC   H2Y19286   1.075   6.564  15.735  0.3095  0.1301  0.1519
  160DOPC   C2319287   0.399   6.306  15.284 -0.9693  0.0221 -0.2107
  160DOPC   H3R19288   0.336   6.393  15.313  1.3441  1.9827 -0.7697
  160DOPC   H3S19289   0.336   6.242  15.218 -1.7607  0.5687 -0.0078
  160DOPC   C2419290   0.527   6.356  15.203 -0.8065 -0.1001  0.0843
  160DOPC   H4R19291   0.586   6.421  15.271  0.8654  1.1141 -2.3387
  160DOPC   H4S19292   0.494   6.412  15.112  0.1167  1.4349  0.6363
  160DOPC   C2519293   0.622   6.253  15.156 -0.7888  0.1475 -0.2933
  160DOPC   H5R19294   0.560   6.188  15.090 -0.3911 -2.1036  1.4077
  160DOPC   H5S19295   0.662   6.187  15.236 -3.7969  0.4369  1.6053
  160DOPC   C2619296   0.739   6.320  15.086 -0.1450 -0.1790  0.0684
  160DOPC   H6R19297   0.805   6.369  15.161  0.6593 -0.4277 -0.4640
  160DOPC   H6S19298   0.700   6.401  15.021 -2.9549 -0.1134  1.6672
  160DOPC   C2719299   0.843   6.228  15.014  0.4595 -0.3337  0.3362
  160DOPC   H7R19300   0.897   6.159  15.083 -0.4460 -1.0419  0.3617
  160DOPC   H7S19301   0.924   6.296  14.980  1.3126 -0.1759  2.5603
  160DOPC   C2819302   0.782   6.137  14.900  0.7346  1.0781  0.6040
  160DOPC   H8R19303   0.711   6.066  14.947  1.2818 -0.3873 -0.6894
  160DOPC   H8S19304   0.869   6.070  14.882  0.4965  0.5663  1.3005
  160DOPC   C2919305   0.734   6.217  14.786  0.2780 -0.1246 -0.7499
  160DOPC   H9R19306   0.627   6.244  14.789  0.5332  0.8494  2.0925
  160DOPC  C21019307   0.809   6.268  14.687 -0.3723  0.1278  0.4454
  160DOPC  H10R19308   0.762   6.321  14.602  3.3941 -0.3210 -2.1856
  160DOPC  C21119309   0.963   6.255  14.665 -0.3972  0.0911  0.6195
  160DOPC  H11R19310   1.022   6.219  14.753 -0.1944  0.0412  0.4638
  160DOPC  H11S19311   1.008   6.355  14.645 -1.0467  0.2277 -0.2202
  160DOPC  C21219312   0.993   6.164  14.549  0.0937 -0.0577  0.4085
  160DOPC  H12R19313   0.942   6.195  14.456  0.3410 -0.7970  0.0169
  160DOPC  H12S19314   0.959   6.062  14.578  0.7659  0.0809  1.7461
  160DOPC  C21319315   1.141   6.169  14.525  0.5068 -0.1134 -0.2066
  160DOPC  H13R19316   1.197   6.109  14.601  0.8389  0.6827  0.1827
  160DOPC  H13S19317   1.181   6.270  14.544  0.3949 -0.0455 -0.3367
  160DOPC  C21419318   1.192   6.109  14.397 -0.0119  0.8553 -0.2065
  160DOPC  H14R19319   1.159   6.177  14.316 -2.0039 -0.5723 -0.6716
  160DOPC  H14S19320   1.141   6.012  14.378  0.1629  0.2724  1.9845
  160DOPC  C21519321   1.342   6.081  14.395  1.6315  0.3091  0.8619
  160DOPC  H15R19322   1.387   6.175  14.437  1.4075  1.8994 -2.1924
  160DOPC  H15S19323   1.382   6.080  14.291 -0.4066  0.5487  0.0416
  160DOPC  C21619324   1.387   5.953  14.468  0.2766  0.2874 -0.1338
  160DOPC  H16R19325   1.337   5.867  14.416 -0.1381  1.2777 -1.4352
  160DOPC  H16S19326   1.352   5.951  14.573 -0.2971 -0.4163 -0.3275
  160DOPC  C21719327   1.543   5.937  14.465 -0.0958 -0.2634  0.2539
  160DOPC  H17R19328   1.574   5.848  14.523  1.2049 -0.2960 -0.4522
  160DOPC  H17S19329   1.582   6.026  14.521 -1.4027 -0.4868  1.5756
  160DOPC  C21819330   1.601   5.926  14.328  0.2794  0.5199  0.3078
  160DOPC  H18R19331   1.553   5.838  14.279 -0.0974  1.4090 -0.9516
  160DOPC  H18S19332   1.708   5.894  14.336 -0.1105 -0.5996  1.3832
  160DOPC  H18T19333   1.598   6.019  14.268  2.5557  1.9229  2.1932
  160DOPC   C3319334   1.079   6.735  15.599  0.3440 -0.5454 -0.1262
  160DOPC   H3X19335   1.002   6.787  15.540 -0.8845  0.8651  2.5459
  160DOPC   H3Y19336   1.138   6.670  15.531  0.4714  0.4667 -1.0027
  160DOPC   C3419337   1.158   6.837  15.671 -0.0954  0.3850 -0.6290
  160DOPC   H4X19338   1.248   6.784  15.709  0.7432  1.7080 -0.7095
  160DOPC   H4Y19339   1.107   6.877  15.761  0.4628  0.0781 -0.1720
  160DOPC   C3519340   1.209   6.948  15.589  0.1678  0.3606 -0.3489
  160DOPC   H5X19341   1.126   7.019  15.571 -0.3113 -0.4054 -1.2168
  160DOPC   H5Y19342   1.239   6.907  15.491 -0.3424 -1.7862  0.3354
  160DOPC   C3619343   1.331   7.026  15.657 -0.0727  0.7876  0.1480
  160DOPC   H6X19344   1.346   7.123  15.605  1.7595  0.0586 -0.7769
  160DOPC   H6Y19345   1.307   7.043  15.764 -1.3100 -0.1031  0.0366
  160DOPC   C3719346   1.466   6.951  15.645 -0.1910  0.8897  0.1486
  160DOPC   H7X19347   1.450   6.851  15.691  0.0684  1.3840  1.3623
  160DOPC   H7Y19348   1.491   6.946  15.537  0.3370  2.7089  0.1393
  160DOPC   C3819349   1.576   7.018  15.734  0.0574  0.8736 -0.0273
  160DOPC   H8X19350   1.550   7.017  15.842  1.6706 -0.4696  0.3859
  160DOPC   H8Y19351   1.582   7.124  15.698  1.2445  1.3214  1.4122
  160DOPC   C3919352   1.711   6.951  15.708  0.0595  0.2148  0.0178
  160DOPC   H9X19353   1.739   6.876  15.783  2.0507  0.0407 -0.8386
  160DOPC  C31019354   1.784   6.962  15.594 -0.5519  0.8779  0.3460
  160DOPC  H10X19355   1.886   6.922  15.600 -0.4835  1.2852  3.2275
  160DOPC  C31119356   1.767   7.052  15.473  0.6726 -0.3571  0.4956
  160DOPC  H11X19357   1.846   7.129  15.466  1.7536 -1.5036 -0.2401
  160DOPC  H11Y19358   1.669   7.105  15.479  1.8242  2.1479 -1.1645
  160DOPC  C31219359   1.779   6.965  15.345 -0.7764 -0.3530  0.2509
  160DOPC  H12X19360   1.736   7.029  15.265  0.8128 -1.4838 -1.5732
  160DOPC  H12Y19361   1.708   6.880  15.342  0.2317 -1.1756 -1.2701
  160DOPC  C31319362   1.923   6.914  15.325 -0.1281 -0.6768  0.2327
  160DOPC  H13X19363   2.003   6.991  15.332  0.3319 -1.1700  0.4904
  160DOPC  H13Y19364   1.949   6.837  15.401  2.4093 -0.0357  0.1130
  160DOPC  C31419365   1.951   6.851  15.189  0.3804 -0.0624 -0.0485
  160DOPC  H14X19366   1.912   6.920  15.111 -1.0423 -0.0764  0.6309
  160DOPC  H14Y19367   2.062   6.845  15.175  0.3005  0.8130 -1.2330
  160DOPC  C31519368   1.885   6.714  15.180 -0.1929  0.1132 -0.0156
  160DOPC  H15X19369   1.782   6.708  15.222  0.6031  0.3917  2.0491
  160DOPC  H15Y19370   1.938   6.646  15.249 -0.4473 -0.7664 -0.6638
  160DOPC  C31619371   1.890   6.643  15.040 -0.5093 -0.3553 -0.2107
  160DOPC  H16X19372   1.830   6.704  14.968 -0.7886  1.5949  1.6008
  160DOPC  H16Y19373   1.996   6.637  15.006 -0.3668  0.0199  0.1622
  160DOPC  C31719374   1.824   6.506  15.036  0.6584  0.4019  0.2589
  160DOPC  H17X19375   1.849   6.442  15.123 -0.8249 -1.3137 -0.5079
  160DOPC  H17Y19376   1.715   6.522  15.051  0.6571 -0.0339  0.7360
  160DOPC  C31819377   1.851   6.424  14.906  0.3782  0.2025  0.3974
  160DOPC  H18X19378   1.960   6.406  14.915  0.0833 -1.5622  0.7856
  160DOPC  H18Y19379   1.801   6.325  14.913 -1.0063  0.9221  1.3791
  160DOPC  H18Z19380   1.822   6.489  14.821  3.8210  0.7882 -0.4467
  161DOPC     N19381   4.899   0.035  16.163  0.5120  0.1489  0.4704
  161DOPC   C1219382   4.883   0.074  16.022 -0.0251  0.1143 -0.0963
  161DOPC  H12A19383   4.984   0.096  15.990 -0.1533  0.9259  0.0207
  161DOPC  H12B19384   4.823   0.164  16.013 -0.1155 -0.0552 -1.4718
  161DOPC   C1319385   4.769   0.001  16.233  0.3697 -1.2489 -1.1952
  161DOPC  H13A19386   4.780  -0.044  16.331 -0.2239  1.0824  0.0307
  161DOPC  H13B19387   4.705   0.087  16.244  2.2757 -0.0211  1.5262
  161DOPC  H13C19388   4.714  -0.067  16.171 -2.3437 -1.7464  1.4999
  161DOPC   C1419389   4.968   0.140  16.240  0.3334 -0.4553  0.6031
  161DOPC  H14A19390   4.925   0.239  16.252  0.1253 -0.3232 -1.0019
  161DOPC  H14B19391   4.987   0.121  16.345 -0.7883 -0.4184  0.8328
  161DOPC  H14C19392   5.067   0.160  16.204  0.6168  0.9337  2.0379
  161DOPC   C1519393   4.990  -0.088  16.183  0.2179 -0.3955 -0.4856
  161DOPC  H15A19394   4.935  -0.167  16.134 -3.8493  1.1995  1.0645
  161DOPC  H15B19395   4.999  -0.123  16.284 -1.0848  1.7701  0.4546
  161DOPC  H15C19396   5.081  -0.082  16.125  0.5161 -1.4479 -0.1416
  161DOPC   C1119397   4.820  -0.041  15.933 -0.5295  0.3500 -0.3432
  161DOPC  H11A19398   4.814   0.006  15.832  0.5600  0.7681 -0.2311
  161DOPC  H11B19399   4.891  -0.126  15.935 -1.4954 -0.4666  0.3503
  161DOPC     P19400   4.570   0.028  15.945 -0.0082  0.1143 -0.3230
  161DOPC   O1319401   4.612   0.163  15.993 -0.3191  0.0050 -0.6260
  161DOPC   O1419402   4.447  -0.030  16.013  0.4395  0.3469 -0.2460
  161DOPC   O1219403   4.691  -0.082  15.975  0.5612 -0.1484  0.1994
  161DOPC   O1119404   4.554   0.022  15.786 -0.1900 -0.2354 -0.6491
  161DOPC    C119405   4.569  -0.104  15.718  0.0004  0.0217  0.6809
  161DOPC    HA19406   4.491  -0.172  15.758 -0.5869 -0.1716 -0.7491
  161DOPC    HB19407   4.657  -0.167  15.741 -0.3678 -0.2702  1.3504
  161DOPC    C219408   4.549  -0.088  15.572 -0.1575 -0.2029 -0.5688
  161DOPC    HS19409   4.553  -0.189  15.526 -1.1883 -0.1193 -0.8782
  161DOPC   O2119410   4.635   0.020  15.522 -0.0543 -0.1136  0.0692
  161DOPC   C2119411   4.757  -0.019  15.493  0.1211  0.1927 -0.2301
  161DOPC   O2219412   4.798  -0.133  15.500 -0.0347  0.6710  0.3200
  161DOPC   C2219413   4.840   0.099  15.444 -0.2928  0.3955  0.0958
  161DOPC   H2R19414   4.941   0.057  15.424  0.3940  1.5982  0.8623
  161DOPC   H2S19415   4.851   0.181  15.519  2.5918  0.8873 -0.7349
  161DOPC    C319416   4.402  -0.051  15.539 -0.3558  0.3919  0.5762
  161DOPC    HX19417   4.386   0.052  15.576  1.5814  1.9556 -2.4961
  161DOPC    HY19418   4.335  -0.117  15.598 -0.2339  1.5163  2.0129
  161DOPC   O3119419   4.383  -0.069  15.397 -0.3454  0.0820  0.6678
  161DOPC   C3119420   4.288  -0.004  15.339  0.5809 -1.4941 -0.0059
  161DOPC   O3219421   4.200   0.058  15.406  0.4056 -0.6466  0.9579
  161DOPC   C3219422   4.296   0.007  15.185 -0.4413 -0.4998  0.2860
  161DOPC   H2X19423   4.392   0.045  15.146 -2.3269  2.7914 -1.6255
  161DOPC   H2Y19424   4.278  -0.094  15.144 -2.6793  0.4891 -1.3581
  161DOPC   C2319425   4.787   0.166  15.312 -0.3936  0.0265  0.0907
  161DOPC   H3R19426   4.840   0.260  15.285  0.1918 -0.7560 -1.6071
  161DOPC   H3S19427   4.687   0.206  15.337 -1.3959 -0.9164 -2.1964
  161DOPC   C2419428   4.773   0.071  15.188  0.1003  0.2139 -0.2847
  161DOPC   H4R19429   4.720  -0.019  15.225  1.1110  0.6537  2.5066
  161DOPC   H4S19430   4.880   0.052  15.162  0.7068  2.2193  0.5306
  161DOPC   C2519431   4.695   0.130  15.072 -0.6479 -0.4315  0.5848
  161DOPC   H5R19432   4.731   0.232  15.049 -2.2831  0.1617  0.5565
  161DOPC   H5S19433   4.590   0.146  15.106 -0.5355 -0.9375  1.1873
  161DOPC   C2619434   4.709   0.048  14.947  0.0613 -0.6119  0.3981
  161DOPC   H6R19435   4.665  -0.054  14.953 -1.7494 -0.1379 -2.5954
  161DOPC   H6S19436   4.818   0.044  14.926  0.0379  1.1789 -0.2946
  161DOPC   C2719437   4.637   0.121  14.830 -0.2439 -0.4554  0.9811
  161DOPC   H7R19438   4.663   0.229  14.827 -0.6106 -0.3509  1.4854
  161DOPC   H7S19439   4.527   0.119  14.839 -0.4628  2.1631 -0.1632
  161DOPC   C2819440   4.656   0.077  14.686  0.1628  0.2462  0.1502
  161DOPC   H8R19441   4.762   0.095  14.660 -0.2184  2.3022 -0.1138
  161DOPC   H8S19442   4.611   0.150  14.615  2.0872  0.8845 -0.4682
  161DOPC   C2919443   4.612  -0.063  14.664 -0.1887 -0.5202 -0.3299
  161DOPC   H9R19444   4.650  -0.127  14.745  0.3707 -1.2287 -1.1221
  161DOPC  C21019445   4.541  -0.113  14.565  0.1228 -0.3847 -0.6275
  161DOPC  H10R19446   4.538  -0.222  14.551  1.5235 -0.1305 -4.1238
  161DOPC  C21119447   4.460  -0.038  14.463  0.6037  0.1274 -0.2613
  161DOPC  H11R19448   4.497  -0.061  14.361 -0.7405 -2.6817 -0.2228
  161DOPC  H11S19449   4.442   0.066  14.498 -0.8799 -0.1312 -0.2014
  161DOPC  C21219450   4.309  -0.073  14.450 -0.4278 -0.5760 -0.7127
  161DOPC  H12R19451   4.256   0.016  14.410 -2.7727 -0.8141  1.5677
  161DOPC  H12S19452   4.272  -0.094  14.553 -2.0868 -2.8109 -1.6869
  161DOPC  C21319453   4.291  -0.195  14.352  0.3934 -0.0094 -0.8624
  161DOPC  H13R19454   4.361  -0.267  14.399  1.5452  0.9674 -1.0462
  161DOPC  H13S19455   4.330  -0.159  14.254  1.4146 -0.4656 -0.6328
  161DOPC  C21419456   4.146  -0.232  14.348  0.2177 -0.0951 -0.0755
  161DOPC  H14R19457   4.084  -0.146  14.314 -1.1014 -0.2574  1.7466
  161DOPC  H14S19458   4.112  -0.261  14.450 -1.6568  0.9679 -0.3502
  161DOPC  C21519459   4.117  -0.338  14.246 -0.2641  0.5154 -0.1438
  161DOPC  H15R19460   4.161  -0.314  14.147  1.5184 -1.1607  0.1891
  161DOPC  H15S19461   4.007  -0.334  14.233 -0.4648 -2.5277 -0.1355
  161DOPC  C21619462   4.159  -0.479  14.289 -0.5506  0.6631 -0.0617
  161DOPC  H16R19463   4.129  -0.499  14.394  4.0864  1.5181  1.6986
  161DOPC  H16S19464   4.270  -0.490  14.283 -0.7890 -1.9288 -0.9685
  161DOPC  C21719465   4.096  -0.586  14.189  0.0972  0.0675 -0.5591
  161DOPC  H17R19466   4.129  -0.685  14.226  0.2367 -0.9583 -3.2202
  161DOPC  H17S19467   4.149  -0.577  14.091  1.1881  0.1213  0.0114
  161DOPC  C21819468   3.951  -0.600  14.182  0.2138 -0.7971  0.9372
  161DOPC  H18R19469   3.919  -0.512  14.123  0.9256  0.3014  2.1402
  161DOPC  H18S19470   3.914  -0.580  14.285 -2.7520  1.6007 -0.4209
  161DOPC  H18T19471   3.918  -0.700  14.148  0.8493 -0.8291  0.4104
  161DOPC   C3319472   4.185   0.104  15.128 -0.3698  0.4565  0.2097
  161DOPC   H3X19473   4.211   0.211  15.147 -0.5463  0.5193  0.1000
  161DOPC   H3Y19474   4.085   0.080  15.170 -0.4963  0.3369 -0.1607
  161DOPC   C3419475   4.182   0.082  14.975  0.3481 -0.0379 -0.0108
  161DOPC   H4X19476   4.156  -0.024  14.952  0.0843 -0.0623  0.3896
  161DOPC   H4Y19477   4.283   0.107  14.938  0.3185 -0.8092 -0.6261
  161DOPC   C3519478   4.086   0.179  14.901  0.1952  0.2770  0.4559
  161DOPC   H5X19479   4.130   0.279  14.919 -0.6552  0.4283  1.9011
  161DOPC   H5Y19480   3.984   0.177  14.945  0.4220 -1.5475  0.9961
  161DOPC   C3619481   4.078   0.147  14.748 -0.1146 -0.2566 -0.6397
  161DOPC   H6X19482   4.180   0.152  14.703  0.4196  0.0896  0.5543
  161DOPC   H6Y19483   4.035   0.048  14.724  0.6676 -0.6328 -0.5053
  161DOPC   C3719484   3.981   0.247  14.683  0.5905  0.5226 -0.1321
  161DOPC   H7X19485   3.876   0.214  14.701  0.5301 -1.0757 -2.8653
  161DOPC   H7Y19486   3.992   0.350  14.723  2.0485  1.0730 -1.8143
  161DOPC   C3819487   4.001   0.243  14.532 -0.6514 -0.4191  0.3593
  161DOPC   H8X19488   3.958   0.145  14.502 -0.8014 -1.1499  2.6909
  161DOPC   H8Y19489   4.110   0.240  14.510 -0.9313 -0.3126 -1.1254
  161DOPC   C3919490   3.926   0.351  14.454 -0.7669  0.8755  0.0089
  161DOPC   H9X19491   3.865   0.422  14.511 -0.5207  0.7355  0.4527
  161DOPC  C31019492   3.924   0.365  14.323  0.4974  0.1923  0.6111
  161DOPC  H10X19493   3.885   0.460  14.284  1.4551  0.6785  0.8047
  161DOPC  C31119494   3.977   0.256  14.239  0.0813  0.7358 -0.0915
  161DOPC  H11X19495   3.896   0.244  14.164  0.3754 -0.8689 -0.2005
  161DOPC  H11Y19496   3.987   0.160  14.294 -2.2172  0.2008 -0.4956
  161DOPC  C31219497   4.115   0.286  14.176  0.0750 -0.3875 -0.0663
  161DOPC  H12X19498   4.185   0.320  14.256  0.5552 -1.5195  0.0084
  161DOPC  H12Y19499   4.108   0.368  14.102  0.3847 -2.2311 -2.2384
  161DOPC  C31319500   4.185   0.158  14.123  0.2783 -0.0293 -0.3592
  161DOPC  H13X19501   4.213   0.106  14.217 -5.2326 -0.1130  1.6232
  161DOPC  H13Y19502   4.111   0.105  14.059  2.2402  0.8220 -3.5359
  161DOPC  C31419503   4.314   0.180  14.040  1.6018 -0.6612 -0.3630
  161DOPC  H14X19504   4.316   0.117  13.948  0.1089  0.0482 -0.9106
  161DOPC  H14Y19505   4.303   0.285  14.006 -0.3609 -0.8381 -0.3619
  161DOPC  C31519506   4.450   0.174  14.128 -0.0644 -0.3222  0.2923
  161DOPC  H15X19507   4.533   0.139  14.064  0.1942 -2.5023  1.7235
  161DOPC  H15Y19508   4.442   0.113  14.221 -1.1366 -0.7231 -0.0436
  161DOPC  C31619509   4.488   0.310  14.196 -0.6831  0.1372  0.2067
  161DOPC  H16X19510   4.535   0.361  14.108 -1.6229  0.3593 -0.1726
  161DOPC  H16Y19511   4.399   0.358  14.241 -0.9836 -0.4445  0.2273
  161DOPC  C31719512   4.604   0.294  14.296 -0.3957  0.1331  0.6388
  161DOPC  H17X19513   4.640   0.395  14.325  0.1019  0.3747 -0.7615
  161DOPC  H17Y19514   4.566   0.236  14.383 -0.3287 -0.8026  0.0537
  161DOPC  C31819515   4.723   0.218  14.241  0.0556 -0.4911 -0.1662
  161DOPC  H18X19516   4.794   0.209  14.327 -0.9431  0.8263  0.8500
  161DOPC  H18Y19517   4.690   0.117  14.209 -1.8304 -0.3688  1.2121
  161DOPC  H18Z19518   4.774   0.276  14.162  0.7366  0.2301  0.7751
  162DOPC     N19519   0.519   7.473  16.341 -0.5512 -0.0407 -0.1846
  162DOPC   C1219520   0.645   7.455  16.259 -0.2127  0.0391  0.2807
  162DOPC  H12A19521   0.723   7.490  16.325  1.1251  1.7171 -2.0138
  162DOPC  H12B19522   0.645   7.516  16.170 -0.2473  0.8803  0.8449
  162DOPC   C1319523   0.540   7.405  16.467 -0.1541 -0.2289 -0.8987
  162DOPC  H13A19524   0.457   7.417  16.534  0.9209 -1.4859  0.7487
  162DOPC  H13B19525   0.556   7.301  16.441  0.2379 -0.1699 -0.9036
  162DOPC  H13C19526   0.631   7.436  16.516 -1.3559 -0.3432  1.5561
  162DOPC   C1419527   0.405   7.417  16.257 -0.6185 -0.3640  0.2926
  162DOPC  H14A19528   0.305   7.446  16.286 -0.2039  1.2058  0.2106
  162DOPC  H14B19529   0.430   7.423  16.152  0.8856  0.3256  0.6645
  162DOPC  H14C19530   0.415   7.309  16.265  0.3677 -0.2697  0.4574
  162DOPC   C1519531   0.501   7.621  16.358 -0.0582  0.0757 -0.2681
  162DOPC  H15A19532   0.590   7.668  16.396 -0.8519  1.8084 -0.4863
  162DOPC  H15B19533   0.422   7.643  16.428 -0.6425 -3.6018  0.4864
  162DOPC  H15C19534   0.469   7.663  16.264 -0.3233 -1.1388 -0.7449
  162DOPC   C1119535   0.690   7.309  16.234 -0.1976 -0.3937 -0.1198
  162DOPC  H11A19536   0.792   7.320  16.192 -0.3503  1.5044 -0.0564
  162DOPC  H11B19537   0.707   7.259  16.331  0.8967 -1.2556 -0.7357
  162DOPC     P19538   0.596   7.239  15.994  0.0010  0.1564  0.3858
  162DOPC   O1319539   0.504   7.353  15.956  0.1928 -0.2952 -0.3772
  162DOPC   O1419540   0.559   7.101  15.950 -0.5642 -0.2688 -0.4468
  162DOPC   O1219541   0.604   7.236  16.149  0.5315 -0.0564  0.3409
  162DOPC   O1119542   0.748   7.276  15.948 -0.0179  0.2124 -0.0271
  162DOPC    C119543   0.860   7.187  15.967  0.1512  0.6441  0.3188
  162DOPC    HA19544   0.826   7.089  16.006 -2.3435  0.7390 -1.4393
  162DOPC    HB19545   0.919   7.238  16.047 -0.0083  2.5508 -0.7319
  162DOPC    C219546   0.959   7.165  15.848 -0.3308 -0.0656 -0.2708
  162DOPC    HS19547   1.035   7.089  15.875 -0.2582  0.1708  0.2115
  162DOPC   O2119548   1.033   7.279  15.818  0.5553  0.1455 -0.0639
  162DOPC   C2119549   1.130   7.308  15.906 -0.1770 -0.3822 -0.2853
  162DOPC   O2219550   1.151   7.252  16.011  0.0875 -0.6832  0.0307
  162DOPC   C2219551   1.209   7.434  15.854  0.3432 -0.4082 -0.1974
  162DOPC   H2R19552   1.235   7.489  15.947 -1.7057 -0.8906  0.7165
  162DOPC   H2S19553   1.138   7.491  15.790  1.8718  0.6690 -1.0052
  162DOPC    C319554   0.877   7.115  15.730 -0.5288 -0.4487 -0.2689
  162DOPC    HX19555   0.844   7.014  15.762  0.9190 -0.8774 -0.0613
  162DOPC    HY19556   0.952   7.121  15.648  0.1510  0.6402  0.4092
  162DOPC   O3119557   0.770   7.207  15.704  0.2112  0.6892 -0.4925
  162DOPC   C3119558   0.667   7.143  15.641 -0.5427  0.3421 -0.2164
  162DOPC   O3219559   0.660   7.024  15.609  0.2925 -0.3752  0.0259
  162DOPC   C3219560   0.562   7.245  15.590  0.4116  0.2045  0.3126
  162DOPC   H2X19561   0.476   7.174  15.584 -0.5127  1.1117  2.1692
  162DOPC   H2Y19562   0.551   7.322  15.668  0.9340  1.2777 -0.6487
  162DOPC   C2319563   1.332   7.401  15.774  0.5114 -0.0060 -0.1440
  162DOPC   H3R19564   1.307   7.314  15.710 -1.3194  0.9298 -0.7778
  162DOPC   H3S19565   1.415   7.378  15.845  1.3196 -1.7303 -1.5390
  162DOPC   C2419566   1.370   7.512  15.677  0.6579 -0.4169 -0.1381
  162DOPC   H4R19567   1.419   7.593  15.735 -0.7068 -0.2141  0.7708
  162DOPC   H4S19568   1.289   7.552  15.613 -0.3806 -3.5870 -0.9840
  162DOPC   C2519569   1.480   7.471  15.582 -0.0759 -0.2200 -0.1045
  162DOPC   H5R19570   1.453   7.381  15.522 -0.2989  0.6323 -1.3219
  162DOPC   H5S19571   1.567   7.449  15.646  0.3386  2.9610  0.6083
  162DOPC   C2619572   1.512   7.587  15.482 -0.3694  0.4127  0.1405
  162DOPC   H6R19573   1.571   7.662  15.539  1.8085  0.3607 -1.8752
  162DOPC   H6S19574   1.422   7.634  15.437 -1.0240 -1.4888 -0.6413
  162DOPC   C2719575   1.611   7.546  15.368  0.1881  0.9267 -0.0185
  162DOPC   H7R19576   1.549   7.491  15.294  2.6726 -1.7907 -0.2449
  162DOPC   H7S19577   1.667   7.460  15.410 -1.0899 -0.8279 -1.7641
  162DOPC   C2819578   1.687   7.663  15.305  0.0094  0.1261 -0.3068
  162DOPC   H8R19579   1.731   7.725  15.386 -1.1780 -0.0614  0.4987
  162DOPC   H8S19580   1.611   7.729  15.259 -0.1808  0.1586  0.0502
  162DOPC   C2919581   1.775   7.629  15.191  0.0536  0.4477  0.7161
  162DOPC   H9R19582   1.721   7.624  15.095 -0.4759 -0.1349  1.0375
  162DOPC  C21019583   1.908   7.602  15.201 -0.5225 -0.0175 -0.0339
  162DOPC  H10R19584   1.963   7.571  15.111  3.5147 -0.0854  2.2009
  162DOPC  C21119585   2.009   7.610  15.315 -0.3184 -0.1133 -0.3665
  162DOPC  H11R19586   1.966   7.663  15.403  0.6245  0.9624 -0.5281
  162DOPC  H11S19587   2.094   7.677  15.291 -0.1413 -0.5138 -0.8664
  162DOPC  C21219588   2.064   7.467  15.362 -0.2954 -0.4612 -0.0121
  162DOPC  H12R19589   1.983   7.397  15.390 -0.6532 -0.6227 -1.3841
  162DOPC  H12S19590   2.120   7.475  15.457  0.1928 -0.9433 -0.2589
  162DOPC  C21319591   2.161   7.412  15.253  0.7816 -0.6998  0.9160
  162DOPC  H13R19592   2.251   7.477  15.256 -0.6110  1.4046 -0.3439
  162DOPC  H13S19593   2.097   7.405  15.162 -1.0203  1.4672  1.8958
  162DOPC  C21419594   2.216   7.267  15.278 -0.0516 -0.2739  0.3269
  162DOPC  H14R19595   2.139   7.194  15.312 -0.0359  0.0704  1.1410
  162DOPC  H14S19596   2.292   7.276  15.359 -0.6089  1.2049  0.7166
  162DOPC  C21519597   2.288   7.208  15.153  0.1865  0.5304 -0.0773
  162DOPC  H15R19598   2.368   7.281  15.125  0.4284  0.3448  0.1229
  162DOPC  H15S19599   2.210   7.214  15.073 -1.4569  0.2162  1.4504
  162DOPC  C21619600   2.332   7.064  15.170 -0.5988  0.3184 -0.1804
  162DOPC  H16R19601   2.245   7.005  15.205 -0.5106 -0.4039 -1.1504
  162DOPC  H16S19602   2.413   7.060  15.246  0.0905  1.4248 -0.8109
  162DOPC  C21719603   2.389   7.000  15.046  0.6012  0.2977  0.0969
  162DOPC  H17R19604   2.492   7.040  15.035  0.9070  0.7795  3.5284
  162DOPC  H17S19605   2.341   7.051  14.960 -0.1022 -2.3779 -1.2037
  162DOPC  C21819606   2.368   6.850  15.034 -0.0787 -0.4364 -0.2410
  162DOPC  H18R19607   2.417   6.806  14.945  1.2970 -1.0955  0.8041
  162DOPC  H18S19608   2.259   6.831  15.032 -0.2541  0.5431 -1.5550
  162DOPC  H18T19609   2.415   6.803  15.123 -0.3207 -0.6794 -0.2412
  162DOPC   C3319610   0.590   7.300  15.453  0.4042  0.4024  0.7278
  162DOPC   H3X19611   0.492   7.326  15.407  0.8438 -0.5115 -0.8099
  162DOPC   H3Y19612   0.639   7.222  15.390 -1.6012 -0.3349 -0.0014
  162DOPC   C3419613   0.668   7.433  15.445 -0.1575 -0.4349 -0.1452
  162DOPC   H4X19614   0.613   7.503  15.511 -2.4912 -3.6028  1.5698
  162DOPC   H4Y19615   0.673   7.461  15.338  0.2956  0.4133  0.0931
  162DOPC   C3519616   0.818   7.431  15.492  0.7504 -0.1967 -0.1629
  162DOPC   H5X19617   0.840   7.404  15.598 -0.4465  1.3850  0.5286
  162DOPC   H5Y19618   0.855   7.534  15.478  0.6123 -0.1778 -0.3821
  162DOPC   C3619619   0.898   7.334  15.403 -0.1202  0.0755 -0.2164
  162DOPC   H6X19620   0.857   7.231  15.396 -1.5182  0.4589  1.6517
  162DOPC   H6Y19621   0.868   7.357  15.298  0.4224 -1.2230 -0.6876
  162DOPC   C3719622   1.049   7.342  15.425 -0.0576  0.6154  0.5110
  162DOPC   H7X19623   1.072   7.451  15.426  3.1181  0.1487 -2.1336
  162DOPC   H7Y19624   1.084   7.301  15.522 -0.2534  2.5044  1.4225
  162DOPC   C3819625   1.124   7.273  15.309  0.4272  0.7316 -0.0504
  162DOPC   H8X19626   1.098   7.310  15.208  0.9534  0.8039 -0.1622
  162DOPC   H8Y19627   1.090   7.168  15.291  1.8210  0.5460 -1.8997
  162DOPC   C3919628   1.271   7.283  15.318  0.4584  0.1584  0.1628
  162DOPC   H9X19629   1.317   7.380  15.340  1.1334 -0.4319  1.4928
  162DOPC  C31019630   1.354   7.180  15.286 -1.0024 -0.5673 -0.6198
  162DOPC  H10X19631   1.463   7.188  15.292 -1.0642  0.1137 -0.2455
  162DOPC  C31119632   1.322   7.044  15.244 -0.2006 -0.5023  0.3049
  162DOPC  H11X19633   1.218   7.039  15.206  0.3638 -0.1223 -1.3830
  162DOPC  H11Y19634   1.353   6.971  15.321 -0.0201 -0.4168  0.3138
  162DOPC  C31219635   1.409   7.008  15.115  0.6280 -0.2860  0.1776
  162DOPC  H12X19636   1.513   7.004  15.154  0.4353 -0.8770  0.6561
  162DOPC  H12Y19637   1.386   7.082  15.036 -3.8860 -2.2117 -0.6737
  162DOPC  C31319638   1.362   6.876  15.057  0.2726  0.3898 -0.3047
  162DOPC  H13X19639   1.253   6.856  15.058  0.5227 -1.0855 -0.2424
  162DOPC  H13Y19640   1.395   6.866  14.951 -2.7608  1.7496 -1.4805
  162DOPC  C31419641   1.429   6.762  15.138  0.0627  0.0172  0.3607
  162DOPC  H14X19642   1.539   6.771  15.124 -0.1452  0.7643 -0.9110
  162DOPC  H14Y19643   1.413   6.781  15.246  1.0100  0.8075  0.3741
  162DOPC  C31519644   1.373   6.622  15.116 -0.6096  0.7676 -0.4691
  162DOPC  H15X19645   1.280   6.605  15.173  0.0652 -1.0567  0.1687
  162DOPC  H15Y19646   1.439   6.541  15.154 -0.4508  0.7010 -0.8739
  162DOPC  C31619647   1.359   6.590  14.967 -0.4043  0.2950 -0.4438
  162DOPC  H16X19648   1.283   6.653  14.918 -1.8187 -1.0962 -0.1071
  162DOPC  H16Y19649   1.452   6.610  14.909  0.6659 -0.3639  0.9643
  162DOPC  C31719650   1.318   6.444  14.934  0.7469  0.0358 -0.1026
  162DOPC  H17X19651   1.388   6.380  14.993  0.0607 -0.6354 -0.0089
  162DOPC  H17Y19652   1.214   6.430  14.969  0.4317  3.2800  0.5554
  162DOPC  C31819653   1.315   6.405  14.786 -0.9017 -0.4562 -0.5772
  162DOPC  H18X19654   1.252   6.481  14.735  1.7890  2.0115 -0.4935
  162DOPC  H18Y19655   1.422   6.416  14.757 -0.5855  0.6516  0.8633
  162DOPC  H18Z19656   1.276   6.307  14.752 -0.6939 -0.2952 -1.2840
  163DOPC     N19657   8.158   3.862  16.071  0.2354  0.0525  1.1371
  163DOPC   C1219658   8.278   3.816  15.989 -0.7144 -0.1114 -0.5608
  163DOPC  H12A19659   8.314   3.726  16.037  0.5030 -0.6719 -2.4433
  163DOPC  H12B19660   8.355   3.891  16.000 -1.5316  1.1995 -3.0578
  163DOPC   C1319661   8.104   3.988  16.002 -0.7313 -0.1644 -0.3481
  163DOPC  H13A19662   8.074   3.986  15.898  1.4264 -0.1021 -1.0150
  163DOPC  H13B19663   8.009   4.017  16.044 -1.1357 -0.7659 -0.8297
  163DOPC  H13C19664   8.172   4.068  16.028 -1.6316  0.3115  0.6137
  163DOPC   C1419665   8.201   3.881  16.207 -0.8868  0.3756 -0.8066
  163DOPC  H14A19666   8.279   3.955  16.209 -0.0717 -0.3752 -2.7340
  163DOPC  H14B19667   8.120   3.897  16.277 -1.7522 -0.8001 -1.4986
  163DOPC  H14C19668   8.261   3.801  16.247  1.7761  2.9403  0.7812
  163DOPC   C1519669   8.038   3.767  16.084  0.4826  0.5137  0.4022
  163DOPC  H15A19670   8.067   3.671  16.123  1.2351  1.4627  2.2574
  163DOPC  H15B19671   8.007   3.750  15.982  0.6292 -1.0370  0.5910
  163DOPC  H15C19672   7.959   3.813  16.141 -2.1593 -3.1113  0.0625
  163DOPC   C1119673   8.278   3.801  15.836 -0.2678  0.1801  1.0799
  163DOPC  H11A19674   8.265   3.900  15.787 -1.9234 -0.9097 -0.8605
  163DOPC  H11B19675   8.376   3.755  15.808 -1.2270 -2.9650  2.4743
  163DOPC     P19676   8.189   3.563  15.806 -0.0641 -0.1219  0.1374
  163DOPC   O1319677   8.068   3.491  15.850  0.0052  0.5085  0.6569
  163DOPC   O1419678   8.315   3.521  15.877  0.1131 -0.2017 -0.0512
  163DOPC   O1219679   8.170   3.723  15.797  0.0252 -0.3713  0.5683
  163DOPC   O1119680   8.210   3.533  15.658 -0.1314 -0.0502 -0.3048
  163DOPC    C119681   8.252   3.625  15.554 -0.6523  0.2393 -0.5667
  163DOPC    HA19682   8.327   3.698  15.593  1.1800 -1.6047 -0.4271
  163DOPC    HB19683   8.166   3.689  15.524  0.3305  1.4260 -0.9655
  163DOPC    C219684   8.300   3.553  15.431  0.2935 -0.2973  0.3368
  163DOPC    HS19685   8.278   3.617  15.343  0.8799  0.0489  0.4330
  163DOPC   O2119686   8.222   3.436  15.418  0.5206  0.0708  0.0308
  163DOPC   C2119687   8.100   3.461  15.380 -0.1991  0.3786  0.1867
  163DOPC   O2219688   8.054   3.570  15.338 -0.4174  0.0843  0.1372
  163DOPC   C2219689   8.018   3.329  15.376 -0.0201 -0.6686 -0.4264
  163DOPC   H2R19690   8.024   3.275  15.473  0.3813  0.0922 -0.0125
  163DOPC   H2S19691   8.068   3.267  15.299  1.5482 -1.7637  1.3810
  163DOPC    C319692   8.448   3.520  15.434  0.3347 -0.1216  0.1943
  163DOPC    HX19693   8.478   3.452  15.517  0.3458 -1.8650 -1.1904
  163DOPC    HY19694   8.506   3.615  15.438 -0.1020  0.1456  0.2247
  163DOPC   O3119695   8.483   3.453  15.315 -0.1465 -0.1958  0.6704
  163DOPC   C3119696   8.486   3.319  15.309 -0.2869  0.2094  0.0595
  163DOPC   O3219697   8.482   3.243  15.407 -0.4453 -0.2738  0.2688
  163DOPC   C3219698   8.510   3.270  15.164  0.4558  0.4894 -0.2750
  163DOPC   H2X19699   8.408   3.261  15.121 -0.0616 -0.4308  1.0950
  163DOPC   H2Y19700   8.558   3.355  15.111  0.9041  0.7745  0.5718
  163DOPC   C2319701   7.860   3.340  15.348 -0.3256  0.5223  0.5086
  163DOPC   H3R19702   7.823   3.414  15.422  1.4677  0.4777  1.5044
  163DOPC   H3S19703   7.808   3.242  15.355  0.5172 -0.2386 -2.5362
  163DOPC   C2419704   7.827   3.391  15.200  0.1473  0.1952 -0.0179
  163DOPC   H4R19705   7.906   3.464  15.172 -0.6064  1.8255  1.8038
  163DOPC   H4S19706   7.729   3.444  15.207  0.5950  0.9852  0.4683
  163DOPC   C2519707   7.811   3.285  15.092 -0.2935  0.2214  0.4740
  163DOPC   H5R19708   7.768   3.196  15.142  1.8549 -0.8018  0.6330
  163DOPC   H5S19709   7.913   3.246  15.069 -0.0372 -1.0655  3.3312
  163DOPC   C2619710   7.736   3.348  14.974  0.1566 -0.5582  1.1025
  163DOPC   H6R19711   7.784   3.441  14.937 -0.1814 -0.8654 -0.1336
  163DOPC   H6S19712   7.632   3.365  15.010 -0.4325 -0.1034 -0.7157
  163DOPC   C2719713   7.746   3.253  14.853 -0.1105  0.2953 -0.1007
  163DOPC   H7R19714   7.704   3.157  14.888  1.3755 -0.1373  0.5955
  163DOPC   H7S19715   7.851   3.232  14.824 -0.2958 -1.4431  0.3892
  163DOPC   C2819716   7.662   3.311  14.736 -0.1281 -0.0615 -1.3302
  163DOPC   H8R19717   7.564   3.337  14.781  1.2816  1.7833  0.9038
  163DOPC   H8S19718   7.642   3.223  14.672 -0.6907  1.4285 -3.2808
  163DOPC   C2919719   7.720   3.414  14.646  0.1481  0.1674 -0.2718
  163DOPC   H9R19720   7.752   3.508  14.693 -3.2051  0.6831  1.2925
  163DOPC  C21019721   7.708   3.420  14.511 -0.3071 -0.1071 -0.0139
  163DOPC  H10R19722   7.741   3.504  14.448  0.8792 -0.9610 -0.5845
  163DOPC  C21119723   7.643   3.329  14.415 -0.2726  0.0611  0.0135
  163DOPC  H11R19724   7.650   3.228  14.461 -1.2119 -0.0006  0.0465
  163DOPC  H11S19725   7.700   3.322  14.320  1.2291  2.1064  0.6884
  163DOPC  C21219726   7.491   3.367  14.390  0.0512 -0.1715 -0.1992
  163DOPC  H12R19727   7.491   3.467  14.342 -0.6172 -0.6100 -1.1588
  163DOPC  H12S19728   7.464   3.386  14.496  2.8028  0.6877  0.4375
  163DOPC  C21319729   7.403   3.270  14.309  0.1989 -0.3931  0.1840
  163DOPC  H13R19730   7.346   3.202  14.375 -1.6452  1.2159  0.3157
  163DOPC  H13S19731   7.468   3.206  14.244 -0.1188 -1.7805  1.1892
  163DOPC  C21419732   7.301   3.349  14.221 -0.2856 -0.3280  0.4316
  163DOPC  H14R19733   7.221   3.287  14.176 -0.3113  0.3003 -0.4055
  163DOPC  H14S19734   7.350   3.394  14.132  2.3081 -1.3746  1.2086
  163DOPC  C21519735   7.221   3.453  14.297 -0.2632 -0.0944  0.3155
  163DOPC  H15R19736   7.148   3.497  14.227  0.1525  0.9098  0.5028
  163DOPC  H15S19737   7.295   3.519  14.347  1.7590 -1.2505 -0.9845
  163DOPC  C21619738   7.134   3.391  14.407  0.0533 -0.2508  0.6841
  163DOPC  H16R19739   7.193   3.326  14.476  1.3223 -1.3332 -1.3139
  163DOPC  H16S19740   7.069   3.312  14.365 -0.0693 -0.0428  0.4826
  163DOPC  C21719741   7.044   3.492  14.473  0.5538 -0.4781  0.2708
  163DOPC  H17R19742   6.966   3.526  14.401  2.3211 -1.6249 -2.3548
  163DOPC  H17S19743   7.108   3.580  14.494  0.8083 -1.0865  2.1664
  163DOPC  C21819744   6.969   3.448  14.595 -0.5422  0.3038 -0.3938
  163DOPC  H18R19745   6.902   3.361  14.578 -0.6229  0.4668 -0.9328
  163DOPC  H18S19746   6.912   3.529  14.646 -0.7407 -0.2147  0.2191
  163DOPC  H18T19747   7.037   3.411  14.675  0.1071 -1.2642 -1.6189
  163DOPC   C3319748   8.587   3.132  15.159 -0.2183  0.1104  0.0589
  163DOPC   H3X19749   8.584   3.098  15.053  1.0648 -1.2019  0.4167
  163DOPC   H3Y19750   8.530   3.063  15.225 -0.8795  0.1231 -0.4946
  163DOPC   C3419751   8.736   3.134  15.188  0.3659 -0.4835 -0.3594
  163DOPC   H4X19752   8.749   3.154  15.296  0.0093  1.6420 -0.6821
  163DOPC   H4Y19753   8.786   3.219  15.138  1.3572 -1.1782 -0.5782
  163DOPC   C3519754   8.807   3.004  15.146 -0.7625  0.0442  0.1298
  163DOPC   H5X19755   8.809   3.009  15.035  0.5578 -0.2177  0.1176
  163DOPC   H5Y19756   8.749   2.915  15.179 -0.6564 -0.0141  0.1616
  163DOPC   C3619757   8.953   3.005  15.197  0.6880  0.5943  0.2049
  163DOPC   H6X19758   8.950   3.023  15.307  1.4012  0.7069  0.2115
  163DOPC   H6Y19759   8.996   2.904  15.179 -2.1840 -0.8343  0.7146
  163DOPC   C3719760   9.048   3.119  15.147 -0.1763  0.4756 -0.3445
  163DOPC   H7X19761   8.993   3.215  15.156 -4.1017 -1.6673  0.8112
  163DOPC   H7Y19762   9.132   3.112  15.219 -0.5518 -0.7109 -0.0035
  163DOPC   C3819763   9.088   3.097  15.000 -0.0394  0.4273 -0.3962
  163DOPC   H8X19764   8.997   3.113  14.938 -0.7652  1.8104  0.9768
  163DOPC   H8Y19765   9.109   2.988  14.984 -4.5817 -0.7206  0.0871
  163DOPC   C3919766   9.196   3.192  14.967 -0.0206  0.6010 -0.0749
  163DOPC   H9X19767   9.283   3.190  15.033  1.2230  2.0410 -1.6021
  163DOPC  C31019768   9.200   3.282  14.864  0.7808  0.1617 -0.0008
  163DOPC  H10X19769   9.285   3.352  14.868 -0.6053  1.9090  0.3725
  163DOPC  C31119770   9.108   3.300  14.747 -0.1747  0.2520  0.2449
  163DOPC  H11X19771   9.018   3.236  14.759 -0.2932  0.2895 -0.4016
  163DOPC  H11Y19772   9.159   3.273  14.652  2.7541  2.1423  1.1655
  163DOPC  C31219773   9.077   3.450  14.733 -0.7514  0.1907 -0.2387
  163DOPC  H12X19774   8.998   3.468  14.657 -0.4993 -2.4099 -1.2152
  163DOPC  H12Y19775   9.169   3.502  14.699 -0.3253  0.2156  0.9059
  163DOPC  C31319776   9.029   3.523  14.860 -0.4390  0.3238 -0.0375
  163DOPC  H13X19777   9.119   3.539  14.924  0.7286  1.0573 -1.7806
  163DOPC  H13Y19778   8.988   3.620  14.824  1.8583  0.9663 -1.1125
  163DOPC  C31419779   8.918   3.449  14.939 -0.0862 -0.2448  0.3287
  163DOPC  H14X19780   8.945   3.342  14.957  0.2019  0.0605  1.8253
  163DOPC  H14Y19781   8.897   3.496  15.037 -0.7347  0.9902 -0.3837
  163DOPC  C31519782   8.783   3.467  14.867  0.4905  0.2247  0.2913
  163DOPC  H15X19783   8.778   3.560  14.807  0.3571 -0.8661 -1.4841
  163DOPC  H15Y19784   8.708   3.471  14.950  0.6223  0.3882  0.4013
  163DOPC  C31619785   8.751   3.348  14.767 -0.2550  0.1622 -0.0619
  163DOPC  H16X19786   8.831   3.339  14.690 -1.1587  0.9916 -1.1091
  163DOPC  H16Y19787   8.751   3.250  14.820 -0.6888  0.3831  0.3541
  163DOPC  C31719788   8.616   3.370  14.706 -0.1077 -0.5867  0.4932
  163DOPC  H17X19789   8.586   3.287  14.639  2.6110 -1.5082  0.3055
  163DOPC  H17Y19790   8.538   3.365  14.786 -0.4726 -2.3990  0.0747
  163DOPC  C31819791   8.592   3.498  14.629  0.4079 -0.0281  0.0696
  163DOPC  H18X19792   8.485   3.515  14.605  0.4520  1.7013  0.9475
  163DOPC  H18Y19793   8.618   3.590  14.686  0.0263 -0.7760  1.4804
  163DOPC  H18Z19794   8.647   3.503  14.532  2.5167 -0.5604  1.1761
  164DOPC     N19795   1.953   2.458  15.706  0.3230  0.4528 -0.5047
  164DOPC   C1219796   2.104   2.438  15.682 -0.1037 -1.5567 -0.1179
  164DOPC  H12A19797   2.140   2.393  15.773 -1.0250  0.5619  1.4003
  164DOPC  H12B19798   2.150   2.536  15.682 -1.5352 -0.8427  0.0450
  164DOPC   C1319799   1.900   2.525  15.590  0.3437 -0.1034 -0.1619
  164DOPC  H13A19800   1.958   2.614  15.570 -0.9898  1.2980  1.8123
  164DOPC  H13B19801   1.886   2.463  15.503 -0.7750 -0.0496 -0.0345
  164DOPC  H13C19802   1.798   2.548  15.616  0.6981  1.6578 -0.1845
  164DOPC   C1419803   1.931   2.538  15.834  0.8467 -0.6118  0.2794
  164DOPC  H14A19804   1.824   2.541  15.847  0.4569 -0.0798 -2.5449
  164DOPC  H14B19805   1.982   2.498  15.921 -1.6519 -0.2818  2.0212
  164DOPC  H14C19806   1.968   2.638  15.816 -0.0914 -0.2752  0.1547
  164DOPC   C1519807   1.888   2.324  15.720 -0.7753 -0.3493  1.1312
  164DOPC  H15A19808   1.780   2.327  15.718 -0.8113 -1.4304  0.3869
  164DOPC  H15B19809   1.926   2.279  15.811  0.3677 -0.4888  0.6074
  164DOPC  H15C19810   1.919   2.258  15.639  1.0480 -1.0772  2.3518
  164DOPC   C1119811   2.147   2.367  15.553 -0.0654  0.3127 -0.1688
  164DOPC  H11A19812   2.108   2.420  15.463  1.1003  1.6367  0.0722
  164DOPC  H11B19813   2.258   2.372  15.552 -0.0654  0.2973 -0.3153
  164DOPC     P19814   2.038   2.147  15.445 -0.0124 -0.0644  0.3213
  164DOPC   O1319815   1.890   2.157  15.458 -0.1508  0.6937 -0.0889
  164DOPC   O1419816   2.091   2.008  15.449 -0.1127  0.1787  0.7446
  164DOPC   O1219817   2.109   2.229  15.564  0.4017  0.1085 -0.2067
  164DOPC   O1119818   2.090   2.234  15.321 -0.2681  0.1990  0.0683
  164DOPC    C119819   2.023   2.234  15.197  0.2212 -0.0305  0.0516
  164DOPC    HA19820   2.028   2.339  15.160 -1.3642  0.5824  1.4601
  164DOPC    HB19821   1.914   2.216  15.206  0.6472 -2.6244  0.6376
  164DOPC    C219822   2.076   2.124  15.104 -0.0603  0.9620 -0.3455
  164DOPC    HS19823   2.081   2.025  15.153  2.6831  0.6985 -0.9913
  164DOPC   O2119824   2.205   2.167  15.067 -0.3675  0.0396  0.1618
  164DOPC   C2119825   2.307   2.110  15.119 -0.4043  0.1496  0.5808
  164DOPC   O2219826   2.309   2.002  15.183  0.2323 -0.5535 -0.3348
  164DOPC   C2219827   2.434   2.186  15.077  0.1944  0.6310  0.6758
  164DOPC   H2R19828   2.413   2.276  15.016 -1.2833  0.1530  0.4459
  164DOPC   H2S19829   2.485   2.128  14.997 -1.3674  0.0490  0.0642
  164DOPC    C319830   1.981   2.112  14.981 -0.1549 -0.2025 -0.4432
  164DOPC    HX19831   1.971   2.210  14.930  0.0944 -0.1084 -0.3132
  164DOPC    HY19832   1.884   2.086  15.029 -0.4966 -1.1108 -1.5909
  164DOPC   O3119833   2.034   2.021  14.878  0.5475  0.1308  0.2338
  164DOPC   C3119834   2.025   1.888  14.903 -0.3977 -0.2131 -0.0812
  164DOPC   O3219835   1.958   1.845  14.992  0.3929  0.1575 -0.8460
  164DOPC   C3219836   2.095   1.815  14.788  0.3455  0.3515 -0.5151
  164DOPC   H2X19837   2.016   1.799  14.712  0.6618 -0.4406 -0.6936
  164DOPC   H2Y19838   2.175   1.878  14.743 -0.0001 -0.3636 -2.1901
  164DOPC   C2319839   2.543   2.219  15.191 -0.1677 -0.1450  0.6563
  164DOPC   H3R19840   2.632   2.265  15.143  0.6392 -0.3294  1.9515
  164DOPC   H3S19841   2.592   2.128  15.232  1.8211 -1.5286 -4.0668
  164DOPC   C2419842   2.494   2.306  15.308 -0.3756 -0.4788  0.5620
  164DOPC   H4R19843   2.584   2.326  15.369 -1.0597 -0.3110  1.5453
  164DOPC   H4S19844   2.425   2.241  15.366 -0.7706 -2.7861 -2.2483
  164DOPC   C2519845   2.426   2.443  15.271 -0.2678  0.1121  0.0577
  164DOPC   H5R19846   2.395   2.498  15.363 -0.4832  1.6294 -0.8796
  164DOPC   H5S19847   2.342   2.422  15.201  0.1488 -0.9842 -0.1199
  164DOPC   C2619848   2.520   2.542  15.196 -0.0993  0.6306 -0.3623
  164DOPC   H6R19849   2.549   2.480  15.108  0.6795  0.3410  0.0852
  164DOPC   H6S19850   2.620   2.561  15.242  1.4670 -0.8120 -2.8952
  164DOPC   C2719851   2.463   2.679  15.149 -0.8422  0.2549  0.7611
  164DOPC   H7R19852   2.423   2.738  15.234  1.1914  1.3818  1.0037
  164DOPC   H7S19853   2.374   2.660  15.085 -0.2330  1.8498 -0.6503
  164DOPC   C2819854   2.570   2.777  15.086  0.5355  1.0840 -0.4524
  164DOPC   H8R19855   2.652   2.771  15.161  4.0303 -0.6180 -4.0100
  164DOPC   H8S19856   2.521   2.876  15.082 -0.1914  0.7764  0.5504
  164DOPC   C2919857   2.614   2.742  14.945  0.2690 -0.1424  0.1399
  164DOPC   H9R19858   2.628   2.634  14.930  1.3528 -0.1126  0.8043
  164DOPC  C21019859   2.638   2.823  14.843 -0.8616  0.4101  0.1116
  164DOPC  H10R19860   2.664   2.772  14.749  0.3842 -0.3229  0.8311
  164DOPC  C21119861   2.643   2.979  14.838  0.2063 -0.5375  0.4503
  164DOPC  H11R19862   2.544   3.010  14.878 -0.2615 -0.4828 -0.7168
  164DOPC  H11S19863   2.660   3.013  14.733 -2.8554 -0.0825 -0.0170
  164DOPC  C21219864   2.757   3.043  14.922  0.6219  0.4426 -0.3925
  164DOPC  H12R19865   2.763   2.999  15.024 -4.0793 -0.1761 -0.1829
  164DOPC  H12S19866   2.735   3.151  14.933 -1.3011  0.2952 -2.2176
  164DOPC  C21319867   2.895   3.032  14.851 -0.3771  0.1493 -0.9441
  164DOPC  H13R19868   2.894   3.086  14.755 -0.6340  0.9426 -0.4996
  164DOPC  H13S19869   2.910   2.924  14.830  1.4863  0.7366 -2.9831
  164DOPC  C21419870   2.997   3.081  14.952 -0.1629  0.0238 -0.0044
  164DOPC  H14R19871   2.996   3.007  15.035 -1.9903 -0.3717 -0.3350
  164DOPC  H14S19872   2.971   3.179  14.997  1.5818  1.8787 -2.6970
  164DOPC  C21519873   3.138   3.105  14.897 -0.3156 -0.0533  0.3227
  164DOPC  H15R19874   3.133   3.174  14.810  4.0304  0.6201  0.3681
  164DOPC  H15S19875   3.199   3.018  14.866  1.5905  0.5162  2.1626
  164DOPC  C21619876   3.228   3.172  15.000 -0.0849 -0.0263 -0.2452
  164DOPC  H16R19877   3.244   3.089  15.072 -0.0579 -1.9484 -2.3859
  164DOPC  H16S19878   3.175   3.264  15.036  1.1145  0.2125  1.0059
  164DOPC  C21719879   3.355   3.221  14.942 -0.3640 -0.3400 -0.4737
  164DOPC  H17R19880   3.326   3.299  14.868 -0.0885  1.3218  1.1190
  164DOPC  H17S19881   3.394   3.142  14.875 -1.9365 -0.6183 -1.1062
  164DOPC  C21819882   3.462   3.278  15.036 -0.4253 -0.2131 -0.3216
  164DOPC  H18R19883   3.566   3.285  14.996 -0.6229  0.1999 -0.7764
  164DOPC  H18S19884   3.458   3.211  15.124 -0.5634 -0.7431 -0.7239
  164DOPC  H18T19885   3.441   3.384  15.061 -0.8905 -0.0556 -1.3399
  164DOPC   C3319886   2.151   1.673  14.826  0.1020 -0.4510 -0.2052
  164DOPC   H3X19887   2.206   1.678  14.922  0.5383 -0.5185 -0.4490
  164DOPC   H3Y19888   2.226   1.639  14.751  1.3446  0.9148  0.3834
  164DOPC   C3419889   2.042   1.568  14.850 -0.0503  0.3875  0.9634
  164DOPC   H4X19890   2.016   1.522  14.753  0.2864  2.1616 -0.0061
  164DOPC   H4Y19891   1.948   1.612  14.891 -2.5521 -2.0299 -1.7321
  164DOPC   C3519892   2.103   1.449  14.934 -0.6266 -0.0430  0.0364
  164DOPC   H5X19893   2.134   1.484  15.035 -0.9853  0.3873 -0.0039
  164DOPC   H5Y19894   2.195   1.409  14.887 -0.1982 -1.7074  2.1127
  164DOPC   C3619895   2.007   1.334  14.952  0.0959  0.1790  0.4414
  164DOPC   H6X19896   2.057   1.265  15.022  2.9314  1.4625 -0.1631
  164DOPC   H6Y19897   1.909   1.368  14.993  0.4082  1.0765  0.4736
  164DOPC   C3719898   1.994   1.250  14.821  0.1707  0.6462 -0.3300
  164DOPC   H7X19899   1.963   1.313  14.735  1.7184  0.8287 -0.7908
  164DOPC   H7Y19900   2.103   1.239  14.801  0.0056 -1.1673 -0.3369
  164DOPC   C3819901   1.907   1.129  14.843  0.3158 -0.0733 -0.0059
  164DOPC   H8X19902   1.809   1.136  14.790  0.9534  2.1450 -1.0540
  164DOPC   H8Y19903   1.866   1.124  14.946 -2.5001 -0.3937 -1.0469
  164DOPC   C3919904   1.986   1.007  14.816  0.2252  1.1865 -0.6251
  164DOPC   H9X19905   2.056   0.997  14.900  1.1032 -1.4321 -1.5691
  164DOPC  C31019906   1.953   0.900  14.743  0.5770  0.0971  0.3822
  164DOPC  H10X19907   2.014   0.809  14.729 -0.9985 -1.0086  0.3880
  164DOPC  C31119908   1.839   0.884  14.644  0.5668  0.2905  0.4521
  164DOPC  H11X19909   1.765   0.966  14.651 -0.3846 -0.6253  1.4841
  164DOPC  H11Y19910   1.781   0.792  14.669 -2.0404  2.2920  2.2485
  164DOPC  C31219911   1.869   0.878  14.492 -0.3306  0.1843 -0.5682
  164DOPC  H12X19912   1.769   0.862  14.447 -0.8911 -1.4177  1.1449
  164DOPC  H12Y19913   1.939   0.793  14.480 -0.7812 -0.7772  2.6254
  164DOPC  C31319914   1.940   1.006  14.436  1.0070 -0.3883  0.4135
  164DOPC  H13X19915   1.880   1.098  14.454  3.3016  1.2934 -0.1350
  164DOPC  H13Y19916   2.035   1.014  14.493  0.3056  1.2632  1.3957
  164DOPC  C31419917   1.959   1.006  14.280  0.1056 -0.9125 -0.4940
  164DOPC  H14X19918   1.871   0.970  14.223 -0.7432 -1.9868  1.3889
  164DOPC  H14Y19919   2.036   0.927  14.267  0.7224 -1.3720  4.0962
  164DOPC  C31519920   2.005   1.142  14.217  0.0181  0.2717  0.4045
  164DOPC  H15X19921   2.054   1.210  14.290  2.0069 -2.4697  1.8203
  164DOPC  H15Y19922   1.909   1.183  14.178 -0.6577 -0.9833  0.7139
  164DOPC  C31619923   2.095   1.122  14.101 -0.6023  0.3213  0.5496
  164DOPC  H16X19924   2.198   1.090  14.128 -0.8755 -0.6874  0.4118
  164DOPC  H16Y19925   2.050   1.041  14.041 -0.4017  0.4362  0.2411
  164DOPC  C31719926   2.106   1.237  13.998  0.5041  0.0660 -0.0918
  164DOPC  H17X19927   2.189   1.210  13.928 -0.9371  0.9389 -2.2441
  164DOPC  H17Y19928   2.009   1.240  13.943  0.6066  1.3678 -0.2374
  164DOPC  C31819929   2.130   1.376  14.063 -0.0194 -0.0471  0.0267
  164DOPC  H18X19930   2.044   1.395  14.131  2.1790 -0.1612  3.0538
  164DOPC  H18Y19931   2.220   1.395  14.126 -0.4819  0.4311  0.5554
  164DOPC  H18Z19932   2.127   1.453  13.983 -1.3690  0.0117  0.1055
  165DOPC     N19933   8.237   1.184  15.990 -0.3224 -0.8460  0.1798
  165DOPC   C1219934   8.254   1.181  15.843 -0.0270 -0.5138  0.8883
  165DOPC  H12A19935   8.357   1.207  15.821 -0.2558 -1.1671 -1.0785
  165DOPC  H12B19936   8.204   1.264  15.797  0.6919 -1.4235 -1.7091
  165DOPC   C1319937   8.232   1.326  16.034 -0.4898  0.3581  0.2822
  165DOPC  H13A19938   8.147   1.369  15.983 -1.0931 -1.5038 -0.3345
  165DOPC  H13B19939   8.228   1.336  16.142  1.9342 -3.0023  0.8381
  165DOPC  H13C19940   8.332   1.360  16.010  1.7159 -4.0019  2.1483
  165DOPC   C1419941   8.334   1.098  16.056 -0.0846  0.1551 -0.4109
  165DOPC  H14A19942   8.298   1.079  16.156 -1.0172 -3.8304 -1.3528
  165DOPC  H14B19943   8.348   1.007  16.001  1.7486  0.7749 -1.0643
  165DOPC  H14C19944   8.436   1.134  16.053  0.5298 -1.5521 -2.4843
  165DOPC   C1519945   8.099   1.129  16.016  0.9530  0.4082 -0.0705
  165DOPC  H15A19946   8.089   1.057  15.936  1.5964 -0.0847  0.2934
  165DOPC  H15B19947   8.022   1.203  15.995  1.0112  0.3293 -0.5798
  165DOPC  H15C19948   8.104   1.082  16.113  4.8881 -0.3804 -0.4757
  165DOPC   C1119949   8.231   1.049  15.764  0.1915 -0.0909  0.1782
  165DOPC  H11A19950   8.120   1.042  15.759  0.1564 -0.3394  1.1194
  165DOPC  H11B19951   8.271   1.067  15.662 -0.4558  0.0756 -0.0509
  165DOPC     P19952   8.406   0.852  15.766 -0.1077 -0.1394 -0.1672
  165DOPC   O1319953   8.421   0.726  15.849 -0.2336 -0.1430 -0.0966
  165DOPC   O1419954   8.515   0.947  15.759 -0.2211  0.4817 -0.2222
  165DOPC   O1219955   8.279   0.930  15.823 -0.7406  0.3786 -0.8401
  165DOPC   O1119956   8.358   0.810  15.619  0.6462  0.6753 -0.5968
  165DOPC    C119957   8.233   0.745  15.607  1.2400 -0.1484  0.8232
  165DOPC    HA19958   8.154   0.791  15.669  1.1231 -0.0098  0.5744
  165DOPC    HB19959   8.238   0.639  15.639 -3.1475 -0.8349 -0.0797
  165DOPC    C219960   8.195   0.738  15.458 -0.4304 -0.2941  0.0403
  165DOPC    HS19961   8.232   0.837  15.426 -1.0112  0.8706  2.6668
  165DOPC   O2119962   8.050   0.736  15.449 -0.1557 -0.2078  0.7620
  165DOPC   C2119963   8.005   0.833  15.362  0.2042 -0.3373 -0.9166
  165DOPC   O2219964   8.081   0.885  15.285  0.1760 -0.6164 -0.0484
  165DOPC   C2219965   7.855   0.851  15.356  0.1432 -0.1910 -0.5108
  165DOPC   H2R19966   7.816   0.939  15.300 -2.8463 -1.3243 -0.4200
  165DOPC   H2S19967   7.823   0.866  15.461 -0.2748  0.7051 -0.7531
  165DOPC    C319968   8.260   0.622  15.390  0.0875  0.6524  0.5394
  165DOPC    HX19969   8.230   0.528  15.441 -1.1742  1.7318  1.8956
  165DOPC    HY19970   8.370   0.627  15.400  0.5162 -3.1189 -0.8796
  165DOPC   O3119971   8.219   0.594  15.256  0.4615 -0.2498  0.0477
  165DOPC   C3119972   8.278   0.676  15.163 -0.2885 -0.4307 -0.6070
  165DOPC   O3219973   8.366   0.752  15.191 -0.1067 -0.2658  0.3781
  165DOPC   C3219974   8.219   0.651  15.030 -0.3040 -0.4739 -0.3223
  165DOPC   H2X19975   8.229   0.541  15.016 -2.4432 -1.0192  1.8362
  165DOPC   H2Y19976   8.111   0.674  15.026  0.1423  1.5896 -2.1595
  165DOPC   C2319977   7.783   0.734  15.293  0.0316  0.5175  0.3857
  165DOPC   H3R19978   7.674   0.751  15.306  0.2020  0.9485  1.3880
  165DOPC   H3S19979   7.820   0.647  15.353 -0.3541  0.2393  0.2220
  165DOPC   C2419980   7.808   0.712  15.143 -0.9367  0.2636  0.3648
  165DOPC   H4R19981   7.737   0.630  15.118  0.1705 -1.2365  1.9258
  165DOPC   H4S19982   7.915   0.684  15.142 -0.4474  1.8143  2.2972
  165DOPC   C2519983   7.791   0.832  15.052 -0.4400 -0.7091  0.1819
  165DOPC   H5R19984   7.865   0.909  15.082 -0.3616 -0.4006 -0.7628
  165DOPC   H5S19985   7.682   0.852  15.059 -1.0061 -2.9473 -0.9596
  165DOPC   C2619986   7.821   0.813  14.904  0.0852 -0.3973  0.2168
  165DOPC   H6R19987   7.734   0.761  14.859 -0.1691  1.1181 -1.1170
  165DOPC   H6S19988   7.914   0.753  14.892  1.0038  0.8988  0.5813
  165DOPC   C2719989   7.841   0.948  14.841 -0.0813  0.0508 -0.4859
  165DOPC   H7R19990   7.939   0.986  14.875  0.9209 -2.5375 -0.2574
  165DOPC   H7S19991   7.765   1.021  14.875 -0.9372 -0.9616 -0.1544
  165DOPC   C2819992   7.844   0.946  14.686  0.3745  0.0972 -0.1342
  165DOPC   H8R19993   7.935   0.887  14.662 -0.1455 -1.3128  1.1595
  165DOPC   H8S19994   7.856   1.051  14.652  2.2313  1.1521  3.2690
  165DOPC   C2919995   7.726   0.866  14.626 -0.4366  0.0970  0.1670
  165DOPC   H9R19996   7.746   0.758  14.624 -1.1065 -0.0173 -0.8212
  165DOPC  C21019997   7.619   0.918  14.560 -0.6034 -0.1814  0.0988
  165DOPC  H10R19998   7.550   0.846  14.514 -0.0636 -0.6500  0.0032
  165DOPC  C21119999   7.596   1.054  14.517 -0.1241 -0.0794 -0.4725
  165DOPC  H11R20000   7.644   1.131  14.582 -0.6780 -1.3336  1.4907
  165DOPC  H11S20001   7.487   1.070  14.534 -0.0766  1.4813 -1.4205
  165DOPC  C21220002   7.645   1.099  14.378 -0.4115  0.5149  0.1839
  165DOPC  H12R20003   7.750   1.062  14.375  0.3994  2.7084 -0.5787
  165DOPC  H12S20004   7.645   1.207  14.350  1.6385  0.3699 -0.5682
  165DOPC  C21320005   7.558   1.039  14.270 -0.4770 -0.4334  0.3267
  165DOPC  H13R20006   7.452   1.070  14.282 -0.4405 -0.4574  0.7142
  165DOPC  H13S20007   7.551   0.928  14.270  1.6069 -0.6207 -0.9075
  165DOPC  C21420008   7.584   1.090  14.130 -0.4017 -0.4629 -0.2159
  165DOPC  H14R20009   7.604   1.199  14.136  0.1761 -0.5757 -0.0213
  165DOPC  H14S20010   7.495   1.077  14.065  0.2878  0.5837 -1.4085
  165DOPC  C21520011   7.703   1.027  14.060 -0.3926 -1.0034  0.3596
  165DOPC  H15R20012   7.687   0.920  14.035 -1.9146 -0.0020 -3.7639
  165DOPC  H15S20013   7.789   1.034  14.130 -0.9712 -0.5149  1.0437
  165DOPC  C21620014   7.735   1.106  13.933  0.1257 -1.0330  0.0440
  165DOPC  H16R20015   7.722   1.216  13.939 -2.2224 -1.3067  1.1654
  165DOPC  H16S20016   7.653   1.079  13.864 -0.0165 -1.4718  0.3747
  165DOPC  C21720017   7.876   1.075  13.880 -0.4581 -0.6703  0.0614
  165DOPC  H17R20018   7.863   0.971  13.843  1.1432 -0.3330 -1.5677
  165DOPC  H17S20019   7.947   1.083  13.965 -0.1180  2.3100 -0.4022
  165DOPC  C21820020   7.911   1.154  13.746 -0.4108 -0.1635 -0.1589
  165DOPC  H18R20021   7.832   1.136  13.670 -1.3405  1.6692  0.3083
  165DOPC  H18S20022   8.009   1.125  13.704 -1.3263 -1.1766 -1.7120
  165DOPC  H18T20023   7.909   1.264  13.766  2.2117 -0.0570 -0.1519
  165DOPC   C3320024   8.279   0.746  14.919  0.4690 -0.2535 -0.3692
  165DOPC   H3X20025   8.246   0.713  14.818  1.2771  1.4571 -1.2248
  165DOPC   H3Y20026   8.389   0.745  14.907  0.6338 -1.1679  0.9855
  165DOPC   C3420027   8.237   0.893  14.921  0.1861  0.9074  0.2694
  165DOPC   H4X20028   8.266   0.947  15.014  2.3830  0.9855 -0.4159
  165DOPC   H4Y20029   8.127   0.907  14.912  0.2326  1.2445  0.2217
  165DOPC   C3520030   8.308   0.974  14.805 -0.3442 -0.1290 -0.2525
  165DOPC   H5X20031   8.319   0.914  14.712 -0.8394  2.0806 -1.8192
  165DOPC   H5Y20032   8.411   1.005  14.833  0.2576  0.8724 -3.2187
  165DOPC   C3620033   8.226   1.102  14.767  0.0616  1.2442 -0.8682
  165DOPC   H6X20034   8.119   1.079  14.747  0.2766 -1.3724  0.5388
  165DOPC   H6Y20035   8.210   1.151  14.865  1.5501  1.0570 -0.5027
  165DOPC   C3720036   8.278   1.193  14.669 -0.3780  0.2919  0.4149
  165DOPC   H7X20037   8.375   1.240  14.698  0.1412 -1.7952  2.3449
  165DOPC   H7Y20038   8.207   1.278  14.660  0.5220  1.0176 -0.0197
  165DOPC   C3820039   8.281   1.138  14.524  0.9504 -0.2120  0.4197
  165DOPC   H8X20040   8.362   1.062  14.518  0.2126 -1.2600  2.6641
  165DOPC   H8Y20041   8.317   1.220  14.458  0.3221  0.6551  1.1405
  165DOPC   C3920042   8.151   1.070  14.479  0.2198 -0.6078  0.1980
  165DOPC   H9X20043   8.135   0.970  14.524 -0.6240 -0.2877  0.6249
  165DOPC  C31020044   8.071   1.119  14.382 -0.1550  0.1817 -1.6120
  165DOPC  H10X20045   7.975   1.067  14.367 -0.1154 -0.2118 -0.5863
  165DOPC  C31120046   8.088   1.238  14.299 -0.3629 -0.0608  0.1878
  165DOPC  H11X20047   8.139   1.197  14.209 -2.5073  0.2077 -1.2294
  165DOPC  H11Y20048   8.147   1.317  14.351  0.0325 -0.6039  0.5838
  165DOPC  C31220049   7.960   1.324  14.257  0.3382  0.8731 -0.2903
  165DOPC  H12X20050   7.934   1.381  14.349 -2.4419  0.8479 -0.9576
  165DOPC  H12Y20051   7.870   1.264  14.232 -0.6854  0.4998  3.6538
  165DOPC  C31320052   7.978   1.407  14.133  0.3746 -0.0416 -0.4404
  165DOPC  H13X20053   7.988   1.341  14.044  0.9774  0.4483 -0.7425
  165DOPC  H13Y20054   7.890   1.472  14.113 -0.7511 -1.3206  0.2081
  165DOPC  C31420055   8.092   1.504  14.141 -0.6435 -0.6139  0.2587
  165DOPC  H14X20056   8.090   1.577  14.226  1.2349  0.7304 -0.7763
  165DOPC  H14Y20057   8.181   1.440  14.149 -0.5639 -0.6345 -0.7063
  165DOPC  C31520058   8.108   1.596  14.019  0.3743 -0.3523 -0.0292
  165DOPC  H15X20059   8.200   1.655  14.037 -1.4833  2.3264  1.5512
  165DOPC  H15Y20060   8.018   1.662  14.022  0.9945  0.5267 -0.1926
  165DOPC  C31620061   8.103   1.527  13.877 -1.0749 -0.6077 -0.3772
  165DOPC  H16X20062   8.181   1.449  13.858  0.9082  1.4236 -1.0336
  165DOPC  H16Y20063   8.009   1.470  13.868 -0.8337 -1.4581  1.7677
  165DOPC  C31720064   8.127   1.631  13.768 -0.2492 -0.5563  0.2055
  165DOPC  H17X20065   8.045   1.705  13.778 -1.2206 -1.7344  1.2242
  165DOPC  H17Y20066   8.223   1.686  13.785 -0.2986 -0.6509  0.8011
  165DOPC  C31820067   8.122   1.573  13.622  0.3321 -0.3998  0.4629
  165DOPC  H18X20068   8.193   1.489  13.606  0.3584  0.3115 -4.9414
  165DOPC  H18Y20069   8.017   1.537  13.610  0.9787 -2.3836  0.4999
  165DOPC  H18Z20070   8.137   1.655  13.549  1.9029 -0.8744  0.2225
  166DOPC     N20071   0.551   3.498  15.822  0.5936 -0.2062 -0.1985
  166DOPC   C1220072   0.539   3.649  15.833 -0.1492 -0.6252  0.4524
  166DOPC  H12A20073   0.532   3.690  15.733  1.1806  0.4026  0.7561
  166DOPC  H12B20074   0.628   3.682  15.883  1.1231 -1.4124 -1.1633
  166DOPC   C1320075   0.565   3.432  15.954  0.2573 -0.0750  0.2191
  166DOPC  H13A20076   0.649   3.463  16.015 -0.9127  0.7723  1.4469
  166DOPC  H13B20077   0.477   3.428  16.015  0.1944 -0.2544  0.1177
  166DOPC  H13C20078   0.587   3.327  15.943 -1.1017 -0.4018  0.4529
  166DOPC   C1420079   0.665   3.472  15.734 -0.2073 -0.8040 -0.3163
  166DOPC  H14A20080   0.663   3.521  15.638  2.2912  0.5699  0.2461
  166DOPC  H14B20081   0.759   3.496  15.782  1.2288 -2.4305 -2.1615
  166DOPC  H14C20082   0.665   3.365  15.718 -1.0048 -0.5530 -2.1636
  166DOPC   C1520083   0.431   3.431  15.755 -0.2674 -1.1750  0.1065
  166DOPC  H15A20084   0.434   3.457  15.651  1.4970 -0.0028  0.4197
  166DOPC  H15B20085   0.341   3.464  15.805 -1.2810 -1.5063 -1.4198
  166DOPC  H15C20086   0.445   3.324  15.758  0.3519 -1.2164 -2.1575
  166DOPC   C1120087   0.416   3.711  15.904  0.4547 -0.3374  0.1056
  166DOPC  H11A20088   0.404   3.685  16.011 -0.6759  1.4929  0.4830
  166DOPC  H11B20089   0.439   3.820  15.903 -0.9684  0.0216  1.4748
  166DOPC     P20090   0.272   3.742  15.694  0.4055 -0.1798  0.2582
  166DOPC   O1320091   0.175   3.849  15.698 -0.0634 -0.3722  0.4460
  166DOPC   O1420092   0.233   3.631  15.606 -0.1777 -0.1054  0.2700
  166DOPC   O1220093   0.295   3.688  15.841 -0.3143  1.1528 -0.3158
  166DOPC   O1120094   0.413   3.796  15.649 -0.4962 -0.5298 -0.1214
  166DOPC    C120095   0.436   3.935  15.641  0.5321  0.7115  0.2900
  166DOPC    HA20096   0.544   3.957  15.654  0.4669  1.7721 -0.7829
  166DOPC    HB20097   0.387   3.990  15.724 -0.7270  0.5691 -0.3474
  166DOPC    C220098   0.391   3.995  15.507 -0.1808 -0.0285 -1.2434
  166DOPC    HS20099   0.282   3.974  15.497 -0.4883  1.6883 -1.8669
  166DOPC   O2120100   0.474   3.946  15.407  0.0542 -0.6201  1.2627
  166DOPC   C2120101   0.415   3.874  15.319  0.0647  0.3735  0.3098
  166DOPC   O2220102   0.294   3.852  15.312 -0.2520 -0.0182 -0.9017
  166DOPC   C2220103   0.519   3.825  15.218 -0.4432  0.0861  0.4897
  166DOPC   H2R20104   0.573   3.734  15.253  0.0839  0.6340  1.1143
  166DOPC   H2S20105   0.603   3.897  15.226  1.3769 -2.0633  2.2972
  166DOPC    C320106   0.406   4.156  15.517  0.1473  0.4189  0.0122
  166DOPC    HX20107   0.514   4.183  15.513  0.1001  0.4317 -2.3075
  166DOPC    HY20108   0.357   4.185  15.612 -1.2812 -3.3629  0.5878
  166DOPC   O3120109   0.348   4.223  15.402 -0.1749  0.9818  0.3275
  166DOPC   C3120110   0.267   4.318  15.410 -0.0493 -0.2204 -0.1953
  166DOPC   O3220111   0.218   4.375  15.509  0.3304  0.1885  0.3117
  166DOPC   C3220112   0.237   4.356  15.265  0.8152  0.3573  0.5794
  166DOPC   H2X20113   0.326   4.406  15.220  0.6149 -0.4899 -0.7869
  166DOPC   H2Y20114   0.219   4.264  15.207 -0.0855 -0.5255  2.1900
  166DOPC   C2320115   0.458   3.798  15.081 -0.0247  0.4070 -0.2302
  166DOPC   H3R20116   0.387   3.712  15.088 -2.6137  2.4561  0.1263
  166DOPC   H3S20117   0.539   3.759  15.016  2.2326 -1.8022  3.5254
  166DOPC   C2420118   0.382   3.925  15.026  0.0336 -0.0827  0.1383
  166DOPC   H4R20119   0.443   4.017  15.016  0.2482  0.0462  2.1212
  166DOPC   H4S20120   0.310   3.950  15.106  0.1310 -0.2423  0.2770
  166DOPC   C2520121   0.304   3.897  14.900  0.0482 -0.0259  0.6103
  166DOPC   H5R20122   0.257   3.797  14.911  1.6590 -0.8582  0.3002
  166DOPC   H5S20123   0.376   3.899  14.816 -1.0766  2.5793 -0.4035
  166DOPC   C2620124   0.202   4.016  14.869  0.3872  1.2617  0.4114
  166DOPC   H6R20125   0.269   4.103  14.857  1.1087  0.5780 -0.6716
  166DOPC   H6S20126   0.142   4.036  14.961 -0.6239  0.5747 -0.0717
  166DOPC   C2720127   0.115   3.987  14.740 -0.0374 -0.1220  0.4400
  166DOPC   H7R20128   0.109   3.877  14.732  3.0780 -0.3408 -0.0528
  166DOPC   H7S20129   0.178   4.019  14.654 -2.1427  0.2486 -1.0235
  166DOPC   C2820130  -0.028   4.037  14.728  0.2247  0.2188  0.3030
  166DOPC   H8R20131  -0.030   4.148  14.736  2.3631  0.1911  1.9696
  166DOPC   H8S20132  -0.086   3.999  14.815  0.5821  3.7026  2.2498
  166DOPC   C2920133  -0.090   3.982  14.595  0.1511  0.0175 -0.1139
  166DOPC   H9R20134  -0.106   3.873  14.593  0.4339 -0.0347 -2.4500
  166DOPC  C21020135  -0.156   4.051  14.498 -0.2969  0.0974 -0.7843
  166DOPC  H10R20136  -0.197   3.994  14.412  1.5408  1.6864 -2.8411
  166DOPC  C21120137  -0.181   4.200  14.487  0.0867 -0.2488 -0.3807
  166DOPC  H11R20138  -0.182   4.252  14.389 -2.2456 -0.0829 -0.3118
  166DOPC  H11S20139  -0.094   4.239  14.544 -1.0505 -1.7515  2.5995
  166DOPC  C21220140  -0.309   4.255  14.546 -0.0697 -0.1376 -0.3431
  166DOPC  H12R20141  -0.350   4.195  14.631  2.3285  0.1458  1.1110
  166DOPC  H12S20142  -0.388   4.245  14.469  0.4352  0.8881 -1.0116
  166DOPC  C21320143  -0.309   4.407  14.589 -0.2372 -0.3534  0.3094
  166DOPC  H13R20144  -0.239   4.418  14.675 -0.1187  0.4649  0.1167
  166DOPC  H13S20145  -0.409   4.441  14.624  0.9647  1.3687  2.3409
  166DOPC  C21420146  -0.261   4.502  14.476  0.1007 -0.4156 -0.2223
  166DOPC  H14R20147  -0.322   4.481  14.386 -1.0545 -2.8312  1.0111
  166DOPC  H14S20148  -0.155   4.479  14.453 -0.0563 -0.5608 -0.8192
  166DOPC  C21520149  -0.261   4.649  14.518 -0.9927  1.7320 -0.3039
  166DOPC  H15R20150  -0.207   4.677  14.611 -0.0575 -0.7565 -0.0145
  166DOPC  H15S20151  -0.369   4.663  14.541 -1.6548 -3.7883  1.4819
  166DOPC  C21620152  -0.216   4.739  14.401  0.0973 -0.3206  0.2078
  166DOPC  H16R20153  -0.279   4.830  14.395  0.7641  0.0536 -1.8765
  166DOPC  H16S20154  -0.229   4.680  14.308  0.1007 -1.0231  0.6452
  166DOPC  C21720155  -0.072   4.796  14.419  0.2541  0.0927  0.2751
  166DOPC  H17R20156  -0.079   4.840  14.521  1.0062 -0.5828  0.6282
  166DOPC  H17S20157  -0.060   4.884  14.352 -1.6236 -1.1154 -1.7719
  166DOPC  C21820158   0.038   4.700  14.397 -0.3380 -0.5119 -0.1481
  166DOPC  H18R20159   0.133   4.750  14.426  0.1967 -1.7021  0.2046
  166DOPC  H18S20160   0.054   4.664  14.294 -0.8238  0.6806 -0.6648
  166DOPC  H18T20161   0.038   4.613  14.466  0.8241  0.8777  1.6992
  166DOPC   C3320162   0.126   4.460  15.247 -0.2069  0.4469 -0.0218
  166DOPC   H3X20163   0.149   4.552  15.304 -1.0169  2.1907 -2.3632
  166DOPC   H3Y20164   0.032   4.419  15.291 -0.6751  2.1293  0.6053
  166DOPC   C3420165   0.118   4.521  15.104  0.6735 -0.3634 -0.3822
  166DOPC   H4X20166   0.158   4.444  15.034  0.4588  0.7867 -1.8137
  166DOPC   H4Y20167   0.184   4.610  15.098  0.4114  0.0173  1.7196
  166DOPC   C3520168  -0.018   4.572  15.063 -0.2631  0.2929  0.5712
  166DOPC   H5X20169  -0.046   4.647  15.140  1.9318  0.9358  0.7896
  166DOPC   H5Y20170  -0.105   4.503  15.070 -1.2180  1.5656  1.9264
  166DOPC   C3620171  -0.030   4.638  14.921  0.4121 -0.2175 -0.6273
  166DOPC   H6X20172   0.050   4.713  14.904 -0.4724  0.4359 -2.0858
  166DOPC   H6Y20173  -0.032   4.563  14.839 -2.9082 -1.2437  0.2329
  166DOPC   C3720174  -0.157   4.709  14.902  0.6826  0.3819  0.3885
  166DOPC   H7X20175  -0.161   4.770  14.994  0.0977 -0.1757  0.7372
  166DOPC   H7Y20176  -0.151   4.788  14.823  0.4540  1.6331  1.5842
  166DOPC   C3820177  -0.287   4.630  14.902 -0.6278 -0.3961  0.1974
  166DOPC   H8X20178  -0.283   4.580  15.001  0.7483  0.6005  0.6693
  166DOPC   H8Y20179  -0.297   4.565  14.813 -3.2534  0.8190 -0.5062
  166DOPC   C3920180  -0.402   4.720  14.901  0.5584 -0.5330 -0.7863
  166DOPC   H9X20181  -0.373   4.826  14.900  0.4409 -0.4981 -1.5135
  166DOPC  C31020182  -0.527   4.681  14.875 -0.1185 -0.0932 -0.5792
  166DOPC  H10X20183  -0.604   4.760  14.870  0.8808  0.8857 -0.8316
  166DOPC  C31120184  -0.563   4.533  14.864 -0.2036  0.5332  0.0409
  166DOPC  H11X20185  -0.627   4.504  14.950 -2.0908  3.1836 -0.3583
  166DOPC  H11Y20186  -0.473   4.468  14.856  0.8019  1.0772  4.3411
  166DOPC  C31220187  -0.644   4.527  14.732  0.1102 -0.4193 -1.0488
  166DOPC  H12X20188  -0.600   4.570  14.640  0.6627 -1.6829 -1.3894
  166DOPC  H12Y20189  -0.739   4.584  14.744 -0.9787 -2.0432 -1.6720
  166DOPC  C31320190  -0.682   4.382  14.697 -0.5893  0.7513  0.4595
  166DOPC  H13X20191  -0.586   4.328  14.681 -1.6984 -0.9407 -0.8151
  166DOPC  H13Y20192  -0.735   4.336  14.784 -0.9448 -1.2764 -0.7841
  166DOPC  C31420193  -0.775   4.364  14.578 -0.4190 -0.5555 -0.0902
  166DOPC  H14X20194  -0.855   4.441  14.583  0.1471  0.1037 -0.8229
  166DOPC  H14Y20195  -0.720   4.386  14.484 -2.1047 -0.0499 -0.9957
  166DOPC  C31520196  -0.825   4.223  14.567  0.1308  0.1823 -0.3896
  166DOPC  H15X20197  -0.868   4.195  14.665  2.5281  1.7176  1.1781
  166DOPC  H15Y20198  -0.735   4.160  14.549  0.5193  0.9323 -1.1904
  166DOPC  C31620199  -0.924   4.204  14.444  0.1829  0.4603 -0.2841
  166DOPC  H16X20200  -0.948   4.095  14.449  2.3336 -0.0165  0.5843
  166DOPC  H16Y20201  -1.023   4.253  14.459  1.1654  2.0071  1.5209
  166DOPC  C31720202  -0.851   4.242  14.313 -0.4027  0.0210 -0.0801
  166DOPC  H17X20203  -0.845   4.353  14.305  1.8325 -0.1473 -2.0456
  166DOPC  H17Y20204  -0.741   4.224  14.323 -0.5520 -1.5558 -0.9823
  166DOPC  C31820205  -0.905   4.180  14.190 -0.0307  0.2357 -0.4763
  166DOPC  H18X20206  -0.852   4.227  14.105 -0.3107 -0.5718 -1.1111
  166DOPC  H18Y20207  -0.884   4.071  14.188 -0.9895 -0.0675  1.8754
  166DOPC  H18Z20208  -1.014   4.203  14.180  0.1456  1.0829 -0.5396
  167DOPC     N20209   1.020   1.767  15.236  0.4031  0.8694  0.3907
  167DOPC   C1220210   0.956   1.867  15.144 -0.0072  0.5043 -0.4512
  167DOPC  H12A20211   0.850   1.848  15.152  0.1237  0.4519  1.8645
  167DOPC  H12B20212   0.976   1.844  15.040  2.4430  0.6969 -0.0768
  167DOPC   C1320213   0.954   1.777  15.368  0.2098  0.6901  0.1190
  167DOPC  H13A20214   1.003   1.710  15.436  0.9622 -1.4348 -2.3441
  167DOPC  H13B20215   0.964   1.878  15.405  3.5998  0.2428  0.6664
  167DOPC  H13C20216   0.849   1.750  15.362  0.4150 -0.7368  2.0910
  167DOPC   C1420217   1.165   1.798  15.246 -0.3087 -0.4150  0.3534
  167DOPC  H14A20218   1.183   1.899  15.280  0.9662 -0.9261  1.2823
  167DOPC  H14B20219   1.222   1.726  15.302 -0.7042 -0.6281  0.4756
  167DOPC  H14C20220   1.205   1.795  15.145 -1.9878 -1.5824 -0.3070
  167DOPC   C1520221   0.996   1.631  15.169 -0.1383 -0.1987  0.3906
  167DOPC  H15A20222   1.034   1.559  15.240  1.7047  0.0546 -0.2835
  167DOPC  H15B20223   1.066   1.628  15.087 -0.3359 -0.3170  0.2265
  167DOPC  H15C20224   0.894   1.604  15.143 -0.4039  1.1165  0.0182
  167DOPC   C1120225   0.964   2.017  15.158 -0.1152 -0.1313 -0.2846
  167DOPC  H11A20226   1.070   2.039  15.132  0.0385 -1.0788 -0.4982
  167DOPC  H11B20227   0.906   2.067  15.078  0.8799  1.2379 -0.1852
  167DOPC     P20228   0.815   2.137  15.337 -0.3380  0.2905 -0.1157
  167DOPC   O1320229   0.844   2.277  15.320  0.6718  0.1115 -0.0774
  167DOPC   O1420230   0.783   2.100  15.477  0.2570  0.3322  0.0935
  167DOPC   O1220231   0.939   2.060  15.290  0.4365 -0.5280  0.0580
  167DOPC   O1120232   0.701   2.099  15.231 -0.0241  0.5604  0.2419
  167DOPC    C120233   0.587   2.026  15.263  0.5951 -0.4108  0.1911
  167DOPC    HA20234   0.538   2.077  15.349 -0.4464 -2.2099  0.7062
  167DOPC    HB20235   0.617   1.922  15.289 -1.1036 -0.6491  1.3157
  167DOPC    C220236   0.482   2.032  15.144 -0.2417 -0.0065 -0.1927
  167DOPC    HS20237   0.405   1.962  15.183  0.0707 -0.5149 -0.4883
  167DOPC   O2120238   0.524   1.988  15.005 -0.0392 -0.0583 -0.3096
  167DOPC   C2120239   0.531   1.861  14.985 -0.5270  0.3255  0.4902
  167DOPC   O2220240   0.512   1.776  15.070 -0.0469  0.1910  0.3061
  167DOPC   C2220241   0.530   1.836  14.835  0.1704  0.9366 -0.4863
  167DOPC   H2R20242   0.518   1.726  14.827  0.5047  0.8303  0.3343
  167DOPC   H2S20243   0.624   1.874  14.788  1.2306 -1.3303 -0.3309
  167DOPC    C320244   0.429   2.175  15.125 -0.3451  0.5113 -0.4880
  167DOPC    HX20245   0.506   2.249  15.094  0.1053  1.3872  2.4444
  167DOPC    HY20246   0.398   2.212  15.225  1.4728  1.2672 -0.1829
  167DOPC   O3120247   0.320   2.171  15.037  1.0080 -0.3908  0.6920
  167DOPC   C3120248   0.232   2.276  15.046 -0.2092  0.0876 -0.2162
  167DOPC   O3220249   0.252   2.375  15.113 -0.0029  0.4209  0.7574
  167DOPC   C3220250   0.112   2.240  14.966 -0.4225 -0.0971 -0.0265
  167DOPC   H2X20251   0.149   2.182  14.878 -0.5899  1.8568 -1.4364
  167DOPC   H2Y20252   0.048   2.176  15.032 -1.1014 -0.1442 -0.7149
  167DOPC   C2320253   0.400   1.890  14.767 -0.4032 -0.2910 -0.2560
  167DOPC   H3R20254   0.409   1.884  14.657 -0.2721 -0.3832 -0.2407
  167DOPC   H3S20255   0.401   1.994  14.806 -1.7866 -0.1294 -0.6109
  167DOPC   C2420256   0.271   1.820  14.808  0.5356 -0.1801  0.2768
  167DOPC   H4R20257   0.272   1.836  14.918 -1.4636 -0.2522  0.3387
  167DOPC   H4S20258   0.271   1.713  14.779  1.2146  0.3327 -1.7552
  167DOPC   C2520259   0.138   1.879  14.752  0.0323 -0.2607  0.3131
  167DOPC   H5R20260   0.096   1.813  14.673 -0.7632  3.0045 -2.2422
  167DOPC   H5S20261   0.160   1.976  14.702 -2.2413 -0.0305 -0.3283
  167DOPC   C2620262   0.033   1.899  14.865 -0.1102  0.5856  0.3650
  167DOPC   H6R20263   0.084   1.935  14.957  1.1603  0.9209 -0.4467
  167DOPC   H6S20264  -0.008   1.800  14.895 -0.6703  0.0515 -1.9567
  167DOPC   C2720265  -0.083   1.980  14.808 -0.6141  1.2763 -0.2404
  167DOPC   H7R20266  -0.028   2.070  14.773  4.1410 -0.4220  2.0992
  167DOPC   H7S20267  -0.151   2.008  14.892 -1.0002 -1.7034  0.5262
  167DOPC   C2820268  -0.171   1.925  14.695  0.5507 -0.3017  0.3066
  167DOPC   H8R20269  -0.219   1.831  14.731  1.1249 -0.2711  1.1768
  167DOPC   H8S20270  -0.100   1.895  14.616 -0.3120 -0.4799 -0.4130
  167DOPC   C2920271  -0.273   2.032  14.663  0.3973 -0.1640 -0.3668
  167DOPC   H9R20272  -0.335   2.065  14.748  2.0491  0.5576  0.6065
  167DOPC  C21020273  -0.284   2.107  14.555 -0.1542 -0.1198  0.7958
  167DOPC  H10R20274  -0.335   2.203  14.571  1.7958  0.9738  0.7955
  167DOPC  C21120275  -0.205   2.091  14.431 -0.6647 -0.4012 -0.4877
  167DOPC  H11R20276  -0.170   1.988  14.408 -1.0700 -0.5401 -0.4806
  167DOPC  H11S20277  -0.115   2.157  14.436 -1.3458  0.5911  4.8404
  167DOPC  C21220278  -0.287   2.122  14.307  0.4141  0.1198  1.1364
  167DOPC  H12R20279  -0.336   2.222  14.311 -2.0742 -1.0130  0.5746
  167DOPC  H12S20280  -0.215   2.130  14.222 -0.0824  0.9911  0.7804
  167DOPC  C21320281  -0.383   1.998  14.277  0.7659  0.6352  0.1391
  167DOPC  H13R20282  -0.472   2.020  14.341 -0.3164  3.4633 -2.1081
  167DOPC  H13S20283  -0.327   1.905  14.299  1.7006  0.9169 -0.9611
  167DOPC  C21420284  -0.415   1.979  14.124 -0.1855  0.0532  0.0605
  167DOPC  H14R20285  -0.472   1.886  14.107 -1.4201  1.2367 -3.0319
  167DOPC  H14S20286  -0.321   1.963  14.066 -0.5106  0.7967 -0.6831
  167DOPC  C21520287  -0.467   2.105  14.064  0.1874 -0.7778 -0.2835
  167DOPC  H15R20288  -0.391   2.186  14.066  0.7020 -1.2583 -0.4770
  167DOPC  H15S20289  -0.550   2.146  14.126  1.0728 -2.1716  1.9304
  167DOPC  C21620290  -0.528   2.079  13.921 -1.0857  0.0361  0.6533
  167DOPC  H16R20291  -0.584   2.165  13.879  2.5600  1.9679 -0.7393
  167DOPC  H16S20292  -0.610   2.007  13.942 -0.4291 -0.1134  2.9631
  167DOPC  C21720293  -0.414   2.031  13.826  0.3789  0.3247  0.4892
  167DOPC  H17R20294  -0.368   1.937  13.862  2.1294  1.2574  0.7743
  167DOPC  H17S20295  -0.338   2.112  13.819  1.1607 -0.0716  3.0704
  167DOPC  C21820296  -0.467   2.006  13.682 -0.5065  0.3659  0.1842
  167DOPC  H18R20297  -0.539   1.922  13.697 -0.0252 -0.6653 -2.6138
  167DOPC  H18S20298  -0.381   1.985  13.615 -0.2635  2.5872 -0.2718
  167DOPC  H18T20299  -0.523   2.098  13.655 -1.8909  0.3831  2.7577
  167DOPC   C3320300   0.018   2.359  14.931  0.4601 -0.1453  0.0599
  167DOPC   H3X20301   0.061   2.424  14.852 -1.1089  1.3462  0.3745
  167DOPC   H3Y20302   0.003   2.418  15.025 -1.3317 -3.1343  1.8075
  167DOPC   C3420303  -0.128   2.322  14.895 -0.4664 -0.2738  0.0969
  167DOPC   H4X20304  -0.161   2.231  14.951  1.1988 -1.1314 -0.2448
  167DOPC   H4Y20305  -0.123   2.281  14.791 -0.4220 -1.0473  0.4000
  167DOPC   C3520306  -0.230   2.438  14.905  0.2025  0.4574  0.3184
  167DOPC   H5X20307  -0.197   2.515  14.831  1.7950  0.8855  1.4129
  167DOPC   H5Y20308  -0.233   2.494  15.001 -0.6907  0.1484  0.4790
  167DOPC   C3620309  -0.362   2.384  14.866 -0.3835  0.3826  0.3210
  167DOPC   H6X20310  -0.422   2.470  14.828  1.1446  1.6274  0.6562
  167DOPC   H6Y20311  -0.345   2.322  14.775 -0.3420  1.8700 -0.7200
  167DOPC   C3720312  -0.442   2.312  14.972 -1.4011 -0.0686 -0.5663
  167DOPC   H7X20313  -0.380   2.224  14.998 -1.7647  0.4662  2.4178
  167DOPC   H7Y20314  -0.428   2.378  15.060  1.3626 -1.1306 -0.1071
  167DOPC   C3820315  -0.590   2.289  14.940  0.1855  0.2450  0.0508
  167DOPC   H8X20316  -0.599   2.247  14.837  1.8211 -0.9131  0.3488
  167DOPC   H8Y20317  -0.640   2.388  14.937 -1.0603 -0.2461  2.2894
  167DOPC   C3920318  -0.656   2.201  15.034  0.4616 -0.6670 -0.6711
  167DOPC   H9X20319  -0.592   2.134  15.092  0.9545  0.5342  0.2198
  167DOPC  C31020320  -0.791   2.181  15.034  0.1487 -0.5219 -0.0791
  167DOPC  H10X20321  -0.828   2.097  15.095  0.0067 -0.8522 -0.6237
  167DOPC  C31120322  -0.886   2.247  14.940  0.1176  0.4724  0.1157
  167DOPC  H11X20323  -0.939   2.171  14.880  1.3674 -2.3114  2.3261
  167DOPC  H11Y20324  -0.820   2.299  14.867 -0.9586  0.6938 -0.7419
  167DOPC  C31220325  -0.973   2.345  15.016 -0.5097  0.1227  0.3184
  167DOPC  H12X20326  -1.014   2.303  15.110  1.8273 -3.5763 -0.1293
  167DOPC  H12Y20327  -1.062   2.369  14.953  1.3778 -0.8681 -2.9148
  167DOPC  C31320328  -0.897   2.472  15.055 -0.2214  0.6261  0.6434
  167DOPC  H13X20329  -0.800   2.454  15.105  0.2728  0.5991 -0.2994
  167DOPC  H13Y20330  -0.875   2.527  14.960 -1.2629  2.0893  1.2201
  167DOPC  C31420331  -0.982   2.569  15.136 -0.0878 -0.1828 -0.4003
  167DOPC  H14X20332  -1.076   2.582  15.077 -0.7984 -2.3838  0.1594
  167DOPC  H14Y20333  -1.013   2.505  15.221 -1.2482 -0.7124 -1.1842
  167DOPC  C31520334  -0.906   2.697  15.165  1.0992  1.0673 -0.1138
  167DOPC  H15X20335  -0.863   2.737  15.071 -1.8553  0.8145 -1.6972
  167DOPC  H15Y20336  -0.834   2.670  15.246  0.0600  0.1572  0.5332
  167DOPC  C31620337  -0.997   2.801  15.227 -0.2540  0.4981 -0.0076
  167DOPC  H16X20338  -1.094   2.801  15.173 -0.7339 -1.8871  0.7470
  167DOPC  H16Y20339  -1.026   2.770  15.330 -0.6540  0.5196 -0.1114
  167DOPC  C31720340  -0.929   2.942  15.228 -0.0668  0.1507 -0.2443
  167DOPC  H17X20341  -1.001   2.997  15.293 -1.6268  0.1713 -1.8839
  167DOPC  H17Y20342  -0.826   2.934  15.268  1.3204  1.2245 -3.2882
  167DOPC  C31820343  -0.925   3.013  15.092 -0.2895  0.0583 -0.5015
  167DOPC  H18X20344  -1.027   3.047  15.066 -0.8825 -1.1250  0.1934
  167DOPC  H18Y20345  -0.859   3.102  15.104 -0.9889  0.6009 -0.6244
  167DOPC  H18Z20346  -0.900   2.951  15.004 -2.6782 -0.7119 -0.6893
  168DOPC     N20347   1.549   0.765  16.127  0.5026 -0.2941 -0.0190
  168DOPC   C1220348   1.555   0.722  15.984 -0.5467  0.7134 -0.0793
  168DOPC  H12A20349   1.658   0.696  15.964  0.8825  2.6165  3.7648
  168DOPC  H12B20350   1.534   0.809  15.923  1.3671  0.4910 -1.1664
  168DOPC   C1320351   1.420   0.815  16.173 -0.1730 -1.0254  0.0693
  168DOPC  H13A20352   1.349   0.734  16.178 -1.5735  0.0426 -1.6948
  168DOPC  H13B20353   1.432   0.860  16.270 -0.6318 -0.7144 -0.0188
  168DOPC  H13C20354   1.384   0.889  16.104  0.2569 -0.6026  0.2919
  168DOPC   C1420355   1.642   0.881  16.145 -0.4199 -0.0704 -0.2502
  168DOPC  H14A20356   1.744   0.853  16.122  1.2308  0.7304  4.8478
  168DOPC  H14B20357   1.608   0.965  16.087 -0.8389 -0.0351  0.0405
  168DOPC  H14C20358   1.645   0.912  16.249 -0.6702 -0.6653 -0.0613
  168DOPC   C1520359   1.586   0.659  16.226  0.4038 -0.3228  0.7157
  168DOPC  H15A20360   1.686   0.620  16.214 -0.2332 -2.1175  0.9385
  168DOPC  H15B20361   1.509   0.583  16.220  0.3825 -0.4962  2.5398
  168DOPC  H15C20362   1.584   0.697  16.327 -0.2969 -0.6280  0.8316
  168DOPC   C1120363   1.472   0.595  15.933  0.6725 -0.1586  0.6285
  168DOPC  H11A20364   1.483   0.581  15.824  1.0157 -0.6806  0.7287
  168DOPC  H11B20365   1.521   0.505  15.976 -2.3584 -2.4598 -0.4643
  168DOPC     P20366   1.234   0.679  15.876 -0.1457  0.0843 -0.4705
  168DOPC   O1320367   1.294   0.802  15.821 -0.5077  0.2176 -0.4268
  168DOPC   O1420368   1.102   0.702  15.934  0.0402 -0.4720  0.5083
  168DOPC   O1220369   1.335   0.605  15.976  0.4978  0.0108  0.2479
  168DOPC   O1120370   1.225   0.563  15.769  0.4991 -0.0583 -0.1981
  168DOPC    C120371   1.194   0.429  15.817  0.1187 -0.8606  0.7107
  168DOPC    HA20372   1.099   0.426  15.874 -0.9592 -4.8987 -1.0178
  168DOPC    HB20373   1.262   0.386  15.893  1.6146 -0.6648 -0.4531
  168DOPC    C220374   1.162   0.338  15.692 -0.2305 -1.0441  0.7723
  168DOPC    HS20375   1.136   0.237  15.732  2.4500 -2.3431 -0.4521
  168DOPC   O2120376   1.292   0.339  15.622 -0.0076  0.6915 -0.4501
  168DOPC   C2120377   1.375   0.250  15.679  0.0591 -0.0730 -0.1939
  168DOPC   O2220378   1.343   0.160  15.756 -0.5409  0.4408 -0.1210
  168DOPC   C2220379   1.500   0.255  15.591  0.1047 -0.5980  0.7917
  168DOPC   H2R20380   1.584   0.212  15.650  0.5152 -0.2432  0.4730
  168DOPC   H2S20381   1.519   0.361  15.562  1.1137 -0.7402  0.9027
  168DOPC    C320382   1.052   0.403  15.599 -0.4559  0.1938  0.3542
  168DOPC    HX20383   1.062   0.514  15.607 -1.9341  0.5494 -1.9166
  168DOPC    HY20384   0.963   0.370  15.657 -0.2236 -0.0938  0.5526
  168DOPC   O3120385   1.064   0.348  15.464  0.5978  0.0942 -0.0245
  168DOPC   C3120386   0.977   0.400  15.373  1.0256 -0.3482  0.1911
  168DOPC   O3220387   0.896   0.491  15.397  0.1689 -0.3146  0.1624
  168DOPC   C3220388   1.005   0.334  15.237  0.1080 -0.3666  0.5093
  168DOPC   H2X20389   1.091   0.387  15.191 -0.8855 -0.3987 -1.4905
  168DOPC   H2Y20390   1.026   0.226  15.252 -2.8225 -1.0817 -0.0070
  168DOPC   C2320391   1.504   0.173  15.455  0.4087 -0.4986 -0.5573
  168DOPC   H3R20392   1.469   0.073  15.490 -0.8627 -0.2356 -1.0338
  168DOPC   H3S20393   1.608   0.153  15.421  0.2350 -2.4072 -0.0770
  168DOPC   C2420394   1.404   0.213  15.341 -0.2906  0.2334  0.5759
  168DOPC   H4R20395   1.405   0.324  15.344 -0.8879  0.2933 -0.7310
  168DOPC   H4S20396   1.299   0.183  15.359 -0.4895  0.8496  0.4854
  168DOPC   C2520397   1.438   0.156  15.202  0.5038  0.2616  0.1784
  168DOPC   H5R20398   1.454   0.046  15.209 -1.1039  0.0501  0.8036
  168DOPC   H5S20399   1.541   0.181  15.167  0.7420  0.3536  0.9215
  168DOPC   C2620400   1.333   0.183  15.086 -0.0792  0.1570  0.0870
  168DOPC   H6R20401   1.321   0.293  15.090  1.1690  0.3795 -1.5356
  168DOPC   H6S20402   1.233   0.138  15.105  0.3069 -0.3591  0.9853
  168DOPC   C2720403   1.392   0.140  14.945  0.2117 -0.5181 -0.3109
  168DOPC   H7R20404   1.411   0.032  14.928 -0.2160 -0.7294  0.5099
  168DOPC   H7S20405   1.494   0.183  14.941  0.1315 -0.3938 -1.3250
  168DOPC   C2820406   1.316   0.188  14.817  0.3945  0.3952 -0.2517
  168DOPC   H8R20407   1.308   0.298  14.832 -0.4012  0.2294  0.6577
  168DOPC   H8S20408   1.212   0.149  14.817  0.1162  1.1200 -0.8274
  168DOPC   C2920409   1.391   0.152  14.693  0.7184 -0.0919 -0.0003
  168DOPC   H9R20410   1.481   0.212  14.674  0.2638  0.3585 -0.7761
  168DOPC  C21020411   1.347   0.068  14.595  0.1543  0.1089  0.3779
  168DOPC  H10R20412   1.410   0.044  14.509  2.4457  0.1857  1.9516
  168DOPC  C21120413   1.206   0.000  14.597  0.5583 -0.1800  0.2445
  168DOPC  H11R20414   1.131   0.080  14.616 -1.5364 -2.2722  1.2968
  168DOPC  H11S20415   1.193  -0.074  14.678 -0.8013  1.4938  1.6314
  168DOPC  C21220416   1.168  -0.059  14.455 -0.0850  0.0326 -0.0380
  168DOPC  H12R20417   1.164   0.025  14.383 -0.4839 -1.4390 -1.8301
  168DOPC  H12S20418   1.061  -0.084  14.476 -0.6405  1.2234 -1.2802
  168DOPC  C21320419   1.249  -0.178  14.404  0.3214  0.2278 -1.0064
  168DOPC  H13R20420   1.268  -0.254  14.483  1.3025  1.5470  0.0917
  168DOPC  H13S20421   1.349  -0.134  14.381 -0.5843  2.1129 -1.5936
  168DOPC  C21420422   1.189  -0.244  14.280 -1.5418 -0.1248 -0.0998
  168DOPC  H14R20423   1.209  -0.179  14.192  2.8516 -1.0983 -0.0411
  168DOPC  H14S20424   1.080  -0.250  14.296 -1.4414 -1.6148  0.1590
  168DOPC  C21520425   1.250  -0.384  14.255  0.1324  0.1194  0.3934
  168DOPC  H15R20426   1.231  -0.444  14.347 -0.7934  1.0388  0.8204
  168DOPC  H15S20427   1.360  -0.379  14.240  0.3067 -3.0491 -0.0776
  168DOPC  C21620428   1.197  -0.466  14.134 -0.4202  0.5048  0.4227
  168DOPC  H16R20429   1.231  -0.422  14.038  1.6652  0.2454  0.9910
  168DOPC  H16S20430   1.087  -0.477  14.124 -0.0811 -1.6075 -2.9184
  168DOPC  C21720431   1.259  -0.601  14.147 -1.2655 -0.2119 -0.0971
  168DOPC  H17R20432   1.244  -0.653  14.244  0.4303  2.2615  1.6167
  168DOPC  H17S20433   1.367  -0.580  14.131 -1.0181  1.6697  3.1820
  168DOPC  C21820434   1.220  -0.693  14.029 -0.3313 -0.2451  0.7199
  168DOPC  H18R20435   1.109  -0.701  14.038 -0.3289  0.0951  1.0734
  168DOPC  H18S20436   1.260  -0.796  14.036 -0.5111 -0.5142 -1.5356
  168DOPC  H18T20437   1.246  -0.665  13.925 -1.7636 -3.1752 -0.5534
  168DOPC   C3320438   0.873   0.322  15.146 -0.4995 -0.5732 -0.4233
  168DOPC   H3X20439   0.836   0.424  15.122 -2.3877 -1.2504 -0.5570
  168DOPC   H3Y20440   0.798   0.259  15.196 -0.5773 -0.5262 -0.4810
  168DOPC   C3420441   0.893   0.244  15.018  0.0933 -0.2976  0.2550
  168DOPC   H4X20442   0.790   0.221  14.983  0.6214 -1.0951 -0.8348
  168DOPC   H4Y20443   0.945   0.148  15.042  0.2924 -0.0693  0.7416
  168DOPC   C3520444   0.973   0.308  14.896  0.3683  0.0626 -0.1210
  168DOPC   H5X20445   1.007   0.231  14.823 -4.1651 -0.5667 -1.9261
  168DOPC   H5Y20446   1.062   0.368  14.924 -0.4959  0.7326  1.2740
  168DOPC   C3620447   0.886   0.414  14.810 -0.5157  0.0959 -0.3994
  168DOPC   H6X20448   0.791   0.368  14.775 -0.5794 -0.6461  0.7118
  168DOPC   H6Y20449   0.859   0.479  14.896 -2.5250 -1.6032  0.3561
  168DOPC   C3720450   0.966   0.480  14.701 -0.5071  0.0447  0.1300
  168DOPC   H7X20451   1.061   0.504  14.754 -0.4588 -0.7555  0.4224
  168DOPC   H7Y20452   0.995   0.408  14.621  1.3754 -0.3404  1.1129
  168DOPC   C3820453   0.898   0.612  14.651 -0.3331 -0.5561  0.3456
  168DOPC   H8X20454   0.978   0.683  14.622 -0.7258 -1.2689 -2.8041
  168DOPC   H8Y20455   0.832   0.663  14.725 -1.8331 -1.7368 -0.1387
  168DOPC   C3920456   0.802   0.568  14.548  0.6807 -0.4272 -0.7476
  168DOPC   H9X20457   0.707   0.541  14.596  1.7706 -0.4500  1.5240
  168DOPC  C31020458   0.823   0.560  14.417 -0.2250 -0.1801  0.3671
  168DOPC  H10X20459   0.737   0.520  14.363 -0.3052  2.1203 -1.3580
  168DOPC  C31120460   0.951   0.596  14.351 -0.6607 -0.9901  0.1960
  168DOPC  H11X20461   1.026   0.624  14.427  1.4367 -1.5271 -1.5746
  168DOPC  H11Y20462   0.942   0.687  14.288  1.4380 -0.5863  0.4161
  168DOPC  C31220463   0.999   0.499  14.243  0.1157 -0.1014  0.4620
  168DOPC  H12X20464   1.097   0.528  14.199 -0.2277 -0.7935 -0.7930
  168DOPC  H12Y20465   0.929   0.515  14.158  0.0429 -2.4049  0.0409
  168DOPC  C31320466   0.989   0.345  14.280 -0.9862  0.3644  0.5706
  168DOPC  H13X20467   1.041   0.321  14.375 -0.9382  0.6631  0.6198
  168DOPC  H13Y20468   0.882   0.321  14.302 -1.0244 -1.4777 -1.2581
  168DOPC  C31420469   1.039   0.248  14.169 -0.0942  0.2654 -0.1758
  168DOPC  H14X20470   1.135   0.284  14.128  0.9082 -0.8518  1.1032
  168DOPC  H14Y20471   1.066   0.155  14.223  1.9121  0.5582 -0.6167
  168DOPC  C31520472   0.942   0.218  14.050  0.3183 -0.1713 -0.2522
  168DOPC  H15X20473   0.974   0.287  13.970  1.2897 -1.0365 -0.6274
  168DOPC  H15Y20474   0.838   0.231  14.089 -0.2459 -0.1154 -1.7414
  168DOPC  C31620475   0.963   0.075  14.002 -0.0991 -0.2192 -0.0362
  168DOPC  H16X20476   0.891   0.063  13.918  0.9851  0.1036 -1.0500
  168DOPC  H16Y20477   1.063   0.049  13.961  0.1756 -2.1900  1.7135
  168DOPC  C31720478   0.922  -0.042  14.093  0.0501 -0.2081 -0.1107
  168DOPC  H17X20479   0.907  -0.133  14.031 -1.0003 -2.0708  2.6738
  168DOPC  H17Y20480   1.011  -0.066  14.155  1.0343 -1.2581 -1.8427
  168DOPC  C31820481   0.800  -0.026  14.175  0.2052 -0.1562 -0.2385
  168DOPC  H18X20482   0.775  -0.127  14.215 -2.8647 -0.6715 -3.0926
  168DOPC  H18Y20483   0.810   0.052  14.253 -1.2199 -1.3297  1.1829
  168DOPC  H18Z20484   0.710   0.001  14.116 -1.0564  0.1467  1.7415
  169DOPC     N20485   8.378   2.330  15.508  0.0621 -0.2341 -0.2822
  169DOPC   C1220486   8.288   2.293  15.393  0.0148  0.2359  1.2195
  169DOPC  H12A20487   8.256   2.382  15.341  2.6706 -0.4997 -1.9723
  169DOPC  H12B20488   8.197   2.249  15.434 -0.6883 -2.1282 -2.4221
  169DOPC   C1320489   8.503   2.386  15.449 -0.3874  0.0593  0.3741
  169DOPC  H13A20490   8.585   2.385  15.518 -1.0901 -1.5947  1.2346
  169DOPC  H13B20491   8.533   2.318  15.370 -1.1236  0.0351  0.1002
  169DOPC  H13C20492   8.485   2.485  15.410  1.4923  1.0005  1.7721
  169DOPC   C1420493   8.413   2.209  15.590  0.2029  0.0548 -0.5294
  169DOPC  H14A20494   8.323   2.170  15.636  0.0302  1.7115  0.6309
  169DOPC  H14B20495   8.454   2.133  15.526  0.9457  0.8661 -1.0315
  169DOPC  H14C20496   8.473   2.230  15.677  0.6621 -0.9956 -0.5756
  169DOPC   C1520497   8.318   2.447  15.581 -0.1978  0.1308  0.3641
  169DOPC  H15A20498   8.315   2.542  15.530 -2.5904  0.7542  1.5258
  169DOPC  H15B20499   8.369   2.474  15.672 -0.1907  0.9667  0.1241
  169DOPC  H15C20500   8.218   2.434  15.622  0.1506  1.9687  1.9858
  169DOPC   C1120501   8.328   2.192  15.283  0.2729  0.3423 -0.2157
  169DOPC  H11A20502   8.239   2.189  15.217 -0.4739  0.4275  0.7619
  169DOPC  H11B20503   8.414   2.231  15.224  2.0655 -0.2426  1.8780
  169DOPC     P20504   8.246   1.967  15.377 -0.2892 -0.1203  0.0024
  169DOPC   O1320505   8.152   2.042  15.463  0.1160  0.0406 -0.6171
  169DOPC   O1420506   8.297   1.845  15.440  0.4274 -0.1352 -0.2817
  169DOPC   O1220507   8.365   2.062  15.335  0.4770 -0.3045  0.7434
  169DOPC   O1120508   8.179   1.935  15.239 -0.1066 -0.5133 -0.2885
  169DOPC    C120509   8.237   1.844  15.140 -0.3734  0.1232  0.1567
  169DOPC    HA20510   8.348   1.851  15.141 -0.1690 -1.6139  3.3669
  169DOPC    HB20511   8.196   1.869  15.040 -0.0864 -1.4223 -0.3640
  169DOPC    C220512   8.211   1.693  15.165 -0.5169 -0.4695  0.8464
  169DOPC    HS20513   8.262   1.662  15.259 -1.2741 -3.2466  0.4470
  169DOPC   O2120514   8.248   1.619  15.048 -0.2368  0.2519 -0.4706
  169DOPC   C2120515   8.377   1.574  15.060  0.8567 -0.5730  0.5250
  169DOPC   O2220516   8.457   1.608  15.142 -0.1037 -0.1696 -0.3456
  169DOPC   C2220517   8.394   1.464  14.951  0.4086 -0.6061  0.0730
  169DOPC   H2R20518   8.418   1.530  14.865  2.1842  0.4702  1.3227
  169DOPC   H2S20519   8.297   1.410  14.943  0.0332 -0.2675  2.0316
  169DOPC    C320520   8.059   1.669  15.197 -0.6826 -0.3030  0.2601
  169DOPC    HX20521   7.999   1.706  15.111 -0.6603 -0.4726  0.1704
  169DOPC    HY20522   8.051   1.723  15.294  2.0984 -0.1704  0.4882
  169DOPC   O3120523   8.035   1.526  15.213 -0.5416  0.0079  0.2655
  169DOPC   C3120524   7.919   1.495  15.256  0.5772 -0.0378 -0.4407
  169DOPC   O3220525   7.829   1.577  15.294 -0.4190  0.1887  0.0065
  169DOPC   C3220526   7.892   1.349  15.237 -0.2127  1.0342 -0.0897
  169DOPC   H2X20527   7.962   1.302  15.310 -0.1736  0.9709 -0.1688
  169DOPC   H2Y20528   7.791   1.332  15.281  0.1542  1.6297  1.0224
  169DOPC   C2320529   8.504   1.360  14.984  0.0394 -0.7308  0.1485
  169DOPC   H3R20530   8.479   1.262  14.940  0.2561  0.0949 -1.9653
  169DOPC   H3S20531   8.510   1.344  15.093 -2.1500  0.0208  0.4261
  169DOPC   C2420532   8.639   1.409  14.934 -0.3242  0.7508 -0.3054
  169DOPC   H4R20533   8.636   1.520  14.938 -2.2796  0.6835  1.3698
  169DOPC   H4S20534   8.659   1.383  14.828 -0.8532  0.7929 -0.4148
  169DOPC   C2520535   8.764   1.359  15.015  0.3343  0.4211  0.2505
  169DOPC   H5R20536   8.763   1.248  15.017  0.2376  0.3044 -2.2721
  169DOPC   H5S20537   8.751   1.389  15.121  2.4260  1.8179  0.1766
  169DOPC   C2620538   8.898   1.420  14.965 -0.2848  0.0017  0.0485
  169DOPC   H6R20539   8.890   1.531  14.970 -2.1654 -0.1548  2.7929
  169DOPC   H6S20540   8.916   1.397  14.858  1.9604 -0.8767  0.5596
  169DOPC   C2720541   9.024   1.380  15.052 -0.3092 -0.2920 -0.0306
  169DOPC   H7R20542   9.050   1.276  15.024  1.8980  0.2025  0.0362
  169DOPC   H7S20543   8.995   1.374  15.159  1.0340 -2.6257  0.2758
  169DOPC   C2820544   9.161   1.459  15.022  0.2114 -0.7090 -0.3724
  169DOPC   H8R20545   9.219   1.445  15.115  2.7723  5.6624 -0.5077
  169DOPC   H8S20546   9.142   1.568  15.005  0.1303 -0.9639 -2.1164
  169DOPC   C2920547   9.245   1.394  14.918 -0.0393  0.6751  0.1499
  169DOPC   H9R20548   9.286   1.296  14.944 -0.7317 -0.0591 -1.4177
  169DOPC  C21020549   9.317   1.462  14.825 -0.1609  0.2881  0.2189
  169DOPC  H10R20550   9.394   1.404  14.772  0.5136  1.0803  0.3143
  169DOPC  C21120551   9.298   1.602  14.777 -0.8524 -0.3799 -0.2918
  169DOPC  H11R20552   9.398   1.636  14.744 -1.0939 -1.5420 -2.4127
  169DOPC  H11S20553   9.268   1.666  14.863  2.5520  2.3930 -0.9239
  169DOPC  C21220554   9.216   1.625  14.651  0.3911 -0.2459  0.1660
  169DOPC  H12R20555   9.216   1.734  14.629  0.8023 -0.1943  0.4185
  169DOPC  H12S20556   9.110   1.597  14.667  0.2492  0.9897  1.5641
  169DOPC  C21320557   9.263   1.553  14.525  0.0774 -0.3910 -1.0768
  169DOPC  H13R20558   9.253   1.443  14.540 -3.6786 -0.0849 -0.2946
  169DOPC  H13S20559   9.370   1.577  14.507 -0.1780 -0.4268 -2.8003
  169DOPC  C21420560   9.197   1.603  14.400 -0.1114 -0.4367  0.0925
  169DOPC  H14R20561   9.236   1.703  14.371 -0.4568 -0.5991 -0.9748
  169DOPC  H14S20562   9.096   1.634  14.433  0.8663  2.1478  0.9208
  169DOPC  C21520563   9.197   1.508  14.284  0.7091 -0.3064 -0.5637
  169DOPC  H15R20564   9.130   1.548  14.204 -0.5887 -0.4214  0.4439
  169DOPC  H15S20565   9.136   1.420  14.313 -0.3101  0.5847  0.0566
  169DOPC  C21620566   9.331   1.466  14.226  0.4731  0.0094 -0.1019
  169DOPC  H16R20567   9.386   1.404  14.300 -0.4547  0.4139  0.9558
  169DOPC  H16S20568   9.375   1.567  14.215  1.1806 -0.3497 -0.6683
  169DOPC  C21720569   9.325   1.395  14.090 -0.4480  0.3361 -0.0320
  169DOPC  H17R20570   9.252   1.445  14.023 -0.3171  1.8621  0.8959
  169DOPC  H17S20571   9.289   1.291  14.104  0.2389  0.2678  1.4683
  169DOPC  C21820572   9.461   1.386  14.024 -0.1237  0.2049  0.7468
  169DOPC  H18R20573   9.500   1.490  14.011 -0.0179  0.1869  0.9226
  169DOPC  H18S20574   9.451   1.343  13.922  0.9612 -0.7604  1.0245
  169DOPC  H18T20575   9.539   1.323  14.072  0.6156  0.3216 -0.2582
  169DOPC   C3320576   7.906   1.304  15.092 -0.2154 -0.0328  0.1666
  169DOPC   H3X20577   7.896   1.194  15.076 -0.5831 -0.2748  1.8538
  169DOPC   H3Y20578   8.007   1.336  15.059 -0.5045  1.7589  0.9350
  169DOPC   C3420579   7.810   1.374  14.998  0.5747 -0.0962  0.9276
  169DOPC   H4X20580   7.792   1.477  15.037 -2.6007  0.0067 -0.4941
  169DOPC   H4Y20581   7.709   1.327  15.002  0.7794 -0.7325 -0.6182
  169DOPC   C3520582   7.869   1.383  14.858  0.3824  0.2197 -0.7060
  169DOPC   H5X20583   7.783   1.421  14.799  0.0520 -0.3110 -0.5767
  169DOPC   H5Y20584   7.911   1.284  14.831  0.1249 -0.9192  2.5569
  169DOPC   C3620585   7.979   1.470  14.831  0.3819  0.1780  0.1114
  169DOPC   H6X20586   7.943   1.566  14.874 -0.9606 -1.0364  1.8066
  169DOPC   H6Y20587   8.071   1.442  14.887 -0.3342 -2.3920  0.1071
  169DOPC   C3720588   8.012   1.484  14.679 -0.3235  0.3249 -0.6573
  169DOPC   H7X20589   8.046   1.387  14.638  2.3543  0.0600  1.8604
  169DOPC   H7Y20590   7.931   1.540  14.628  0.5825  1.8539 -0.4960
  169DOPC   C3820591   8.137   1.570  14.646  0.3041 -0.2736  0.2468
  169DOPC   H8X20592   8.230   1.526  14.687  0.2929 -0.7137 -0.1780
  169DOPC   H8Y20593   8.137   1.669  14.695 -0.4093 -0.9896  1.7576
  169DOPC   C3920594   8.153   1.599  14.496 -0.3860  0.2929  0.2774
  169DOPC   H9X20595   8.061   1.612  14.435 -0.3262 -1.1821 -0.1704
  169DOPC  C31020596   8.276   1.624  14.444  0.1665 -0.2022  0.0455
  169DOPC  H10X20597   8.294   1.636  14.336 -0.0478  2.1111  0.2110
  169DOPC  C31120598   8.414   1.616  14.514  0.4796  0.3651  0.3566
  169DOPC  H11X20599   8.388   1.623  14.622  0.1474 -1.1386  0.3936
  169DOPC  H11Y20600   8.469   1.708  14.483 -1.4660  0.8434 -2.0530
  169DOPC  C31220601   8.480   1.478  14.488  0.7253 -0.0268  0.2744
  169DOPC  H12X20602   8.502   1.462  14.380 -0.9111 -0.5394 -0.0145
  169DOPC  H12Y20603   8.406   1.407  14.530  1.3840  0.1643  1.8101
  169DOPC  C31320604   8.609   1.463  14.566 -0.5432 -0.6184  0.5901
  169DOPC  H13X20605   8.685   1.530  14.519 -2.9066  3.9717  2.6861
  169DOPC  H13Y20606   8.590   1.483  14.673 -2.5021  1.7274 -0.0901
  169DOPC  C31420607   8.664   1.321  14.552 -0.3783  0.0029 -0.0369
  169DOPC  H14X20608   8.725   1.288  14.638 -0.8712 -0.3630  0.1777
  169DOPC  H14Y20609   8.576   1.254  14.553 -0.5299  0.1914  1.5935
  169DOPC  C31520610   8.747   1.298  14.430 -0.3571 -0.4006  0.3185
  169DOPC  H15X20611   8.824   1.379  14.426  0.4433 -1.0947  1.1949
  169DOPC  H15Y20612   8.684   1.315  14.340 -0.8047  0.1369  0.7364
  169DOPC  C31620613   8.812   1.161  14.428  0.1586 -0.0152 -0.8170
  169DOPC  H16X20614   8.871   1.153  14.522 -1.9794 -1.2154  0.5075
  169DOPC  H16Y20615   8.731   1.088  14.445 -0.9809  1.4424  0.3681
  169DOPC  C31720616   8.881   1.131  14.303 -0.9495  0.3990  0.1039
  169DOPC  H17X20617   8.819   1.134  14.212  1.7910 -0.4572 -1.9140
  169DOPC  H17Y20618   8.959   1.211  14.294 -0.3051 -0.2216  0.1183
  169DOPC  C31820619   8.970   1.007  14.310  0.2372 -0.2219 -0.3526
  169DOPC  H18X20620   9.038   1.009  14.397  0.9151  0.4880 -0.8814
  169DOPC  H18Y20621   8.917   0.910  14.321  0.1190  0.0035  1.1652
  169DOPC  H18Z20622   9.031   1.009  14.217 -0.5200 -0.2361 -0.8640
  170DOPC     N20623   7.121   5.950  16.241  1.3269  0.3356  0.0260
  170DOPC   C1220624   7.125   5.843  16.138 -0.0573 -0.3313 -0.3275
  170DOPC  H12A20625   7.021   5.817  16.125 -0.8589  1.3728  2.0116
  170DOPC  H12B20626   7.167   5.749  16.171 -0.9013 -0.7002 -0.2767
  170DOPC   C1320627   7.046   6.074  16.202 -0.3276 -0.1006 -0.8642
  170DOPC  H13A20628   6.941   6.066  16.181 -0.1973 -2.4934 -0.9240
  170DOPC  H13B20629   7.068   6.147  16.279 -1.7794 -0.1009 -0.4226
  170DOPC  H13C20630   7.080   6.130  16.117  0.5869 -0.9484 -1.0791
  170DOPC   C1420631   7.256   5.984  16.276  0.0113 -0.6334  0.7077
  170DOPC  H14A20632   7.262   6.039  16.368 -0.5142 -3.2301  2.3748
  170DOPC  H14B20633   7.315   5.897  16.297 -1.8510 -1.5845  2.3411
  170DOPC  H14C20634   7.317   6.026  16.197  0.9812  1.4507  2.4559
  170DOPC   C1520635   7.046   5.899  16.362 -0.0135  0.4863 -0.0342
  170DOPC  H15A20636   6.956   5.843  16.339 -0.3705  0.9535  0.2250
  170DOPC  H15B20637   7.016   5.976  16.431  2.8659  0.9381  0.8692
  170DOPC  H15C20638   7.109   5.829  16.415 -0.6549 -1.1858 -1.3726
  170DOPC   C1120639   7.208   5.874  16.003 -0.3153 -0.2868  0.1283
  170DOPC  H11A20640   7.176   5.800  15.927 -0.8957 -0.0246  0.1147
  170DOPC  H11B20641   7.183   5.976  15.967  1.2222 -0.9014 -3.0508
  170DOPC     P20642   7.422   5.736  16.008 -0.0527 -0.3209 -0.0974
  170DOPC   O1320643   7.362   5.646  16.110 -0.2679  0.1020  0.0928
  170DOPC   O1420644   7.564   5.773  16.007 -0.3441  0.4321  0.0841
  170DOPC   O1220645   7.350   5.873  16.022 -0.0480  0.1222 -0.1688
  170DOPC   O1120646   7.387   5.694  15.859  0.0661 -0.2258 -0.3212
  170DOPC    C120647   7.428   5.776  15.749  0.1215  0.5291  0.3960
  170DOPC    HA20648   7.471   5.714  15.668 -0.0725  1.2510 -0.2678
  170DOPC    HB20649   7.507   5.851  15.770  0.8759  0.4396 -1.8434
  170DOPC    C220650   7.307   5.850  15.687 -0.3135 -0.9256 -0.6914
  170DOPC    HS20651   7.264   5.918  15.763 -1.3013  0.8467 -2.7317
  170DOPC   O2120652   7.212   5.746  15.652 -0.0697 -0.1633  0.0363
  170DOPC   C2120653   7.087   5.773  15.659 -0.3356  0.4767 -0.9705
  170DOPC   O2220654   7.038   5.868  15.721  0.0073 -0.9548  0.3521
  170DOPC   C2220655   7.003   5.679  15.569  0.8486 -0.6864 -0.2684
  170DOPC   H2R20656   6.914   5.637  15.621  0.0588  0.1259 -0.9286
  170DOPC   H2S20657   7.075   5.598  15.545  0.4290 -1.4432  0.9131
  170DOPC    C320658   7.340   5.936  15.558  0.2117 -0.3896 -0.3361
  170DOPC    HX20659   7.250   5.983  15.514  1.4509  2.1374 -0.3200
  170DOPC    HY20660   7.387   5.866  15.485 -2.0551 -1.1214 -1.1920
  170DOPC   O3120661   7.434   6.032  15.586 -0.3887 -0.2504  0.0842
  170DOPC   C3120662   7.388   6.146  15.641  0.1083  0.0729  0.0030
  170DOPC   O3220663   7.270   6.177  15.640  0.1012 -0.5844  0.2336
  170DOPC   C3220664   7.505   6.232  15.683 -0.1491 -0.1424 -0.4760
  170DOPC   H2X20665   7.513   6.238  15.794 -0.8288 -0.5456 -0.3986
  170DOPC   H2Y20666   7.599   6.181  15.651 -0.5454  0.1153 -2.1185
  170DOPC   C2320667   6.950   5.756  15.453  0.1189 -0.1235 -0.1195
  170DOPC   H3R20668   7.033   5.828  15.433 -0.7671  1.9300  2.8237
  170DOPC   H3S20669   6.857   5.812  15.478  0.0546 -0.7518  1.1082
  170DOPC   C2420670   6.925   5.681  15.325  0.3003  0.2766  0.0107
  170DOPC   H4R20671   6.847   5.603  15.340  0.3151  0.2664  0.0351
  170DOPC   H4S20672   7.022   5.643  15.288  0.7627  0.9813  0.4841
  170DOPC   C2520673   6.871   5.775  15.220  0.1023 -0.1207 -0.1676
  170DOPC   H5R20674   6.936   5.866  15.218  0.3163 -0.2819 -2.2207
  170DOPC   H5S20675   6.768   5.805  15.250 -0.6484 -1.3099 -1.4593
  170DOPC   C2620676   6.861   5.716  15.077 -0.4059 -0.2556  0.1422
  170DOPC   H6R20677   6.799   5.790  15.022  0.2562 -0.0930 -0.4025
  170DOPC   H6S20678   6.793   5.631  15.097 -1.2614 -0.4114 -2.8671
  170DOPC   C2720679   6.991   5.661  15.018  0.0036 -0.2341 -0.1017
  170DOPC   H7R20680   7.021   5.563  15.061  1.9763  0.5079  0.3314
  170DOPC   H7S20681   7.079   5.726  15.039  1.4011 -2.4073  1.1741
  170DOPC   C2820682   6.978   5.656  14.864 -0.0571 -0.4131 -0.5389
  170DOPC   H8R20683   7.080   5.650  14.820 -0.0653 -2.2146 -0.3660
  170DOPC   H8S20684   6.938   5.754  14.828  0.2348 -0.5726 -1.3197
  170DOPC   C2920685   6.887   5.541  14.817 -0.3517  0.2869 -0.5234
  170DOPC   H9R20686   6.778   5.555  14.816 -0.2700  1.0262  0.0051
  170DOPC  C21020687   6.936   5.422  14.788  0.3514  0.0095  0.0669
  170DOPC  H10R20688   6.869   5.340  14.758  1.2007 -1.8607  2.8727
  170DOPC  C21120689   7.079   5.363  14.806  0.4938 -0.2074 -0.7857
  170DOPC  H11R20690   7.088   5.264  14.856  4.2426 -0.1573 -1.1096
  170DOPC  H11S20691   7.148   5.427  14.865  1.4574 -2.0894  0.2280
  170DOPC  C21220692   7.151   5.342  14.676  0.0072 -0.2052 -0.2519
  170DOPC  H12R20693   7.164   5.439  14.625 -1.4779 -1.3760 -3.1427
  170DOPC  H12S20694   7.084   5.283  14.609  0.9535 -0.7676 -0.7239
  170DOPC  C21320695   7.295   5.284  14.685 -0.2822 -0.1371 -0.5573
  170DOPC  H13R20696   7.289   5.186  14.736  0.8560  0.3093  0.4938
  170DOPC  H13S20697   7.364   5.341  14.751  1.2428 -4.5531  2.0892
  170DOPC  C21420698   7.362   5.274  14.547  0.1355  0.0134 -0.3675
  170DOPC  H14R20699   7.468   5.248  14.563  0.3843  1.3858  0.3400
  170DOPC  H14S20700   7.369   5.372  14.495 -0.7646 -1.2905 -3.1129
  170DOPC  C21520701   7.292   5.179  14.448 -0.0141 -0.5280 -0.6022
  170DOPC  H15R20702   7.335   5.190  14.346  0.1588  0.8638 -0.3954
  170DOPC  H15S20703   7.184   5.206  14.447 -0.0919 -0.4590  1.9353
  170DOPC  C21620704   7.302   5.032  14.493 -0.2743 -0.5348 -0.7339
  170DOPC  H16R20705   7.238   5.004  14.580  0.7972 -2.6554 -0.5495
  170DOPC  H16S20706   7.406   5.013  14.527 -0.7056  1.5353  2.0973
  170DOPC  C21720707   7.268   4.943  14.367 -0.5425  0.2008 -0.3436
  170DOPC  H17R20708   7.289   4.844  14.411  0.2115 -0.3272 -1.8194
  170DOPC  H17S20709   7.332   4.962  14.278 -0.2823  2.7443  0.2974
  170DOPC  C21820710   7.132   4.937  14.314  0.8491  0.0623 -0.8940
  170DOPC  H18R20711   7.091   5.032  14.272  1.8153  0.7706 -0.2957
  170DOPC  H18S20712   7.065   4.896  14.393 -0.4419  1.7561 -1.0293
  170DOPC  H18T20713   7.120   4.863  14.233  0.4468 -0.0026 -0.7805
  170DOPC   C3320714   7.502   6.368  15.623  0.3817 -0.2994  0.2249
  170DOPC   H3X20715   7.582   6.428  15.672  0.5039  0.0882 -0.4287
  170DOPC   H3Y20716   7.407   6.418  15.651  0.4177  0.3381 -0.7473
  170DOPC   C3420717   7.523   6.383  15.469 -0.0977  0.0797 -0.3293
  170DOPC   H4X20718   7.447   6.333  15.405 -0.9545  0.9137  0.0150
  170DOPC   H4Y20719   7.622   6.334  15.451  0.4855  1.1386 -0.1049
  170DOPC   C3520720   7.549   6.531  15.432  0.1250  0.4564  0.3729
  170DOPC   H5X20721   7.632   6.572  15.493  0.7795 -0.0829 -0.1419
  170DOPC   H5Y20722   7.455   6.585  15.458  0.2640  0.0504  1.8348
  170DOPC   C3620723   7.577   6.561  15.285  0.6171 -0.0054  0.3502
  170DOPC   H6X20724   7.565   6.670  15.266 -1.0483 -0.0608  0.9235
  170DOPC   H6Y20725   7.680   6.526  15.261  1.5357  2.6340  0.0644
  170DOPC   C3720726   7.481   6.495  15.177 -0.0044  0.2310 -0.6437
  170DOPC   H7X20727   7.489   6.384  15.185 -1.1921  0.1875  0.3062
  170DOPC   H7Y20728   7.373   6.506  15.200 -0.6927 -0.9056 -2.9872
  170DOPC   C3820729   7.519   6.544  15.037 -0.1215 -0.6315  0.9625
  170DOPC   H8X20730   7.620   6.504  15.011  0.1259 -0.5733  1.8260
  170DOPC   H8Y20731   7.522   6.655  15.038 -3.1159 -0.3131 -2.3967
  170DOPC   C3920732   7.427   6.509  14.927  0.4235  0.5785 -0.4173
  170DOPC   H9X20733   7.327   6.521  14.970  1.2222  1.6243  1.2586
  170DOPC  C31020734   7.449   6.451  14.809  0.4797 -0.3685  0.2789
  170DOPC  H10X20735   7.356   6.417  14.761  0.1683 -0.2567  0.7985
  170DOPC  C31120736   7.579   6.431  14.735 -0.1351  0.5540 -0.0870
  170DOPC  H11X20737   7.658   6.472  14.801 -1.1389  0.6905  1.0766
  170DOPC  H11Y20738   7.572   6.484  14.638  1.1421  0.1162 -0.4292
  170DOPC  C31220739   7.599   6.281  14.707  0.3015  0.8132 -0.3677
  170DOPC  H12X20740   7.526   6.242  14.633  0.4322  0.6852 -0.4292
  170DOPC  H12Y20741   7.575   6.225  14.800 -1.6672  1.8161 -0.2169
  170DOPC  C31320742   7.744   6.237  14.669  0.6208 -0.2357 -0.4030
  170DOPC  H13X20743   7.775   6.312  14.593  1.0558  1.3436  1.2386
  170DOPC  H13Y20744   7.812   6.275  14.748 -0.0978  1.8502 -0.7208
  170DOPC  C31420745   7.769   6.093  14.641 -0.9228 -0.4069 -0.3453
  170DOPC  H14X20746   7.875   6.076  14.613  0.0073  2.8181  0.7747
  170DOPC  H14Y20747   7.746   6.033  14.732 -3.0154 -1.7339 -1.6566
  170DOPC  C31520748   7.678   6.033  14.529  0.3013 -0.0065 -0.0111
  170DOPC  H15X20749   7.572   6.032  14.561 -0.1094 -1.6710 -1.2796
  170DOPC  H15Y20750   7.706   5.928  14.505 -0.4091  0.4841 -3.6765
  170DOPC  C31620751   7.684   6.122  14.398 -0.2054 -0.2270 -0.7107
  170DOPC  H16X20752   7.662   6.228  14.424  1.4269  0.4520 -1.9076
  170DOPC  H16Y20753   7.789   6.131  14.363  0.8737  2.1081  2.6204
  170DOPC  C31720754   7.597   6.078  14.287 -0.2839  0.3837 -0.5942
  170DOPC  H17X20755   7.592   5.967  14.284 -1.9630  0.4113  0.2698
  170DOPC  H17Y20756   7.496   6.116  14.315 -1.2200 -0.7589 -2.2561
  170DOPC  C31820757   7.641   6.126  14.149 -0.4125 -0.3618  0.0754
  170DOPC  H18X20758   7.562   6.120  14.072  0.0145  0.4987 -0.4459
  170DOPC  H18Y20759   7.665   6.235  14.154  0.4516 -0.5008 -0.8748
  170DOPC  H18Z20760   7.729   6.069  14.113  2.3351  3.4430  0.1693
  171DOPC     N20761   5.509   4.277  11.931  0.1210  0.5201 -0.2797
  171DOPC   C1220762   5.545   4.411  11.990  0.0971  0.6420 -0.3108
  171DOPC  H12A20763   5.455   4.463  12.018 -0.0245 -0.3560  1.2596
  171DOPC  H12B20764   5.587   4.474  11.913 -0.5267 -0.0908 -1.2801
  171DOPC   C1320765   5.481   4.166  12.024 -0.2934  0.4994  0.3579
  171DOPC  H13A20766   5.550   4.178  12.107 -0.2113  1.0827  0.2048
  171DOPC  H13B20767   5.379   4.170  12.059 -0.2106 -1.2668  0.9509
  171DOPC  H13C20768   5.494   4.072  11.972 -2.7449  0.3444 -0.1204
  171DOPC   C1420769   5.616   4.221  11.846  0.2170  0.1176  0.6046
  171DOPC  H14A20770   5.685   4.154  11.895  0.3218 -0.7831 -0.7137
  171DOPC  H14B20771   5.566   4.155  11.776 -2.4176 -0.1676  2.5822
  171DOPC  H14C20772   5.674   4.302  11.804  1.8005 -1.4394 -0.3788
  171DOPC   C1520773   5.386   4.300  11.842 -0.1953  0.1226 -0.2278
  171DOPC  H15A20774   5.303   4.331  11.904  1.1587  0.5307  1.4585
  171DOPC  H15B20775   5.346   4.213  11.792 -0.2334  0.6115 -1.0660
  171DOPC  H15C20776   5.409   4.371  11.765  1.4596 -0.9909 -0.8014
  171DOPC   C1120777   5.631   4.409  12.120  0.6760  0.1860 -0.1863
  171DOPC  H11A20778   5.630   4.513  12.158 -0.1098 -0.3318  1.2734
  171DOPC  H11B20779   5.582   4.346  12.197  0.2235  2.2654  1.2822
  171DOPC     P20780   5.882   4.418  12.186 -0.1076 -0.0438  0.0109
  171DOPC   O1320781   5.917   4.558  12.149 -0.1306  0.0980  0.0255
  171DOPC   O1420782   5.985   4.315  12.176  0.1611 -0.1036 -0.2805
  171DOPC   O1220783   5.765   4.362  12.100  0.0351 -0.7677  0.0254
  171DOPC   O1120784   5.823   4.425  12.332  0.0138  0.6576  0.0846
  171DOPC    C120785   5.904   4.441  12.445 -0.9582  0.2409 -0.3344
  171DOPC    HA20786   5.953   4.540  12.437  2.4179 -0.7698  3.9935
  171DOPC    HB20787   5.986   4.366  12.448  0.4545  1.6172 -1.9736
  171DOPC    C220788   5.809   4.432  12.562  0.4407 -0.6853 -0.2283
  171DOPC    HS20789   5.861   4.498  12.635  1.7051 -0.9670 -0.8614
  171DOPC   O2120790   5.793   4.294  12.609  0.0071  0.8724  0.1940
  171DOPC   C2120791   5.892   4.249  12.683  0.3375  0.4839  0.4763
  171DOPC   O2220792   5.995   4.311  12.704 -0.9130 -0.0568 -0.0322
  171DOPC   C2220793   5.872   4.113  12.731  0.2574  0.4488 -0.5929
  171DOPC   H2R20794   5.914   4.103  12.833  2.0717  0.0183 -1.3309
  171DOPC   H2S20795   5.932   4.039  12.673  0.1630 -1.2198  1.3346
  171DOPC    C320796   5.673   4.493  12.525 -0.7494 -0.2903 -0.2926
  171DOPC    HX20797   5.615   4.432  12.452 -4.3152  0.0788  1.9618
  171DOPC    HY20798   5.679   4.597  12.487 -1.8992  0.7898  2.2518
  171DOPC   O3120799   5.583   4.498  12.637 -0.0144 -0.3668  0.1790
  171DOPC   C3120800   5.612   4.580  12.730  0.7276  0.4159 -0.0067
  171DOPC   O3220801   5.700   4.663  12.729  0.4742 -0.2981 -0.1605
  171DOPC   C3220802   5.510   4.564  12.841  0.2156  0.4189  0.5213
  171DOPC   H2X20803   5.419   4.621  12.814  0.9660  1.7060  0.6677
  171DOPC   H2Y20804   5.482   4.457  12.853  0.7161 -0.2400 -2.9942
  171DOPC   C2320805   5.731   4.046  12.731  0.1112  0.1852  0.0836
  171DOPC   H3R20806   5.738   3.943  12.771  0.9836  1.5516  3.8369
  171DOPC   H3S20807   5.687   4.065  12.631 -3.2951 -0.8645  1.2500
  171DOPC   C2420808   5.632   4.112  12.832 -0.5466  0.3378  0.0096
  171DOPC   H4R20809   5.629   4.221  12.810  2.3328  0.8607  1.6402
  171DOPC   H4S20810   5.671   4.095  12.934 -0.0061  1.5724  0.0286
  171DOPC   C2520811   5.490   4.073  12.821  0.4729  0.4646  0.2257
  171DOPC   H5R20812   5.452   4.074  12.716 -0.8982 -0.6053  0.6712
  171DOPC   H5S20813   5.430   4.152  12.871 -2.2296 -0.5540 -1.1899
  171DOPC   C2620814   5.452   3.933  12.876 -0.9662  0.3065  0.1487
  171DOPC   H6R20815   5.444   3.943  12.987 -1.6121  2.0008 -0.0303
  171DOPC   H6S20816   5.538   3.863  12.864 -1.9813 -0.7852 -1.0971
  171DOPC   C2720817   5.332   3.868  12.825 -0.3470 -0.4156  0.0930
  171DOPC   H7R20818   5.360   3.761  12.828  0.1461 -0.3764 -1.6977
  171DOPC   H7S20819   5.321   3.903  12.720 -0.8997 -1.5832 -0.2510
  171DOPC   C2820820   5.206   3.906  12.907 -0.2781 -0.2432  0.2879
  171DOPC   H8R20821   5.194   4.016  12.899  3.4568  0.4008  1.5284
  171DOPC   H8S20822   5.216   3.894  13.017 -1.9204 -0.2212  0.4682
  171DOPC   C2920823   5.074   3.844  12.871 -0.4935  0.2282  0.0247
  171DOPC   H9R20824   5.037   3.886  12.776 -0.2545  0.1008 -0.1268
  171DOPC  C21020825   4.994   3.770  12.947 -0.9122  0.9956 -0.1077
  171DOPC  H10R20826   4.888   3.759  12.921 -1.4517  0.5629  2.1311
  171DOPC  C21120827   5.035   3.704  13.080 -0.3158  0.3738  0.4471
  171DOPC  H11R20828   5.141   3.717  13.108 -0.3393  1.7834 -0.0805
  171DOPC  H11S20829   5.018   3.594  13.069  2.1310 -0.1745  1.5512
  171DOPC  C21220830   4.945   3.753  13.196 -0.5738  0.6848  0.7987
  171DOPC  H12R20831   4.971   3.673  13.269 -1.3810 -0.1940  0.1527
  171DOPC  H12S20832   4.840   3.742  13.163 -0.3785 -0.2823  0.4459
  171DOPC  C21320833   4.971   3.895  13.244  0.4336 -0.3683  0.3158
  171DOPC  H13R20834   4.945   3.970  13.167 -0.0945  1.5088  2.2045
  171DOPC  H13S20835   5.080   3.906  13.263  0.5791  0.0690 -0.7661
  171DOPC  C21420836   4.892   3.925  13.374 -0.6366  0.1148  0.4884
  171DOPC  H14R20837   4.782   3.926  13.358 -1.1159  0.2407  3.2037
  171DOPC  H14S20838   4.919   4.031  13.396  0.1180 -0.4854  2.7255
  171DOPC  C21520839   4.913   3.832  13.487 -0.1746 -0.4314 -0.2298
  171DOPC  H15R20840   5.021   3.824  13.513 -0.3733  1.1616  1.2346
  171DOPC  H15S20841   4.860   3.734  13.482 -0.3685 -0.3370  0.0163
  171DOPC  C21620842   4.850   3.893  13.617 -0.4226  0.3276 -1.2410
  171DOPC  H16R20843   4.747   3.920  13.586 -1.1167 -0.5861  0.1801
  171DOPC  H16S20844   4.915   3.981  13.635 -0.8290  0.4356 -0.2205
  171DOPC  C21720845   4.845   3.786  13.729  0.7223  0.1036  0.0865
  171DOPC  H17R20846   4.838   3.836  13.828 -0.3168  0.9674 -0.3990
  171DOPC  H17S20847   4.944   3.736  13.721  2.4989  3.3268  0.1725
  171DOPC  C21820848   4.722   3.697  13.711 -0.3764 -0.2054 -0.2637
  171DOPC  H18R20849   4.719   3.618  13.789  1.7314 -1.3902 -1.2946
  171DOPC  H18S20850   4.735   3.657  13.608  0.0792  1.6073 -0.9479
  171DOPC  H18T20851   4.632   3.760  13.730  0.1433  0.5724 -0.3446
  171DOPC   C3320852   5.563   4.590  12.988  0.3097  0.0160 -0.1083
  171DOPC   H3X20853   5.482   4.629  13.054 -1.4465 -2.8192 -0.4120
  171DOPC   H3Y20854   5.645   4.664  12.989  1.7049 -1.4823  0.2212
  171DOPC   C3420855   5.598   4.460  13.060 -0.2010 -0.2096 -0.4998
  171DOPC   H4X20856   5.687   4.427  13.002 -0.5047 -0.8380 -0.6193
  171DOPC   H4Y20857   5.508   4.395  13.056 -0.0361 -0.6600  1.9931
  171DOPC   C3520858   5.612   4.474  13.219  0.0806 -0.0738  0.0109
  171DOPC   H5X20859   5.620   4.372  13.261  2.2506 -0.4729 -1.2207
  171DOPC   H5Y20860   5.514   4.514  13.251  0.2882 -1.1149  2.1343
  171DOPC   C3620861   5.712   4.568  13.262  0.0370  0.0381 -0.8968
  171DOPC   H6X20862   5.819   4.536  13.259  0.3404  1.0007 -0.6816
  171DOPC   H6Y20863   5.713   4.656  13.194 -1.0363 -0.4193 -1.5255
  171DOPC   C3720864   5.689   4.604  13.412 -0.2056  0.0212  0.4771
  171DOPC   H7X20865   5.773   4.674  13.431 -0.4950  0.2741  0.8457
  171DOPC   H7Y20866   5.592   4.657  13.420 -0.8037 -1.2501  2.4383
  171DOPC   C3820867   5.702   4.486  13.506  0.4124 -0.2311 -0.1871
  171DOPC   H8X20868   5.755   4.412  13.442 -0.4152 -0.9352 -0.0657
  171DOPC   H8Y20869   5.603   4.439  13.521 -0.0439  0.8814  0.3720
  171DOPC   C3920870   5.769   4.485  13.642 -1.0287  0.0615  1.0276
  171DOPC   H9X20871   5.817   4.389  13.666  1.8671  0.3314 -2.7140
  171DOPC  C31020872   5.758   4.581  13.738 -0.5285  0.5244 -0.6804
  171DOPC  H10X20873   5.800   4.555  13.836 -0.1379 -2.2314 -1.5005
  171DOPC  C31120874   5.704   4.720  13.733  0.0622  0.3789 -0.3139
  171DOPC  H11X20875   5.615   4.736  13.797 -0.4569 -2.6608 -0.1445
  171DOPC  H11Y20876   5.687   4.754  13.628 -0.4186  0.5611 -0.1790
  171DOPC  C31220877   5.807   4.817  13.791 -0.1559 -0.1755 -0.4981
  171DOPC  H12X20878   5.829   4.781  13.893 -0.1115 -0.5799 -0.6502
  171DOPC  H12Y20879   5.772   4.922  13.807  1.4671  0.4019 -0.5192
  171DOPC  C31320880   5.935   4.842  13.717  0.2954 -0.9069  0.2408
  171DOPC  H13X20881   6.007   4.758  13.723 -0.4139 -1.4379  1.7636
  171DOPC  H13Y20882   5.907   4.860  13.611 -0.1511 -0.7126  0.3881
  171DOPC  C31420883   6.012   4.967  13.769  0.2964  0.1826  0.4171
  171DOPC  H14X20884   5.959   5.065  13.768  2.4127  1.3935  1.0570
  171DOPC  H14Y20885   6.046   4.948  13.873  1.5654 -0.2239 -0.0590
  171DOPC  C31520886   6.147   4.983  13.693  0.2606 -0.4841 -0.4008
  171DOPC  H15X20887   6.135   5.028  13.592  0.4971  2.7771  0.9080
  171DOPC  H15Y20888   6.202   4.886  13.687 -0.0518 -0.6529 -0.5252
  171DOPC  C31620889   6.258   5.063  13.781 -0.3246  0.1500  0.6681
  171DOPC  H16X20890   6.203   5.149  13.824 -0.0226  0.3627  0.6281
  171DOPC  H16Y20891   6.292   4.993  13.860 -0.4884  1.1673  1.6545
  171DOPC  C31720892   6.370   5.100  13.679 -0.0317  0.2830 -0.0052
  171DOPC  H17X20893   6.379   5.016  13.607  0.2998  1.3363 -1.2119
  171DOPC  H17Y20894   6.320   5.186  13.630 -0.6340 -0.3164 -0.4614
  171DOPC  C31820895   6.505   5.125  13.746  0.8575 -0.4809 -0.1349
  171DOPC  H18X20896   6.491   5.194  13.832 -2.9462 -2.0866  0.7061
  171DOPC  H18Y20897   6.566   5.048  13.797  1.7172  1.5511  2.1244
  171DOPC  H18Z20898   6.558   5.171  13.659 -2.0192  2.4472 -0.5191
  172DOPC     N20899   6.251   5.127  12.153 -0.2326  0.6408  0.2270
  172DOPC   C1220900   6.114   5.195  12.144  0.1200  0.0680  0.2022
  172DOPC  H12A20901   6.040   5.117  12.131  0.1317 -0.0402  0.7762
  172DOPC  H12B20902   6.122   5.249  12.051  2.0674 -1.1401 -0.4041
  172DOPC   C1320903   6.276   5.084  12.290  0.7193  0.0294 -0.1770
  172DOPC  H13A20904   6.190   5.033  12.329  0.4030 -0.0114 -0.9120
  172DOPC  H13B20905   6.364   5.022  12.302  0.4688 -0.8861 -2.4727
  172DOPC  H13C20906   6.288   5.172  12.351 -1.0710  0.3721 -0.2896
  172DOPC   C1420907   6.356   5.214  12.106 -0.0963  0.1011  0.1767
  172DOPC  H14A20908   6.451   5.164  12.110 -0.7521 -1.1512  0.4747
  172DOPC  H14B20909   6.341   5.245  12.004 -0.7135  0.6990  0.4393
  172DOPC  H14C20910   6.358   5.301  12.171 -1.1310 -0.3267  0.8040
  172DOPC   C1520911   6.247   5.002  12.064  0.0012  0.3064 -0.2228
  172DOPC  H15A20912   6.336   4.944  12.087  0.1579  1.1876  1.5993
  172DOPC  H15B20913   6.244   5.034  11.962 -0.9536 -1.6960 -0.8871
  172DOPC  H15C20914   6.165   4.936  12.090 -0.2065  0.9111  0.7008
  172DOPC   C1120915   6.073   5.298  12.252 -0.4333 -0.2544 -0.0006
  172DOPC  H11A20916   6.155   5.373  12.253 -0.9566  0.3281  0.1291
  172DOPC  H11B20917   5.984   5.356  12.219 -0.8356 -0.6073  0.4669
  172DOPC     P20918   5.935   5.146  12.406 -0.0354 -0.3593 -0.7117
  172DOPC   O1320919   5.938   5.030  12.318  0.5405  0.6184 -0.6289
  172DOPC   O1420920   5.807   5.215  12.427  0.0734  0.0385 -0.1849
  172DOPC   O1220921   6.050   5.251  12.382  0.2963  0.1168  0.5794
  172DOPC   O1120922   5.972   5.080  12.547 -0.3682 -0.3416 -0.1271
  172DOPC    C120923   6.006   5.174  12.651  0.9749 -0.5498 -0.6345
  172DOPC    HA20924   5.973   5.125  12.745  0.4572 -0.4486 -0.7611
  172DOPC    HB20925   5.936   5.261  12.653 -2.2352 -2.9500  0.0901
  172DOPC    C220926   6.150   5.206  12.679  0.1490 -0.1419  0.6238
  172DOPC    HS20927   6.194   5.245  12.585  0.2062  2.2608  1.5826
  172DOPC   O2120928   6.215   5.079  12.702 -0.0925 -0.0135 -0.5639
  172DOPC   C2120929   6.337   5.073  12.670 -0.5943  0.0905  0.2833
  172DOPC   O2220930   6.406   5.171  12.644  0.1463 -0.2220  0.2265
  172DOPC   C2220931   6.387   4.933  12.666  0.2767  0.0056  0.1421
  172DOPC   H2R20932   6.307   4.864  12.633  1.5072 -1.7142  0.6019
  172DOPC   H2S20933   6.409   4.894  12.767 -1.1832  0.9839  0.8737
  172DOPC    C320934   6.167   5.312  12.789  0.0225  0.2176 -0.1357
  172DOPC    HX20935   6.276   5.332  12.801  0.5782 -2.3556 -0.3700
  172DOPC    HY20936   6.135   5.268  12.886 -0.4561  2.9788  1.0524
  172DOPC   O3120937   6.092   5.433  12.771 -0.5790 -0.3553 -0.2426
  172DOPC   C3120938   6.155   5.522  12.708 -0.0695 -0.3334  0.4087
  172DOPC   O3220939   6.263   5.515  12.649  0.0444 -0.0209 -0.0726
  172DOPC   C3220940   6.073   5.653  12.725  0.0634  0.2875  0.1518
  172DOPC   H2X20941   5.984   5.638  12.660  1.5124 -0.1419 -1.8222
  172DOPC   H2Y20942   6.040   5.664  12.831  0.0822 -3.4223  0.6535
  172DOPC   C2320943   6.499   4.907  12.567  0.1354  0.6628 -0.0413
  172DOPC   H3R20944   6.590   4.970  12.578  1.5233 -0.8484 -2.1945
  172DOPC   H3S20945   6.470   4.916  12.460  0.8205 -0.9507 -0.3970
  172DOPC   C2420946   6.566   4.763  12.583  0.1060 -0.1126 -0.0771
  172DOPC   H4R20947   6.643   4.771  12.503  1.7397  1.1771  1.5268
  172DOPC   H4S20948   6.486   4.690  12.557  0.9554 -1.2894  0.5255
  172DOPC   C2520949   6.628   4.732  12.721  0.2547  0.0903  0.3024
  172DOPC   H5R20950   6.558   4.721  12.806 -1.6738 -2.2619 -1.4489
  172DOPC   H5S20951   6.681   4.827  12.746 -1.8786  1.0312  1.5240
  172DOPC   C2620952   6.723   4.610  12.723  0.1149 -0.3087 -0.2272
  172DOPC   H6R20953   6.799   4.632  12.645  0.9605  0.7101  0.8594
  172DOPC   H6S20954   6.668   4.520  12.688 -1.9835  0.7334  0.2268
  172DOPC   C2720955   6.800   4.576  12.858 -0.2019 -0.3163  0.0574
  172DOPC   H7R20956   6.873   4.493  12.843  0.9261  0.7706 -0.6494
  172DOPC   H7S20957   6.717   4.536  12.919  0.0340 -1.4106 -0.3095
  172DOPC   C2820958   6.871   4.695  12.918  0.7868 -0.2965  0.2074
  172DOPC   H8R20959   6.800   4.774  12.952  3.3420  2.7661 -1.0838
  172DOPC   H8S20960   6.919   4.744  12.831 -0.0961  0.1743 -0.0353
  172DOPC   C2920961   6.958   4.664  13.034  0.2970  0.1615  0.2521
  172DOPC   H9R20962   6.991   4.559  13.031 -2.1732 -0.6653 -0.3657
  172DOPC  C21020963   6.969   4.739  13.149 -0.1039 -0.2622  0.3385
  172DOPC  H10R20964   7.039   4.700  13.224  1.0715 -0.4993 -0.8520
  172DOPC  C21120965   6.896   4.867  13.185  0.1835 -0.0574  0.2590
  172DOPC  H11R20966   6.805   4.841  13.243 -1.8039 -0.0309 -2.6408
  172DOPC  H11S20967   6.851   4.909  13.093  0.5270 -0.8450 -0.2798
  172DOPC  C21220968   6.989   4.978  13.255  0.1275 -0.6300 -0.3029
  172DOPC  H12R20969   6.920   5.063  13.273  0.4689 -0.4861  0.3617
  172DOPC  H12S20970   7.077   4.997  13.190  0.5915 -0.3998  0.3763
  172DOPC  C21320971   7.041   4.936  13.396 -0.0062  0.3889  0.1462
  172DOPC  H13R20972   7.070   4.829  13.394 -0.6450  0.2106 -0.7136
  172DOPC  H13S20973   6.954   4.943  13.464  0.7773  2.5521  0.9960
  172DOPC  C21420974   7.166   5.014  13.444  0.1920 -0.4116 -0.1511
  172DOPC  H14R20975   7.174   5.119  13.410  0.0295 -0.3162  0.1061
  172DOPC  H14S20976   7.255   4.966  13.398  0.8139 -0.1859  0.8075
  172DOPC  C21520977   7.195   5.000  13.596  0.9999  0.5288 -0.2988
  172DOPC  H15R20978   7.182   4.895  13.630  2.5566  0.6877  0.8810
  172DOPC  H15S20979   7.117   5.061  13.646  0.5882 -1.8752  2.1925
  172DOPC  C21620980   7.344   5.037  13.621  0.0478  0.1776 -0.3541
  172DOPC  H16R20981   7.373   5.128  13.564 -0.0763  0.4339 -0.0121
  172DOPC  H16S20982   7.400   4.947  13.588 -0.4937  0.5924 -2.6036
  172DOPC  C21720983   7.367   5.062  13.773  0.0616  0.7747  0.6946
  172DOPC  H17R20984   7.338   4.974  13.834  1.2457 -0.4777 -0.4876
  172DOPC  H17S20985   7.304   5.142  13.817  0.5727  0.9385  1.1442
  172DOPC  C21820986   7.510   5.108  13.808  0.5919 -0.4892  0.2090
  172DOPC  H18R20987   7.553   5.164  13.723 -1.7290 -0.9694 -1.3712
  172DOPC  H18S20988   7.583   5.028  13.831  0.1594 -1.5699 -1.9364
  172DOPC  H18T20989   7.508   5.185  13.888 -0.9666  0.5086 -0.7351
  172DOPC   C3320990   6.142   5.775  12.666  0.3422  0.7587 -0.3093
  172DOPC   H3X20991   6.065   5.853  12.647  0.2749  1.0400  1.0717
  172DOPC   H3Y20992   6.177   5.744  12.565 -0.7848 -0.3214 -0.3872
  172DOPC   C3420993   6.245   5.838  12.752 -0.6111  0.0058 -0.4081
  172DOPC   H4X20994   6.262   5.944  12.722 -1.3264  0.4013  0.5365
  172DOPC   H4Y20995   6.337   5.776  12.750 -2.4138 -3.0767  2.1799
  172DOPC   C3520996   6.211   5.853  12.900 -0.2387 -0.0168  0.0228
  172DOPC   H5X20997   6.218   5.755  12.952 -0.3034  0.2825  0.6001
  172DOPC   H5Y20998   6.107   5.891  12.904 -0.9639 -1.3933 -3.0179
  172DOPC   C3620999   6.299   5.956  12.983 -0.1712 -0.0073 -0.1798
  172DOPC   H6X21000   6.279   6.051  12.930 -1.8851 -0.0461  0.3391
  172DOPC   H6Y21001   6.253   5.962  13.083  1.4138 -2.7521  0.8391
  172DOPC   C3721002   6.452   5.913  12.986  0.1013 -0.2760 -0.3278
  172DOPC   H7X21003   6.459   5.806  13.018  0.1970 -0.4499 -0.9272
  172DOPC   H7Y21004   6.487   5.919  12.881 -0.0888  0.3636 -0.3558
  172DOPC   C3821005   6.541   6.013  13.067 -0.7985  0.0394  0.3875
  172DOPC   H8X21006   6.538   6.115  13.023  1.2437  0.8592  2.0358
  172DOPC   H8Y21007   6.645   5.976  13.070 -1.5640 -2.2505  1.2759
  172DOPC   C3921008   6.494   6.027  13.205  0.1368  0.0029 -0.0351
  172DOPC   H9X21009   6.395   6.076  13.203  0.7491  1.3022  0.5535
  172DOPC  C31021010   6.555   6.006  13.325 -0.0915  0.5194 -0.0456
  172DOPC  H10X21011   6.484   6.005  13.408 -1.9835 -2.6093 -1.4881
  172DOPC  C31121012   6.687   5.942  13.346  0.0635  0.1211  0.1172
  172DOPC  H11X21013   6.763   6.021  13.366  1.7456 -0.6690 -2.5964
  172DOPC  H11Y21014   6.722   5.903  13.248  0.2447 -0.6780  0.4925
  172DOPC  C31221015   6.695   5.831  13.446 -0.6065  0.3043  0.0830
  172DOPC  H12X21016   6.796   5.784  13.445 -0.8964 -0.3295 -0.3277
  172DOPC  H12Y21017   6.637   5.742  13.412  0.1550  1.1848 -4.0949
  172DOPC  C31321018   6.648   5.866  13.589 -0.4710  0.5699 -0.5415
  172DOPC  H13X21019   6.652   5.976  13.604  0.8883  0.3673  0.8745
  172DOPC  H13Y21020   6.542   5.840  13.613 -0.1451  0.8216  1.3956
  172DOPC  C31421021   6.755   5.806  13.687  0.6209 -0.2347  0.1392
  172DOPC  H14X21022   6.752   5.695  13.677  4.0317 -0.4283 -0.1248
  172DOPC  H14Y21023   6.858   5.827  13.650  1.1165 -1.8963  0.4670
  172DOPC  C31521024   6.746   5.862  13.833  0.3330 -0.6048  0.4875
  172DOPC  H15X21025   6.654   5.819  13.878 -0.3157  1.9714  1.8028
  172DOPC  H15Y21026   6.743   5.973  13.824  1.6097 -0.5999 -0.0665
  172DOPC  C31621027   6.859   5.833  13.922 -0.1888  0.1978  0.4768
  172DOPC  H16X21028   6.953   5.851  13.866  0.7574 -0.9595  1.6159
  172DOPC  H16Y21029   6.866   5.901  14.010 -0.8872  0.5516  0.2607
  172DOPC  C31721030   6.851   5.693  13.990 -0.6223  0.5988  0.4116
  172DOPC  H17X21031   6.752   5.676  14.037 -1.3930 -0.2799 -1.4059
  172DOPC  H17Y21032   6.858   5.625  13.903  4.0027 -0.3386  1.2633
  172DOPC  C31821033   6.966   5.653  14.084  0.3563  0.2759 -0.2554
  172DOPC  H18X21034   7.065   5.676  14.040  0.1396 -2.2581 -2.3538
  172DOPC  H18Y21035   6.965   5.718  14.174  2.2875 -0.8125  0.6036
  172DOPC  H18Z21036   6.964   5.549  14.123 -0.1511  0.5027  0.3351
  173DOPC     N21037   2.806   2.746  12.343 -0.0367 -0.0705 -0.2551
  173DOPC   C1221038   2.884   2.701  12.463 -0.6137 -0.0843 -0.6029
  173DOPC  H12A21039   2.984   2.674  12.432 -0.1415 -0.4880  1.1208
  173DOPC  H12B21040   2.843   2.614  12.512  0.4920 -0.1404  0.2810
  173DOPC   C1321041   2.890   2.806  12.241  0.8877  0.1331  0.5355
  173DOPC  H13A21042   2.938   2.896  12.276  0.6081  0.1523  0.8674
  173DOPC  H13B21043   2.957   2.732  12.199  1.8114  0.5131  1.3130
  173DOPC  H13C21044   2.828   2.827  12.156  1.1148 -2.4978 -0.3781
  173DOPC   C1421045   2.706   2.854  12.387  0.1786  0.6663  0.2000
  173DOPC  H14A21046   2.768   2.934  12.427  1.3091 -0.1424  0.1137
  173DOPC  H14B21047   2.640   2.882  12.306  0.8975  1.6386 -0.0798
  173DOPC  H14C21048   2.639   2.806  12.455 -0.8817  0.6975 -0.7930
  173DOPC   C1521049   2.734   2.632  12.278  0.2468  0.6010 -0.0301
  173DOPC  H15A21050   2.796   2.564  12.221 -2.2133 -0.3013 -1.8008
  173DOPC  H15B21051   2.669   2.674  12.203  0.2230  0.3775 -0.1359
  173DOPC  H15C21052   2.679   2.573  12.350  1.1093  0.6491  0.6823
  173DOPC   C1121053   2.914   2.813  12.570  0.3007 -0.0483 -0.6007
  173DOPC  H11A21054   2.820   2.856  12.613 -0.1353 -0.2258 -1.3582
  173DOPC  H11B21055   2.963   2.770  12.660 -0.0966 -0.4248 -0.5548
  173DOPC     P21056   3.130   2.917  12.466 -0.9011  0.0486  0.1701
  173DOPC   O1321057   3.154   3.039  12.385 -0.2638 -0.4298  0.4215
  173DOPC   O1421058   3.162   2.786  12.404  0.1629  0.1317 -0.4080
  173DOPC   O1221059   2.977   2.923  12.514 -0.6952  0.0109  0.1274
  173DOPC   O1121060   3.218   2.928  12.600 -0.1441 -0.2603  0.3795
  173DOPC    C121061   3.186   3.034  12.696 -0.1304 -0.3158 -0.0588
  173DOPC    HA21062   3.079   3.057  12.716  0.3934  1.3845  0.9990
  173DOPC    HB21063   3.226   3.128  12.653  0.9093 -2.0347 -3.2343
  173DOPC    C221064   3.259   2.991  12.821  0.5517  0.0366  0.2233
  173DOPC    HS21065   3.216   3.037  12.912  1.3336  1.6837 -0.2085
  173DOPC   O2121066   3.404   3.007  12.812  0.0551 -0.1201 -0.4125
  173DOPC   C2121067   3.450   3.109  12.888  0.7323  0.5283  0.3702
  173DOPC   O2221068   3.387   3.205  12.916  0.4022  0.1351 -0.5031
  173DOPC   C2221069   3.594   3.089  12.922  0.0193 -0.0677  0.1517
  173DOPC   H2R21070   3.635   3.186  12.958  0.4896 -0.0427 -0.4421
  173DOPC   H2S21071   3.651   3.043  12.839 -0.4618  2.4734 -1.7321
  173DOPC    C321072   3.230   2.846  12.848 -0.7098 -0.2364  0.7345
  173DOPC    HX21073   3.276   2.781  12.771  0.3307  1.7384 -0.4101
  173DOPC    HY21074   3.121   2.835  12.835 -0.9653  2.3619  0.0853
  173DOPC   O3121075   3.269   2.824  12.988  0.1298  0.0520 -0.8504
  173DOPC   C3121076   3.339   2.709  13.019  0.3281  0.2010  0.1641
  173DOPC   O3221077   3.374   2.631  12.929 -0.2192 -0.4345  0.2120
  173DOPC   C3221078   3.352   2.689  13.173 -0.2930 -0.6177 -0.2055
  173DOPC   H2X21079   3.401   2.779  13.217 -2.1597 -0.3377  1.4788
  173DOPC   H2Y21080   3.251   2.693  13.220  0.7318  1.5161  2.0586
  173DOPC   C2321081   3.605   2.990  13.045 -0.6622  0.1287  0.2853
  173DOPC   H3R21082   3.714   2.973  13.059 -0.4846 -2.2709 -2.9596
  173DOPC   H3S21083   3.570   2.887  13.023  0.9925 -0.3466 -0.2107
  173DOPC   C2421084   3.536   3.029  13.174 -0.1433 -0.6896 -0.4894
  173DOPC   H4R21085   3.546   2.948  13.250  0.7823 -2.4053 -2.3451
  173DOPC   H4S21086   3.428   3.022  13.149 -0.2315 -0.6649 -0.1206
  173DOPC   C2521087   3.581   3.161  13.227 -0.4919 -0.4251 -1.0143
  173DOPC   H5R21088   3.553   3.246  13.161  0.4845 -0.8263 -1.9782
  173DOPC   H5S21089   3.692   3.155  13.232 -0.4679  0.0864 -0.9198
  173DOPC   C2621090   3.516   3.189  13.365  0.6381  0.1303  0.7980
  173DOPC   H6R21091   3.564   3.104  13.417  2.1240  1.2169  1.2853
  173DOPC   H6S21092   3.406   3.193  13.354  0.8886  2.5803 -2.6565
  173DOPC   C2721093   3.570   3.318  13.423  0.3027 -0.2680 -0.4252
  173DOPC   H7R21094   3.549   3.409  13.363  0.7194  1.3803  1.7706
  173DOPC   H7S21095   3.680   3.320  13.437  0.3125 -1.7840 -0.1868
  173DOPC   C2821096   3.501   3.344  13.563 -0.0868 -0.1050  0.3800
  173DOPC   H8R21097   3.519   3.257  13.630 -0.9933 -0.0131  0.7665
  173DOPC   H8S21098   3.391   3.328  13.555  0.0302 -1.7289  1.3646
  173DOPC   C2921099   3.539   3.473  13.633  0.5381 -0.4237  0.7040
  173DOPC   H9R21100   3.610   3.530  13.573 -0.3847 -0.2857 -0.2898
  173DOPC  C21021101   3.486   3.531  13.738 -0.4776  0.1796 -0.3204
  173DOPC  H10R21102   3.518   3.635  13.754 -0.2901  0.0278  0.3213
  173DOPC  C21121103   3.379   3.469  13.822 -0.4729 -0.2165  0.2862
  173DOPC  H11R21104   3.388   3.490  13.930 -0.9218  0.3314  0.2228
  173DOPC  H11S21105   3.395   3.360  13.810  1.5486  0.1022 -0.4223
  173DOPC  C21221106   3.241   3.506  13.778  0.3519  0.7108 -0.2848
  173DOPC  H12R21107   3.240   3.497  13.667 -0.8691 -0.0220 -0.2405
  173DOPC  H12S21108   3.214   3.609  13.809 -1.9089 -0.6928  3.1293
  173DOPC  C21321109   3.134   3.400  13.836 -0.4710 -0.1454  0.1928
  173DOPC  H13R21110   3.153   3.398  13.946 -0.3756 -1.2012  0.1596
  173DOPC  H13S21111   3.149   3.296  13.800  3.5640  1.0109 -2.1747
  173DOPC  C21421112   2.984   3.448  13.813 -0.0056  1.1764 -0.9130
  173DOPC  H14R21113   2.979   3.555  13.841  0.8894  1.0920 -0.4253
  173DOPC  H14S21114   2.909   3.397  13.877  1.3886  0.5207  0.2443
  173DOPC  C21521115   2.935   3.431  13.664  1.2207 -0.5253 -0.0019
  173DOPC  H15R21116   2.978   3.336  13.627  0.8571 -0.6236 -0.1739
  173DOPC  H15S21117   2.989   3.517  13.617 -0.9809  1.4964  0.9973
  173DOPC  C21621118   2.781   3.443  13.662 -0.8065 -0.1440 -0.3215
  173DOPC  H16R21119   2.747   3.546  13.686 -0.7778  0.2041 -1.6548
  173DOPC  H16S21120   2.754   3.378  13.748 -0.0514  1.9687  1.5802
  173DOPC  C21721121   2.719   3.401  13.531  1.2157  0.3000  0.7911
  173DOPC  H17R21122   2.609   3.410  13.547  0.7571 -1.8532 -0.7493
  173DOPC  H17S21123   2.739   3.293  13.516  1.9077  0.1610  2.4410
  173DOPC  C21821124   2.761   3.488  13.417  0.6080 -0.2791 -0.6693
  173DOPC  H18R21125   2.869   3.476  13.393  1.1064  0.2218  1.1835
  173DOPC  H18S21126   2.744   3.596  13.440  0.6576 -0.5081  0.4856
  173DOPC  H18T21127   2.702   3.456  13.328  1.9835  0.1720 -1.7904
  173DOPC   C3321128   3.435   2.573  13.220 -0.0333  0.0424  0.2792
  173DOPC   H3X21129   3.537   2.586  13.179 -0.2302  0.3874 -0.1091
  173DOPC   H3Y21130   3.388   2.475  13.199 -0.4595  0.2491  0.2656
  173DOPC   C3421131   3.459   2.571  13.378 -0.1959 -0.2407 -0.3498
  173DOPC   H4X21132   3.475   2.673  13.419 -0.4681 -0.9816  1.7745
  173DOPC   H4Y21133   3.558   2.522  13.395 -0.6639 -1.0642  0.0770
  173DOPC   C3521134   3.350   2.493  13.450  0.0651  0.1040  0.0878
  173DOPC   H5X21135   3.348   2.393  13.402 -0.8427  0.7893 -1.3838
  173DOPC   H5Y21136   3.249   2.536  13.431  0.9361  2.0409 -0.3666
  173DOPC   C3621137   3.370   2.471  13.600  0.2083 -0.4129  0.1307
  173DOPC   H6X21138   3.476   2.451  13.627 -0.4206 -1.0977  2.2514
  173DOPC   H6Y21139   3.342   2.564  13.653  0.2225 -0.7199  0.6803
  173DOPC   C3721140   3.271   2.366  13.653  0.4765 -0.9031  0.0854
  173DOPC   H7X21141   3.258   2.374  13.763  0.5182  0.7135 -0.0057
  173DOPC   H7Y21142   3.168   2.386  13.616  0.3826  0.8572  1.1556
  173DOPC   C3821143   3.308   2.220  13.637  0.2820 -0.7571 -0.2106
  173DOPC   H8X21144   3.362   2.215  13.540 -2.0545 -1.5896 -1.5255
  173DOPC   H8Y21145   3.219   2.155  13.627 -1.2688  0.8852  2.0572
  173DOPC   C3921146   3.393   2.173  13.755 -0.5705  0.1513 -0.3984
  173DOPC   H9X21147   3.496   2.200  13.728 -0.5266  1.0453  0.6285
  173DOPC  C31021148   3.358   2.106  13.865 -0.1717  0.5949 -0.1150
  173DOPC  H10X21149   3.430   2.068  13.939  0.8538  2.0569 -0.3257
  173DOPC  C31121150   3.216   2.075  13.901 -0.2551 -0.2953 -0.3170
  173DOPC  H11X21151   3.139   2.137  13.850  1.9072  1.6716 -1.3318
  173DOPC  H11Y21152   3.212   2.108  14.007  1.1215  0.8377 -0.5982
  173DOPC  C31221153   3.159   1.931  13.882  0.2288 -0.1136  0.0357
  173DOPC  H12X21154   3.161   1.895  13.777 -4.0966 -0.3596 -0.1362
  173DOPC  H12Y21155   3.051   1.933  13.908  0.2415  0.1304  0.0750
  173DOPC  C31321156   3.229   1.827  13.973  0.2176  0.5988 -0.3516
  173DOPC  H13X21157   3.335   1.812  13.942 -0.2103  0.5526 -1.8685
  173DOPC  H13Y21158   3.237   1.862  14.078  1.1097  2.9726 -1.1432
  173DOPC  C31421159   3.162   1.694  13.964 -0.3715 -0.4317  0.3128
  173DOPC  H14X21160   3.053   1.702  13.981  0.0622 -0.7418  4.2173
  173DOPC  H14Y21161   3.178   1.657  13.860  1.7253  1.9469 -0.3124
  173DOPC  C31521162   3.219   1.586  14.054  0.7624 -0.2660 -0.7039
  173DOPC  H15X21163   3.167   1.496  14.017 -0.1385  0.2363 -0.6910
  173DOPC  H15Y21164   3.167   1.582  14.152 -1.4975 -3.4343 -1.8877
  173DOPC  C31621165   3.373   1.563  14.053  0.3995  0.2265 -0.1305
  173DOPC  H16X21166   3.397   1.548  13.946 -0.5767 -0.6427 -0.2497
  173DOPC  H16Y21167   3.429   1.651  14.091  1.7034 -0.4195 -0.5016
  173DOPC  C31721168   3.409   1.441  14.135  0.6115  0.4970 -0.1889
  173DOPC  H17X21169   3.334   1.361  14.116  1.8913 -0.9923  0.8004
  173DOPC  H17Y21170   3.510   1.404  14.109  0.1102  0.5192 -2.3729
  173DOPC  C31821171   3.404   1.459  14.290 -0.0782 -0.5452  0.2104
  173DOPC  H18X21172   3.408   1.360  14.339  2.3297 -0.4928  0.2351
  173DOPC  H18Y21173   3.497   1.512  14.320 -0.6869  0.6058  0.1651
  173DOPC  H18Z21174   3.319   1.526  14.316 -0.4272 -0.4165 -1.2144
  174DOPC     N21175   5.881   1.045  12.452 -0.1570 -0.7650 -0.1193
  174DOPC   C1221176   5.897   0.911  12.389 -0.0878  0.5261 -0.3357
  174DOPC  H12A21177   5.982   0.858  12.428 -1.3425 -1.5364 -0.2603
  174DOPC  H12B21178   5.905   0.921  12.282  0.4667  3.0528 -0.1134
  174DOPC   C1321179   5.885   1.027  12.600  0.3760  0.2319  0.2703
  174DOPC  H13A21180   5.978   0.977  12.622  0.4314 -0.1260 -0.7143
  174DOPC  H13B21181   5.886   1.125  12.647  1.7285  2.0541 -3.1507
  174DOPC  H13C21182   5.800   0.972  12.636  1.9126 -2.3188  0.1879
  174DOPC   C1421183   5.749   1.101  12.413 -0.0227 -0.2932  0.2526
  174DOPC  H14A21184   5.741   1.118  12.307 -2.5992 -0.0373  0.4341
  174DOPC  H14B21185   5.671   1.026  12.418  2.1173 -2.6302  0.6117
  174DOPC  H14C21186   5.718   1.193  12.460 -1.2124 -1.0294  0.9603
  174DOPC   C1521187   5.993   1.140  12.412  0.1207  0.1188 -0.2823
  174DOPC  H15A21188   6.005   1.141  12.304 -1.1674  0.2525 -0.4392
  174DOPC  H15B21189   6.084   1.105  12.459  0.2944 -1.6088 -1.7628
  174DOPC  H15C21190   5.980   1.243  12.440  1.5943 -0.0489  1.1350
  174DOPC   C1121191   5.784   0.818  12.413  0.3279 -0.1317 -0.2057
  174DOPC  H11A21192   5.782   0.798  12.522 -1.6472  1.1039  0.0331
  174DOPC  H11B21193   5.686   0.868  12.400  0.6765  1.0374  1.3528
  174DOPC     P21194   5.813   0.560  12.395  0.1152 -0.1233  0.3521
  174DOPC   O1321195   5.845   0.469  12.280 -0.1149 -0.2308 -0.4903
  174DOPC   O1421196   5.692   0.533  12.480  0.7761  0.1861  0.6059
  174DOPC   O1221197   5.802   0.705  12.334 -0.5266 -0.0590  0.5292
  174DOPC   O1121198   5.919   0.580  12.497  0.4731 -0.3715  0.0986
  174DOPC    C121199   5.933   0.497  12.608  0.3275  0.8092  0.3190
  174DOPC    HA21200   6.013   0.424  12.584  0.2732  0.1937  1.8538
  174DOPC    HB21201   5.848   0.429  12.629  0.8237  0.0864  0.0318
  174DOPC    C221202   5.979   0.577  12.733  0.4161 -0.2286  0.0296
  174DOPC    HS21203   6.007   0.507  12.815  2.6157  0.9341  0.3276
  174DOPC   O2121204   5.890   0.685  12.783 -0.2419  0.1386  0.2567
  174DOPC   C2121205   5.768   0.650  12.825  0.1296  0.5362 -0.3488
  174DOPC   O2221206   5.722   0.539  12.836 -0.2713  0.6522  0.3802
  174DOPC   C2221207   5.698   0.777  12.881  0.1536 -0.2242 -0.6279
  174DOPC   H2R21208   5.658   0.823  12.789  2.2106 -0.0904 -1.5140
  174DOPC   H2S21209   5.780   0.840  12.920  0.6363 -0.6004 -1.0193
  174DOPC    C321210   6.112   0.649  12.703  0.4782 -0.0304 -0.0646
  174DOPC    HX21211   6.094   0.734  12.634 -0.4408 -0.7094 -0.6750
  174DOPC    HY21212   6.192   0.584  12.661  1.9778  0.8634  1.2949
  174DOPC   O3121213   6.181   0.691  12.823  0.3608  0.1387  0.3745
  174DOPC   C3121214   6.221   0.814  12.830  0.4745  0.1874 -0.4819
  174DOPC   O3221215   6.210   0.892  12.740  0.0935  0.0935  0.2875
  174DOPC   C3221216   6.272   0.853  12.974 -0.0545  0.3590  0.4598
  174DOPC   H2X21217   6.227   0.780  13.044 -0.6781 -0.3656 -0.6719
  174DOPC   H2Y21218   6.383   0.847  12.978  0.0589  2.1437  3.0327
  174DOPC   C2321219   5.581   0.777  12.979  0.1729  0.4425 -0.3784
  174DOPC   H3R21220   5.535   0.682  12.945 -0.0150  0.3526  0.1230
  174DOPC   H3S21221   5.502   0.855  12.963 -1.9443 -1.9580 -2.7584
  174DOPC   C2421222   5.610   0.760  13.125 -0.1667  0.3936 -0.4779
  174DOPC   H4R21223   5.520   0.737  13.186  1.4005 -1.6419  1.2656
  174DOPC   H4S21224   5.640   0.856  13.173 -2.9418  1.4469 -0.6709
  174DOPC   C2521225   5.711   0.656  13.173  0.3886  0.3034 -0.1953
  174DOPC   H5R21226   5.816   0.687  13.160 -0.0892  2.2476  0.3350
  174DOPC   H5S21227   5.682   0.568  13.111 -2.6105  0.4088  0.8894
  174DOPC   C2621228   5.704   0.614  13.323 -0.0632 -0.0929  0.3073
  174DOPC   H6R21229   5.602   0.576  13.346 -0.3726  0.9702  0.7754
  174DOPC   H6S21230   5.718   0.706  13.385  3.1179  1.1705 -2.0428
  174DOPC   C2721231   5.805   0.505  13.365  0.5528 -0.1406 -0.0311
  174DOPC   H7R21232   5.788   0.497  13.474 -3.3442  0.1956 -0.4743
  174DOPC   H7S21233   5.909   0.533  13.337  0.3585 -0.8619 -1.5553
  174DOPC   C2821234   5.767   0.367  13.312  0.5678  0.5963  0.0274
  174DOPC   H8R21235   5.666   0.364  13.267  1.3108  0.1232 -1.6931
  174DOPC   H8S21236   5.759   0.286  13.388 -1.1829  1.0343  0.3400
  174DOPC   C2921237   5.862   0.315  13.205  0.5541 -0.2174  0.5005
  174DOPC   H9R21238   5.849   0.350  13.102  0.9565 -2.2225 -0.2682
  174DOPC  C21021239   5.958   0.223  13.229 -0.3366  0.3208 -0.2481
  174DOPC  H10R21240   6.015   0.193  13.140 -0.3531  1.6644 -0.7253
  174DOPC  C21121241   6.006   0.165  13.360  0.4734 -0.1509 -0.0862
  174DOPC  H11R21242   6.008   0.240  13.442 -1.1765 -0.1628 -0.0009
  174DOPC  H11S21243   6.109   0.124  13.351  0.2023 -1.3332  1.6583
  174DOPC  C21221244   5.907   0.056  13.399 -0.1272 -0.5066 -0.2792
  174DOPC  H12R21245   5.887  -0.011  13.312  1.1333 -0.9868 -0.2191
  174DOPC  H12S21246   5.803   0.091  13.415  0.2948  0.7506 -0.2083
  174DOPC  C21321247   5.953  -0.035  13.512  0.6644 -0.5523 -0.5909
  174DOPC  H13R21248   6.023  -0.113  13.474 -1.1164 -1.9828 -1.1328
  174DOPC  H13S21249   5.868  -0.098  13.546 -0.6139  0.1949 -2.3018
  174DOPC  C21421250   6.008   0.036  13.641  0.2582 -0.3510 -0.2960
  174DOPC  H14R21251   5.930   0.107  13.674 -0.0323  0.1215 -1.8895
  174DOPC  H14S21252   6.099   0.094  13.615 -0.3522  0.5694 -0.4245
  174DOPC  C21521253   6.035  -0.066  13.744 -0.8782 -0.3195 -0.5864
  174DOPC  H15R21254   6.110  -0.136  13.704  0.2627  0.1120  0.7160
  174DOPC  H15S21255   5.940  -0.118  13.771 -2.3745  3.1574  1.6017
  174DOPC  C21621256   6.088   0.008  13.868 -0.3388 -0.1555  0.3278
  174DOPC  H16R21257   6.139   0.101  13.835 -1.3902  1.1017  2.0737
  174DOPC  H16S21258   6.163  -0.056  13.918  3.3098  3.3928 -0.1228
  174DOPC  C21721259   5.977   0.061  13.960 -0.4246  0.0619  0.2804
  174DOPC  H17R21260   5.889   0.087  13.898  0.1573 -0.7028 -0.9141
  174DOPC  H17S21261   6.013   0.155  14.008 -1.2336  0.2819  0.4590
  174DOPC  C21821262   5.926  -0.029  14.063 -0.0382 -0.5504  0.1031
  174DOPC  H18R21263   5.856   0.023  14.131  0.1451  1.0541 -0.8697
  174DOPC  H18S21264   6.010  -0.074  14.120  0.5963  0.1401 -0.2661
  174DOPC  H18T21265   5.875  -0.114  14.013  0.7594 -0.4026 -1.0260
  174DOPC   C3321266   6.225   0.991  13.012 -0.0585 -0.2942 -0.0833
  174DOPC   H3X21267   6.259   1.068  12.940 -0.7392  0.5198  0.4602
  174DOPC   H3Y21268   6.267   1.018  13.112 -0.4891 -1.7786  0.5283
  174DOPC   C3421269   6.069   1.002  13.029  0.5341  0.3133 -0.0056
  174DOPC   H4X21270   6.004   0.998  12.939 -1.3428  2.6896  1.1222
  174DOPC   H4Y21271   6.057   1.108  13.059 -0.2428  1.0276 -2.5664
  174DOPC   C3521272   5.990   0.902  13.120  0.3750 -0.2670 -0.3823
  174DOPC   H5X21273   5.990   0.799  13.077 -0.5725  0.2427 -1.6384
  174DOPC   H5Y21274   5.886   0.939  13.131  0.4009  0.2319 -1.6848
  174DOPC   C3621275   6.062   0.873  13.254 -0.4106  0.3735 -0.4379
  174DOPC   H6X21276   6.015   0.793  13.315  0.6569  0.8901  1.1217
  174DOPC   H6Y21277   6.169   0.844  13.243 -0.4965 -0.4499  0.7493
  174DOPC   C3721278   6.042   0.990  13.355 -0.3123  0.2941  0.1450
  174DOPC   H7X21279   6.125   1.058  13.324  1.2368 -0.6578  2.0393
  174DOPC   H7Y21280   5.944   1.041  13.349 -0.8311 -0.4859  1.5649
  174DOPC   C3821281   6.071   0.951  13.502  0.2164 -0.3913  0.0436
  174DOPC   H8X21282   6.155   0.881  13.522 -1.6423 -2.6090  0.5916
  174DOPC   H8Y21283   5.978   0.905  13.543  0.4249 -0.3203  0.6073
  174DOPC   C3921284   6.109   1.074  13.581 -0.2102  0.0762 -0.8425
  174DOPC   H9X21285   6.217   1.088  13.563 -0.2031 -2.0108 -2.8955
  174DOPC  C31021286   6.046   1.144  13.681  0.0911  0.6695  0.7762
  174DOPC  H10X21287   6.109   1.222  13.726  2.1741 -0.4075 -0.1198
  174DOPC  C31121288   5.909   1.120  13.732 -0.2786 -0.0601  0.0737
  174DOPC  H11X21289   5.919   1.126  13.843 -2.1660 -1.7407  0.3860
  174DOPC  H11Y21290   5.877   1.016  13.708 -0.8675  0.6112 -2.3406
  174DOPC  C31221291   5.789   1.202  13.679 -0.3800  0.6796 -0.6047
  174DOPC  H12X21292   5.803   1.312  13.683  2.0290  0.3948  0.3084
  174DOPC  H12Y21293   5.690   1.176  13.722 -0.1518 -1.3793 -1.1968
  174DOPC  C31321294   5.743   1.148  13.535  0.2151  0.3129  0.0612
  174DOPC  H13X21295   5.815   1.170  13.454 -1.3118  0.4604 -1.3087
  174DOPC  H13Y21296   5.747   1.037  13.547  1.0819  0.2634 -0.5714
  174DOPC  C31421297   5.612   1.209  13.491  0.1717  0.6189 -0.1021
  174DOPC  H14X21298   5.537   1.193  13.571 -0.8687  0.8561 -1.0078
  174DOPC  H14Y21299   5.629   1.319  13.493 -0.5169  0.7213  0.4983
  174DOPC  C31521300   5.546   1.163  13.362  0.5006  0.2558 -0.1640
  174DOPC  H15X21301   5.455   1.224  13.344  0.3986  0.2262  0.2422
  174DOPC  H15Y21302   5.507   1.060  13.377 -0.6154  0.8865  1.5155
  174DOPC  C31621303   5.641   1.170  13.244 -0.6800 -0.1437  0.9484
  174DOPC  H16X21304   5.700   1.264  13.238  0.3463 -0.8581 -1.7140
  174DOPC  H16Y21305   5.715   1.087  13.243  0.6536  1.0027  1.0750
  174DOPC  C31721306   5.576   1.161  13.101 -0.7681  0.1934 -0.5136
  174DOPC  H17X21307   5.538   1.056  13.097  3.1197 -1.3293 -1.1277
  174DOPC  H17Y21308   5.497   1.239  13.103 -1.1323 -0.1707 -0.4799
  174DOPC  C31821309   5.663   1.187  12.977  1.1170  0.3897 -0.3815
  174DOPC  H18X21310   5.723   1.094  12.972  0.9609  0.1347  1.7287
  174DOPC  H18Y21311   5.607   1.192  12.881  2.0152 -0.8626 -1.0063
  174DOPC  H18Z21312   5.717   1.282  12.996 -0.0717  0.7423  1.4918
  175DOPC     N21313   3.757   5.897  12.461  0.4717  0.2218 -0.2570
  175DOPC   C1221314   3.822   5.968  12.578  0.3573 -0.2592  0.2381
  175DOPC  H12A21315   3.908   5.912  12.612 -0.1360  0.0303  2.0687
  175DOPC  H12B21316   3.752   5.983  12.659 -0.6128  1.2160 -0.8207
  175DOPC   C1321317   3.844   5.893  12.347  0.2144 -0.4318 -0.0463
  175DOPC  H13A21318   3.880   5.991  12.319  2.5617 -1.0610  0.5754
  175DOPC  H13B21319   3.934   5.836  12.363 -0.2325 -1.3713 -0.7889
  175DOPC  H13C21320   3.805   5.843  12.259  1.1080  1.3710 -1.5465
  175DOPC   C1421321   3.634   5.969  12.424  1.2700 -0.1325  0.1283
  175DOPC  H14A21322   3.577   5.917  12.348 -1.1643  1.6628  0.6100
  175DOPC  H14B21323   3.562   5.980  12.504  0.2464  0.9430 -0.8984
  175DOPC  H14C21324   3.655   6.066  12.381 -1.8825  0.6429  0.1301
  175DOPC   C1521325   3.727   5.761  12.519 -0.5462  0.3434 -0.4814
  175DOPC  H15A21326   3.645   5.762  12.589  0.1882 -1.9938  0.5284
  175DOPC  H15B21327   3.807   5.723  12.581 -0.8402  1.5885  0.6998
  175DOPC  H15C21328   3.715   5.688  12.441 -0.5105 -0.3788  0.1688
  175DOPC   C1121329   3.881   6.115  12.547 -0.0096  0.1524 -0.2642
  175DOPC  H11A21330   3.796   6.167  12.499 -0.3608  1.2378  1.4248
  175DOPC  H11B21331   3.905   6.164  12.644  3.4328 -0.8606 -0.4484
  175DOPC     P21332   4.141   6.104  12.506 -0.1909  0.3418 -0.1117
  175DOPC   O1321333   4.222   6.202  12.435  0.7759  0.6165 -0.1999
  175DOPC   O1421334   4.176   5.962  12.495  0.0792 -0.5365  0.2724
  175DOPC   O1221335   3.991   6.114  12.457 -0.2601  0.0640 -0.1763
  175DOPC   O1121336   4.146   6.152  12.651 -0.0595 -0.1129 -0.2408
  175DOPC    C121337   4.178   6.284  12.696  0.4190 -0.3584  0.5274
  175DOPC    HA21338   4.142   6.363  12.627  0.8827  0.4401  1.1892
  175DOPC    HB21339   4.288   6.292  12.710  0.9586 -0.8692 -2.7605
  175DOPC    C221340   4.111   6.314  12.835 -0.3655 -0.2011  0.5739
  175DOPC    HS21341   4.003   6.322  12.810 -0.2812 -0.8453 -0.0175
  175DOPC   O2121342   4.171   6.434  12.891 -0.3575 -0.2548  0.1915
  175DOPC   C2121343   4.083   6.527  12.927  0.4324  0.0271  0.1188
  175DOPC   O2221344   3.963   6.513  12.936 -0.2572  0.7136  0.2570
  175DOPC   C2221345   4.164   6.656  12.953  0.5726  0.1499  0.3458
  175DOPC   H2R21346   4.129   6.718  12.868 -0.2289 -2.2894 -1.1862
  175DOPC   H2S21347   4.274   6.639  12.959  1.0589  2.4941 -0.7866
  175DOPC    C321348   4.129   6.189  12.934 -0.1477 -0.3621  0.1412
  175DOPC    HX21349   4.238   6.169  12.933 -0.2539 -0.9854  0.6053
  175DOPC    HY21350   4.087   6.097  12.888 -1.0504  0.2048 -0.2085
  175DOPC   O3121351   4.086   6.215  13.068 -0.0783 -0.0457  0.0912
  175DOPC   C3121352   3.954   6.204  13.091 -0.2415  0.1738  0.0619
  175DOPC   O3221353   3.871   6.183  13.007 -0.4242  0.0210  0.0592
  175DOPC   C3221354   3.915   6.254  13.233  0.3781  0.1221  0.2866
  175DOPC   H2X21355   4.000   6.230  13.301  0.0858  1.2244  1.0628
  175DOPC   H2Y21356   3.901   6.363  13.220  0.3481 -0.0156 -0.8642
  175DOPC   C2321357   4.130   6.734  13.086  0.2323  0.7922  0.1195
  175DOPC   H3R21358   4.065   6.669  13.150  0.2083  0.0239 -0.6652
  175DOPC   H3S21359   4.064   6.820  13.062 -0.1133  0.5120  0.0405
  175DOPC   C2421360   4.256   6.789  13.159  0.1172 -0.2340 -0.2654
  175DOPC   H4R21361   4.316   6.700  13.186 -1.3238 -1.6105 -1.4614
  175DOPC   H4S21362   4.233   6.837  13.256  0.8494  0.8312 -0.5842
  175DOPC   C2521363   4.345   6.891  13.092  0.3269 -0.8788 -0.5350
  175DOPC   H5R21364   4.378   6.843  12.997 -1.0947 -1.5068 -0.7269
  175DOPC   H5S21365   4.445   6.910  13.136 -0.5913  0.0906  1.2113
  175DOPC   C2621366   4.290   7.027  13.059  0.6771  0.0489 -0.8744
  175DOPC   H6R21367   4.194   7.036  13.004  1.0197  1.4261 -1.3078
  175DOPC   H6S21368   4.359   7.077  12.987  1.3077  0.8806  0.2613
  175DOPC   C2721369   4.296   7.140  13.165 -0.5093  0.1677 -0.6934
  175DOPC   H7R21370   4.295   7.240  13.117  0.2277  0.5347  0.0262
  175DOPC   H7S21371   4.391   7.140  13.223 -0.3193 -0.2470 -0.9971
  175DOPC   C2821372   4.179   7.133  13.272 -0.3875 -0.1503 -0.0078
  175DOPC   H8R21373   4.216   7.199  13.354  0.8954  0.2204 -0.8569
  175DOPC   H8S21374   4.157   7.034  13.317 -0.8620 -0.4678 -0.9197
  175DOPC   C2921375   4.061   7.196  13.216 -0.2348  0.9030 -0.1217
  175DOPC   H9R21376   4.022   7.143  13.128 -2.3356  2.0120  0.0704
  175DOPC  C21021377   3.999   7.306  13.269 -0.4128 -0.0168  0.5021
  175DOPC  H10R21378   3.911   7.348  13.216  1.0579  2.7261  0.0527
  175DOPC  C21121379   4.035   7.384  13.389  0.0546  0.7292 -0.0812
  175DOPC  H11R21380   4.145   7.386  13.402 -0.0601 -0.1566  1.1338
  175DOPC  H11S21381   3.994   7.336  13.480  0.0839  1.8241  0.5294
  175DOPC  C21221382   3.998   7.532  13.390  0.5404 -0.1001  0.2368
  175DOPC  H12R21383   3.889   7.540  13.369  0.6348 -1.1779 -0.7642
  175DOPC  H12S21384   4.050   7.590  13.311  1.6080  1.6385  2.1148
  175DOPC  C21321385   4.031   7.599  13.524 -0.0925  0.4234 -0.3134
  175DOPC  H13R21386   4.136   7.587  13.557 -0.0564  1.4773 -0.0137
  175DOPC  H13S21387   3.989   7.538  13.607  1.0557  1.9011  1.4267
  175DOPC  C21421388   4.010   7.756  13.532  0.2264  0.0622 -0.1056
  175DOPC  H14R21389   3.916   7.782  13.480 -0.0021 -0.6214 -0.0524
  175DOPC  H14S21390   4.096   7.796  13.474  0.7375 -1.9946 -0.8752
  175DOPC  C21521391   3.991   7.807  13.678 -0.6082 -0.3272 -0.4232
  175DOPC  H15R21392   4.091   7.804  13.727 -1.1374  0.1852  0.7092
  175DOPC  H15S21393   3.924   7.741  13.737  1.4300 -0.5756  1.7750
  175DOPC  C21621394   3.934   7.950  13.678 -0.6570  0.9087 -0.5356
  175DOPC  H16R21395   3.826   7.930  13.662 -0.7889  1.3083 -0.1711
  175DOPC  H16S21396   3.964   8.010  13.590 -2.9516  1.7304 -0.8148
  175DOPC  C21721397   3.962   8.024  13.805 -0.0981  0.2781  0.1310
  175DOPC  H17R21398   4.072   8.035  13.813 -0.2525  1.7423  0.4867
  175DOPC  H17S21399   3.945   7.960  13.895 -0.8920 -0.8853 -0.8144
  175DOPC  C21821400   3.904   8.162  13.818 -0.4120  0.1863  0.5592
  175DOPC  H18R21401   3.939   8.194  13.918 -0.3097 -0.3491  0.6988
  175DOPC  H18S21402   3.794   8.173  13.812 -0.3841  0.7132  0.9299
  175DOPC  H18T21403   3.960   8.216  13.738 -0.2889  1.7725  1.6761
  175DOPC   C3321404   3.788   6.185  13.281 -0.0487  0.4953 -0.8791
  175DOPC   H3X21405   3.794   6.075  13.272 -0.2038  0.4838 -0.8590
  175DOPC   H3Y21406   3.696   6.210  13.222 -1.5048  0.2250  1.1785
  175DOPC   C3421407   3.745   6.230  13.424 -0.7186  0.4060  0.2099
  175DOPC   H4X21408   3.720   6.338  13.429 -0.6267  0.4730 -0.7523
  175DOPC   H4Y21409   3.826   6.211  13.498  0.2172 -0.4784 -1.0156
  175DOPC   C3521410   3.622   6.152  13.478 -0.4111 -0.3963  0.9684
  175DOPC   H5X21411   3.652   6.045  13.485  1.4904  0.0767  0.6514
  175DOPC   H5Y21412   3.548   6.164  13.396  1.5835 -0.1389 -0.8956
  175DOPC   C3621413   3.567   6.218  13.600 -0.8172  0.3111 -0.0143
  175DOPC   H6X21414   3.565   6.327  13.580  2.4796  0.7771  1.4523
  175DOPC   H6Y21415   3.462   6.182  13.606 -0.5874 -1.1007 -2.8956
  175DOPC   C3721416   3.653   6.186  13.727 -0.4533  0.4507 -0.2518
  175DOPC   H7X21417   3.686   6.082  13.705  1.8851  1.1145 -0.1097
  175DOPC   H7Y21418   3.751   6.238  13.725  0.5385 -1.2190  1.6343
  175DOPC   C3821419   3.572   6.209  13.860 -0.6563  0.6211  0.6282
  175DOPC   H8X21420   3.465   6.180  13.857 -0.5123  0.1303 -0.0484
  175DOPC   H8Y21421   3.572   6.319  13.877 -1.9914  1.0246 -1.6137
  175DOPC   C3921422   3.647   6.136  13.973  0.2263 -0.2579  0.6100
  175DOPC   H9X21423   3.623   6.029  13.985 -0.7739  0.0284  1.2361
  175DOPC  C31021424   3.733   6.192  14.064  0.6043  0.5665 -0.2804
  175DOPC  H10X21425   3.775   6.124  14.140 -0.6704 -1.0235 -0.9422
  175DOPC  C31121426   3.774   6.338  14.076 -0.5185  0.0822  0.4490
  175DOPC  H11X21427   3.724   6.408  14.006  1.1105 -1.2507 -2.1942
  175DOPC  H11Y21428   3.884   6.351  14.064 -0.3816 -2.1517 -1.4347
  175DOPC  C31221429   3.743   6.371  14.224  0.5082 -0.4448 -0.8290
  175DOPC  H12X21430   3.796   6.466  14.244  0.4806 -0.3766 -1.0791
  175DOPC  H12Y21431   3.796   6.307  14.298 -0.7444 -0.2137  0.3144
  175DOPC  C31321432   3.593   6.375  14.265 -0.0656 -0.0600  1.0707
  175DOPC  H13X21433   3.541   6.441  14.192 -0.5994  1.5128  2.8157
  175DOPC  H13Y21434   3.556   6.273  14.237  0.0232  0.4462 -1.1253
  175DOPC  C31421435   3.557   6.438  14.401  0.5765  0.0036  0.2533
  175DOPC  H14X21436   3.604   6.386  14.487  0.6825 -2.2735 -1.0916
  175DOPC  H14Y21437   3.590   6.544  14.405  0.4897  0.0051  1.2362
  175DOPC  C31521438   3.402   6.446  14.409 -0.5470  0.1705 -0.6887
  175DOPC  H15X21439   3.356   6.345  14.412  1.6040 -0.8768  2.1753
  175DOPC  H15Y21440   3.366   6.514  14.329  0.3401  1.1901 -0.2432
  175DOPC  C31621441   3.348   6.498  14.547 -0.1288  0.4719 -0.1349
  175DOPC  H16X21442   3.389   6.445  14.635  0.5293  1.5688  0.2444
  175DOPC  H16Y21443   3.376   6.604  14.568  0.1239  0.4333 -0.2728
  175DOPC  C31721444   3.193   6.485  14.544  0.0199 -1.3002  0.0307
  175DOPC  H17X21445   3.152   6.545  14.460  0.5945 -0.1603  0.5376
  175DOPC  H17Y21446   3.174   6.377  14.528  0.2538 -1.5669  1.3851
  175DOPC  C31821447   3.134   6.529  14.674  0.2405 -0.0779  0.1852
  175DOPC  H18X21448   3.171   6.463  14.755 -0.6137 -0.3620  0.3548
  175DOPC  H18Y21449   3.146   6.637  14.697  0.1224  0.6733 -2.7996
  175DOPC  H18Z21450   3.024   6.517  14.665  0.4061 -1.2529 -0.4333
  176DOPC     N21451   3.625   2.161  12.188 -0.4063  0.0003 -0.0470
  176DOPC   C1221452   3.613   2.235  12.321 -0.3959  0.2724  0.2403
  176DOPC  H12A21453   3.510   2.266  12.331 -0.5712 -0.3329  0.3807
  176DOPC  H12B21454   3.685   2.315  12.312  1.5500 -1.4217 -0.2714
  176DOPC   C1321455   3.600   2.251  12.072 -0.1690 -0.1822  0.4952
  176DOPC  H13A21456   3.621   2.207  11.976  0.4520 -0.5417  0.7904
  176DOPC  H13B21457   3.498   2.288  12.068  0.4029  1.5755  1.1521
  176DOPC  H13C21458   3.659   2.341  12.075  1.2529 -1.0871  3.7214
  176DOPC   C1421459   3.520   2.056  12.181  0.0429  0.1991 -0.1059
  176DOPC  H14A21460   3.421   2.097  12.194  0.0302 -0.1512  0.9879
  176DOPC  H14B21461   3.534   1.996  12.092  1.6259 -0.0166  0.2629
  176DOPC  H14C21462   3.522   1.979  12.257 -2.0875  0.4057  0.2146
  176DOPC   C1521463   3.759   2.088  12.179  0.6017 -0.6888  0.0053
  176DOPC  H15A21464   3.812   2.058  12.269 -0.3025  0.5266  0.9690
  176DOPC  H15B21465   3.833   2.155  12.138  0.5466  0.1306  1.1922
  176DOPC  H15C21466   3.738   2.006  12.112 -0.6123 -0.0836 -0.3764
  176DOPC   C1121467   3.645   2.155  12.457 -0.6494 -0.2722 -0.4274
  176DOPC  H11A21468   3.752   2.123  12.461 -0.7849 -0.7200 -0.3540
  176DOPC  H11B21469   3.625   2.213  12.549  0.5239  0.6388 -0.7273
  176DOPC     P21470   3.577   1.894  12.506  0.0921 -0.2040 -0.0320
  176DOPC   O1321471   3.536   1.804  12.400  0.5627 -0.5973 -0.0275
  176DOPC   O1421472   3.503   1.877  12.632  0.1440 -0.1023  0.0598
  176DOPC   O1221473   3.557   2.041  12.455  0.0770  0.2877 -0.3136
  176DOPC   O1121474   3.740   1.884  12.529 -0.2367  0.0761 -0.0859
  176DOPC    C121475   3.797   1.756  12.555 -0.1624  0.3018 -0.0898
  176DOPC    HA21476   3.905   1.761  12.529  0.0150  1.4885  0.8124
  176DOPC    HB21477   3.743   1.680  12.495  0.0669  0.6069 -0.6933
  176DOPC    C221478   3.794   1.705  12.705 -0.5972  0.1255 -0.3816
  176DOPC    HS21479   3.685   1.705  12.728 -0.8637  1.7598 -1.4349
  176DOPC   O2121480   3.849   1.801  12.793  0.2308  0.0552 -0.4177
  176DOPC   C2121481   3.814   1.799  12.918  0.5630  0.2342 -0.0681
  176DOPC   O2221482   3.722   1.735  12.976 -0.5199 -0.1585  0.1378
  176DOPC   C2221483   3.916   1.894  12.981  0.2920 -0.3705 -0.0546
  176DOPC   H2R21484   3.870   1.994  12.979  1.8829  0.5396 -4.8055
  176DOPC   H2S21485   4.011   1.892  12.922  0.3396 -1.9506  0.0199
  176DOPC    C321486   3.854   1.559  12.728 -0.5999  0.2524 -0.0034
  176DOPC    HX21487   3.962   1.565  12.704 -0.6144  2.3357  0.2217
  176DOPC    HY21488   3.808   1.492  12.652  1.1699  0.7602 -1.5869
  176DOPC   O3121489   3.831   1.502  12.858  0.0223 -0.1475  0.0041
  176DOPC   C3121490   3.706   1.463  12.883 -0.2980 -0.1330 -1.4598
  176DOPC   O3221491   3.615   1.459  12.803  0.2100  0.1346 -0.8216
  176DOPC   C3221492   3.702   1.423  13.032  0.1141  0.0818  0.3275
  176DOPC   H2X21493   3.799   1.377  13.061 -0.8025 -1.5643  0.9278
  176DOPC   H2Y21494   3.697   1.517  13.091  1.5590 -0.0457  0.6840
  176DOPC   C2321495   3.945   1.858  13.127 -0.3096 -0.6687 -0.0180
  176DOPC   H3R21496   3.967   1.749  13.136  0.7609 -0.2853  3.9867
  176DOPC   H3S21497   3.852   1.869  13.187  0.3162  0.9073  0.7235
  176DOPC   C2421498   4.070   1.937  13.179 -0.1604 -0.0264  0.2319
  176DOPC   H4R21499   4.168   1.907  13.137  0.0612 -1.2559  1.5558
  176DOPC   H4S21500   4.079   1.921  13.288  0.2620  0.2744  0.2432
  176DOPC   C2521501   4.052   2.088  13.168 -0.1050  0.1599  0.7428
  176DOPC   H5R21502   3.954   2.105  13.217 -0.7804  1.4491 -0.9662
  176DOPC   H5S21503   4.043   2.121  13.062  0.2838 -1.4832  0.1659
  176DOPC   C2621504   4.172   2.165  13.246 -0.1448  0.4001  0.5618
  176DOPC   H6R21505   4.266   2.106  13.235 -1.7366 -2.2972  0.5077
  176DOPC   H6S21506   4.147   2.156  13.354 -0.5783 -2.1384  0.3022
  176DOPC   C2721507   4.191   2.314  13.207  0.2122 -0.2069  0.0293
  176DOPC   H7R21508   4.278   2.352  13.264 -0.0275  0.4455 -0.0385
  176DOPC   H7S21509   4.100   2.375  13.224  1.3080  2.3259 -2.3919
  176DOPC   C2821510   4.214   2.332  13.054 -0.4343 -0.5299 -1.0582
  176DOPC   H8R21511   4.111   2.326  13.013 -1.7851  1.5637  1.6966
  176DOPC   H8S21512   4.286   2.258  13.014 -0.9556 -2.1038  0.8008
  176DOPC   C2921513   4.269   2.465  13.028  0.6135 -0.7082 -0.5555
  176DOPC   H9R21514   4.379   2.462  13.034  0.6796 -0.3368 -1.4294
  176DOPC  C21021515   4.210   2.581  12.986  0.8562  0.5085  0.6047
  176DOPC  H10R21516   4.273   2.672  12.980 -0.5802  1.5586  0.9616
  176DOPC  C21121517   4.062   2.594  12.946 -0.0352  0.2444 -0.3088
  176DOPC  H11R21518   4.007   2.499  12.929 -0.7978  0.2033  2.0159
  176DOPC  H11S21519   4.063   2.650  12.850  0.2182  0.4730 -0.1737
  176DOPC  C21221520   3.968   2.680  13.042  0.0696 -0.0437  1.2854
  176DOPC  H12R21521   3.871   2.683  12.988  0.3527 -1.5614  0.6237
  176DOPC  H12S21522   4.002   2.785  13.043 -0.9313  0.3740 -1.3452
  176DOPC  C21321523   3.953   2.624  13.177 -0.1009  0.0809  0.2768
  176DOPC  H13R21524   4.056   2.625  13.217 -0.1383 -1.5947  0.4940
  176DOPC  H13S21525   3.921   2.517  13.172  1.6306 -0.4242 -2.8039
  176DOPC  C21421526   3.865   2.709  13.264 -0.0856  0.0260 -0.0754
  176DOPC  H14R21527   3.758   2.697  13.237  0.4064 -2.0599 -1.3450
  176DOPC  H14S21528   3.889   2.817  13.258  0.8879 -0.2189 -0.8271
  176DOPC  C21521529   3.886   2.657  13.405 -0.2084  0.7263  0.2134
  176DOPC  H15R21530   3.991   2.624  13.421 -0.5402 -1.6387 -1.7945
  176DOPC  H15S21531   3.831   2.561  13.411  0.3837  0.2998 -0.7923
  176DOPC  C21621532   3.837   2.748  13.519 -0.4743 -0.8974  0.5244
  176DOPC  H16R21533   3.743   2.794  13.482 -1.9887 -3.6346  0.7012
  176DOPC  H16S21534   3.906   2.834  13.532 -0.3838 -1.1519  1.9577
  176DOPC  C21721535   3.834   2.669  13.647 -0.4983  0.0795  0.3434
  176DOPC  H17R21536   3.932   2.623  13.674 -0.7901 -0.1483  1.0424
  176DOPC  H17S21537   3.766   2.582  13.636  0.2876 -0.3534 -1.4855
  176DOPC  C21821538   3.787   2.743  13.764 -0.1524  0.5823 -0.2839
  176DOPC  H18R21539   3.847   2.836  13.778 -0.2010  0.2830  2.2368
  176DOPC  H18S21540   3.784   2.694  13.863  0.9084 -0.1861 -0.6211
  176DOPC  H18T21541   3.681   2.770  13.744 -0.3491  0.8685  1.0646
  176DOPC   C3321542   3.579   1.333  13.061  0.6628 -0.5444  0.1918
  176DOPC   H3X21543   3.571   1.261  12.976 -0.7264  3.4458 -3.4004
  176DOPC   H3Y21544   3.487   1.394  13.067  1.7269  1.1116  0.1145
  176DOPC   C3421545   3.588   1.256  13.196  0.1291 -0.4591  1.3159
  176DOPC   H4X21546   3.613   1.321  13.283  2.2355 -0.0274  0.4382
  176DOPC   H4Y21547   3.669   1.180  13.190  0.6907  0.1814  0.5331
  176DOPC   C3521548   3.450   1.192  13.231 -0.0964  0.0819  0.6023
  176DOPC   H5X21549   3.422   1.124  13.147 -0.5637 -0.4370  1.1608
  176DOPC   H5Y21550   3.367   1.265  13.224  0.3457  0.4476 -1.5529
  176DOPC   C3621551   3.455   1.101  13.355  0.1533 -0.8510  0.5749
  176DOPC   H6X21552   3.388   1.014  13.340 -1.4180  0.4693 -0.3730
  176DOPC   H6Y21553   3.563   1.077  13.369  0.1783 -2.8147 -2.1538
  176DOPC   C3721554   3.397   1.182  13.472 -0.6777 -0.3899  0.2189
  176DOPC   H7X21555   3.422   1.287  13.448 -0.4511 -0.5900 -0.4288
  176DOPC   H7Y21556   3.288   1.165  13.483 -0.8262  1.3081  1.8012
  176DOPC   C3821557   3.459   1.135  13.605  0.7073 -0.7279  0.0596
  176DOPC   H8X21558   3.569   1.129  13.587  0.4716 -2.3516 -1.0275
  176DOPC   H8Y21559   3.427   1.031  13.625  0.2178 -0.4026  1.0620
  176DOPC   C3921560   3.427   1.225  13.729 -0.1460 -0.7719  0.1546
  176DOPC   H9X21561   3.472   1.325  13.731  0.6927 -1.1515  1.4413
  176DOPC  C31021562   3.348   1.177  13.832 -0.1678 -0.4432  0.0875
  176DOPC  H10X21563   3.322   1.253  13.907  2.0874 -0.6326  1.1709
  176DOPC  C31121564   3.278   1.046  13.845  0.9343 -0.0420  0.3470
  176DOPC  H11X21565   3.253   1.000  13.747  1.9798 -1.0800  0.5526
  176DOPC  H11Y21566   3.184   1.064  13.901  1.4446  0.2948  1.1108
  176DOPC  C31221567   3.352   0.943  13.921 -0.2465  0.2378  0.6798
  176DOPC  H12X21568   3.452   0.928  13.876  0.6292  0.0100  2.6067
  176DOPC  H12Y21569   3.293   0.850  13.910 -0.5423  0.7258 -3.5048
  176DOPC  C31321570   3.375   0.974  14.072  0.6459  0.3784 -0.0631
  176DOPC  H13X21571   3.428   0.885  14.112  0.6900  0.7339  0.6842
  176DOPC  H13Y21572   3.436   1.066  14.080  0.5150  0.3746  1.1675
  176DOPC  C31421573   3.238   0.984  14.148 -0.6381 -0.1760 -0.2215
  176DOPC  H14X21574   3.171   1.058  14.100 -1.0413 -0.1785  0.3310
  176DOPC  H14Y21575   3.192   0.883  14.143  3.0015 -2.0619  0.6062
  176DOPC  C31521576   3.249   1.012  14.291  0.0599  0.3312  0.5715
  176DOPC  H15X21577   3.304   1.107  14.312 -0.7026  1.0433 -0.5424
  176DOPC  H15Y21578   3.298   0.928  14.345  0.0588  0.9269  1.5280
  176DOPC  C31621579   3.110   1.013  14.361 -0.1097 -0.9746  0.7362
  176DOPC  H16X21580   3.057   1.104  14.326  2.1654 -0.0541 -0.5101
  176DOPC  H16Y21581   3.058   0.926  14.315 -0.9676  0.8635 -1.9923
  176DOPC  C31721582   3.121   1.001  14.510  0.1690 -0.2547  0.4741
  176DOPC  H17X21583   3.184   0.915  14.541 -1.2466  0.2144  5.5040
  176DOPC  H17Y21584   3.172   1.092  14.549  1.1099 -0.1873 -0.8249
  176DOPC  C31821585   2.987   0.965  14.571  0.0886 -0.7762 -0.1177
  176DOPC  H18X21586   2.922   1.055  14.557 -0.5728 -1.4564 -1.7426
  176DOPC  H18Y21587   2.947   0.872  14.525  3.3233 -1.6304 -1.4953
  176DOPC  H18Z21588   3.002   0.958  14.680 -0.1378  0.1054 -0.0151
  177DOPC     N21589   6.421   6.679  12.522 -0.2530 -0.2264  0.3707
  177DOPC   C1221590   6.391   6.535  12.532 -0.3476  0.5002 -0.3702
  177DOPC  H12A21591   6.291   6.517  12.567 -0.0906  0.8076  0.5696
  177DOPC  H12B21592   6.457   6.482  12.600 -1.5107 -0.9199 -0.3217
  177DOPC   C1321593   6.575   6.694  12.507  0.2110 -0.1098 -0.1534
  177DOPC  H13A21594   6.613   6.630  12.428 -2.5912  0.1318 -1.8203
  177DOPC  H13B21595   6.602   6.792  12.471 -0.6779 -0.4811 -1.9479
  177DOPC  H13C21596   6.618   6.671  12.604 -1.9874  0.3027  0.9881
  177DOPC   C1421597   6.371   6.750  12.646 -0.4150  0.3921 -1.0724
  177DOPC  H14A21598   6.418   6.845  12.665 -1.1287  0.3728  1.0027
  177DOPC  H14B21599   6.264   6.766  12.640 -0.4359  1.2818  0.9905
  177DOPC  H14C21600   6.392   6.684  12.728  1.1489 -0.8440 -2.3859
  177DOPC   C1521601   6.359   6.740  12.398 -0.9597 -0.3658 -0.0505
  177DOPC  H15A21602   6.366   6.672  12.315 -0.8249  0.6665 -0.9118
  177DOPC  H15B21603   6.397   6.835  12.363 -0.8271 -0.7021 -0.8319
  177DOPC  H15C21604   6.251   6.743  12.400 -0.9892  1.1904 -1.5710
  177DOPC   C1121605   6.377   6.441  12.400 -0.2709 -0.2848  0.0177
  177DOPC  H11A21606   6.349   6.338  12.431 -1.9301  0.1234 -0.0408
  177DOPC  H11B21607   6.303   6.492  12.336  0.0329  1.1837  0.8027
  177DOPC     P21608   6.621   6.360  12.358  0.2146  0.3499 -0.5806
  177DOPC   O1321609   6.748   6.435  12.324 -0.0324 -0.0548 -0.1828
  177DOPC   O1421610   6.597   6.229  12.292 -0.2229 -0.1591 -0.0574
  177DOPC   O1221611   6.502   6.459  12.330 -0.0746 -0.1165  0.4603
  177DOPC   O1121612   6.617   6.331  12.522  0.6918  0.2583 -0.3533
  177DOPC    C121613   6.719   6.381  12.599  0.1822 -0.1069 -0.2957
  177DOPC    HA21614   6.704   6.360  12.707 -0.2050  2.9068  0.3278
  177DOPC    HB21615   6.727   6.491  12.582  1.6134 -0.0115  0.7361
  177DOPC    C221616   6.859   6.311  12.576 -0.1899  0.3045 -0.1225
  177DOPC    HS21617   6.895   6.330  12.473 -0.0783 -1.0608 -0.3637
  177DOPC   O2121618   6.843   6.171  12.589  0.0400 -0.1006  0.0211
  177DOPC   C2121619   6.935   6.095  12.541  0.3531  0.5356  0.0369
  177DOPC   O2221620   7.027   6.128  12.467 -0.9804  0.4084  0.6874
  177DOPC   C2221621   6.917   5.958  12.602 -0.3972  0.2136 -0.3623
  177DOPC   H2R21622   7.010   5.902  12.576 -0.2926  1.2406 -2.3463
  177DOPC   H2S21623   6.833   5.900  12.557  1.1871 -2.5722 -0.0246
  177DOPC    C321624   6.971   6.368  12.669  0.1949  0.3002 -0.0699
  177DOPC    HX21625   6.974   6.478  12.654  2.4849  0.1055 -1.4664
  177DOPC    HY21626   7.066   6.313  12.654  0.5854  0.1040  2.6569
  177DOPC   O3121627   6.939   6.337  12.811 -0.4107  0.5445  0.3115
  177DOPC   C3121628   7.003   6.406  12.905 -0.0303 -0.0130  0.1273
  177DOPC   O3221629   7.090   6.488  12.878 -0.2677 -0.0332 -0.2098
  177DOPC   C3221630   6.963   6.370  13.051  0.7532  0.2669  0.1741
  177DOPC   H2X21631   6.994   6.266  13.076  3.2987  1.2034  1.1941
  177DOPC   H2Y21632   7.019   6.438  13.117 -0.4465 -0.0241  1.5467
  177DOPC   C2321633   6.909   5.970  12.759  0.1354 -0.5063 -0.5848
  177DOPC   H3R21634   6.854   5.879  12.790  1.0035 -1.0069 -0.4957
  177DOPC   H3S21635   6.839   6.051  12.790  0.6450 -0.3404  0.1393
  177DOPC   C2421636   7.040   5.976  12.836  1.0978  0.3869  0.4918
  177DOPC   H4R21637   7.078   6.080  12.827  0.7629  0.4323 -0.5248
  177DOPC   H4S21638   7.114   5.900  12.803 -0.3515 -1.2189  0.7983
  177DOPC   C2521639   6.997   5.965  12.984  0.2790 -0.5841 -0.4372
  177DOPC   H5R21640   6.930   5.877  13.002 -1.1964  0.1719 -1.9425
  177DOPC   H5S21641   6.925   6.048  13.003 -1.2778 -2.0119  0.1928
  177DOPC   C2621642   7.108   5.967  13.085 -0.0537 -0.3796 -0.2568
  177DOPC   H6R21643   7.144   6.071  13.069 -1.7190  0.4709  1.2513
  177DOPC   H6S21644   7.188   5.890  13.085  0.9316  0.5932 -1.7003
  177DOPC   C2721645   7.056   5.969  13.231  0.5694 -0.1717  0.0604
  177DOPC   H7R21646   7.009   5.870  13.252  1.8822 -0.5509  1.4279
  177DOPC   H7S21647   6.988   6.055  13.250 -0.4320 -0.3470 -2.3065
  177DOPC   C2821648   7.171   5.973  13.338  0.3726 -0.4124  0.1515
  177DOPC   H8R21649   7.220   6.070  13.316 -1.0115  0.3783  0.4560
  177DOPC   H8S21650   7.242   5.894  13.307  0.4275 -0.1960 -0.2812
  177DOPC   C2921651   7.131   5.969  13.485  0.5056  0.1776 -0.5918
  177DOPC   H9R21652   7.097   6.062  13.533  0.4179  0.5557 -1.3728
  177DOPC  C21021653   7.127   5.852  13.552 -0.1146 -0.8296  0.2862
  177DOPC  H10R21654   7.117   5.852  13.662  2.2834  3.2258  0.6763
  177DOPC  C21121655   7.132   5.716  13.492  0.2687 -0.1686 -0.1014
  177DOPC  H11R21656   7.117   5.718  13.382 -0.6713  1.9141  0.0163
  177DOPC  H11S21657   7.053   5.652  13.537  0.5928  0.3704  1.2841
  177DOPC  C21221658   7.266   5.650  13.538  0.1781 -0.0226 -0.3027
  177DOPC  H12R21659   7.360   5.702  13.509 -0.0034 -0.2080 -1.2777
  177DOPC  H12S21660   7.272   5.554  13.483  1.2760  0.0396 -0.2994
  177DOPC  C21321661   7.266   5.620  13.693  0.1876  0.5119 -0.2477
  177DOPC  H13R21662   7.163   5.603  13.728  0.9408 -0.1888  1.7431
  177DOPC  H13S21663   7.307   5.705  13.752 -1.4221 -0.4631  2.4606
  177DOPC  C21421664   7.362   5.504  13.733 -0.8960 -0.1892  0.6495
  177DOPC  H14R21665   7.462   5.529  13.693 -1.7501  1.0990 -0.7900
  177DOPC  H14S21666   7.336   5.407  13.686  0.5040  0.0387 -0.6690
  177DOPC  C21521667   7.382   5.484  13.888 -0.3779  0.9716 -0.5429
  177DOPC  H15R21668   7.412   5.583  13.930 -0.0230  0.7338 -0.2302
  177DOPC  H15S21669   7.469   5.416  13.901  0.3076  2.1517  1.4978
  177DOPC  C21621670   7.258   5.419  13.964 -1.5960 -0.3114  0.9084
  177DOPC  H16R21671   7.227   5.330  13.906 -2.6045 -0.7965  2.1446
  177DOPC  H16S21672   7.169   5.486  13.955  0.3618  2.1359 -4.2375
  177DOPC  C21721673   7.285   5.377  14.107  0.4351  0.4545  0.0543
  177DOPC  H17R21674   7.369   5.305  14.113 -0.7585 -1.0837 -0.9662
  177DOPC  H17S21675   7.190   5.333  14.145  0.9354 -0.2904  0.4632
  177DOPC  C21821676   7.318   5.491  14.203 -0.0339 -0.2159  0.4103
  177DOPC  H18R21677   7.423   5.522  14.183 -0.0017 -1.1367 -1.0012
  177DOPC  H18S21678   7.304   5.470  14.311 -2.4291  0.6155  0.3078
  177DOPC  H18T21679   7.246   5.573  14.185 -0.5687 -0.6454  0.5658
  177DOPC   C3321680   6.805   6.393  13.066  0.3295 -0.1005  0.1287
  177DOPC   H3X21681   6.760   6.333  12.984 -0.2952  0.7982 -0.1901
  177DOPC   H3Y21682   6.784   6.492  13.021 -0.3296 -1.5301 -3.0136
  177DOPC   C3421683   6.753   6.365  13.204  0.0973 -0.8806  0.1917
  177DOPC   H4X21684   6.819   6.418  13.276 -0.6476  1.6938 -0.9208
  177DOPC   H4Y21685   6.754   6.259  13.238 -2.1249 -1.0759 -0.1636
  177DOPC   C3521686   6.602   6.409  13.232  0.3377  0.1830 -0.1667
  177DOPC   H5X21687   6.536   6.354  13.161 -0.9231 -1.8182  2.4116
  177DOPC   H5Y21688   6.594   6.518  13.216  0.0846  0.3942  1.2990
  177DOPC   C3621689   6.551   6.376  13.377  0.4757  0.2741  0.3826
  177DOPC   H6X21690   6.454   6.427  13.391  0.6238  0.6020  0.2291
  177DOPC   H6Y21691   6.532   6.267  13.371  0.8463  0.0178  2.9262
  177DOPC   C3721692   6.654   6.400  13.479  0.9922 -0.0341 -0.3993
  177DOPC   H7X21693   6.745   6.337  13.468  0.5297 -1.1626  1.6169
  177DOPC   H7Y21694   6.683   6.505  13.498  1.3595 -0.2046 -0.0070
  177DOPC   C3821695   6.605   6.358  13.625 -0.3901 -0.7340  0.7839
  177DOPC   H8X21696   6.695   6.376  13.688 -0.8510 -0.5687  1.3998
  177DOPC   H8Y21697   6.583   6.251  13.608 -0.3638 -0.4338 -1.5815
  177DOPC   C3921698   6.484   6.434  13.668 -0.7978 -0.3693 -0.2794
  177DOPC   H9X21699   6.392   6.394  13.621 -2.0139 -0.7931  2.2847
  177DOPC  C31021700   6.481   6.525  13.767 -0.0968  0.3220 -1.2796
  177DOPC  H10X21701   6.385   6.560  13.808  0.0983 -0.4658 -0.0714
  177DOPC  C31121702   6.602   6.575  13.843 -0.1572 -0.0721 -0.2512
  177DOPC  H11X21703   6.602   6.686  13.834 -1.1843  0.0005  0.4103
  177DOPC  H11Y21704   6.696   6.535  13.801  0.6406 -0.2585  1.5913
  177DOPC  C31221705   6.601   6.539  13.990  0.1943 -0.5514  0.2296
  177DOPC  H12X21706   6.576   6.433  14.010  1.0780 -0.7218  0.4534
  177DOPC  H12Y21707   6.522   6.595  14.044  0.4920 -1.4337  1.6126
  177DOPC  C31321708   6.731   6.591  14.060  0.2916  0.0572 -0.5476
  177DOPC  H13X21709   6.768   6.689  14.025 -0.8633  0.2989 -1.1431
  177DOPC  H13Y21710   6.694   6.607  14.164  1.3293  0.8479 -0.2862
  177DOPC  C31421711   6.848   6.486  14.063 -0.3742  0.0030 -0.0755
  177DOPC  H14X21712   6.805   6.393  14.107 -0.7873 -0.6691 -1.8275
  177DOPC  H14Y21713   6.872   6.462  13.957  1.8457  0.4161  0.2890
  177DOPC  C31521714   6.978   6.516  14.146 -0.5281 -0.4497 -0.1396
  177DOPC  H15X21715   7.039   6.423  14.148 -0.1383 -0.3768 -3.2709
  177DOPC  H15Y21716   6.941   6.533  14.249 -1.3431  2.2587 -0.8159
  177DOPC  C31621717   7.059   6.636  14.090 -0.8266  0.5337 -0.6210
  177DOPC  H16X21718   7.139   6.608  14.019 -2.0613  0.9978 -2.2482
  177DOPC  H16Y21719   6.982   6.703  14.045 -1.2917 -0.3391 -1.1539
  177DOPC  C31721720   7.134   6.731  14.191  0.2401  0.1967 -0.1777
  177DOPC  H17X21721   7.056   6.753  14.268 -1.7418  1.3685 -2.4015
  177DOPC  H17Y21722   7.219   6.676  14.238 -2.2905 -2.4903  1.6630
  177DOPC  C31821723   7.159   6.861  14.128 -0.6553 -0.3248  0.0588
  177DOPC  H18X21724   7.212   6.921  14.205 -2.9341  0.6237  0.9797
  177DOPC  H18Y21725   7.209   6.838  14.031 -0.7155 -1.9188  0.3831
  177DOPC  H18Z21726   7.070   6.923  14.104 -0.6805 -0.3264  0.1472
  178DOPC     N21727   3.037   6.801  12.108  0.5807  0.3149  0.0317
  178DOPC   C1221728   3.130   6.789  12.225  0.4236  0.0799  0.4472
  178DOPC  H12A21729   3.126   6.878  12.286 -0.7818 -0.9934  1.9996
  178DOPC  H12B21730   3.229   6.778  12.183  0.7510 -1.3840  1.5102
  178DOPC   C1321731   2.897   6.787  12.155 -0.0720  0.0295 -0.1891
  178DOPC  H13A21732   2.828   6.772  12.073 -0.1813 -5.3427  0.4739
  178DOPC  H13B21733   2.892   6.700  12.218  1.9920 -0.2541 -0.3241
  178DOPC  H13C21734   2.856   6.868  12.212  0.8203  0.8807 -0.7327
  178DOPC   C1421735   3.067   6.688  12.011 -0.8597  0.9092 -0.4385
  178DOPC  H14A21736   2.987   6.662  11.944 -0.9154  0.6069 -0.2553
  178DOPC  H14B21737   3.154   6.712  11.951 -0.4230 -1.7086 -0.9495
  178DOPC  H14C21738   3.092   6.598  12.064 -2.6938 -0.5766 -1.9896
  178DOPC   C1521739   3.054   6.922  12.026  0.2133  0.1792 -0.2283
  178DOPC  H15A21740   3.026   7.020  12.064 -1.2169 -0.5690  0.7250
  178DOPC  H15B21741   2.992   6.917  11.937 -2.4363  0.4460  1.4946
  178DOPC  H15C21742   3.158   6.933  11.998  0.7456 -1.5197  0.9728
  178DOPC   C1121743   3.115   6.657  12.322 -0.1326 -0.3991 -0.6308
  178DOPC  H11A21744   3.200   6.672  12.393 -0.3297 -0.7603 -0.3157
  178DOPC  H11B21745   3.022   6.664  12.383  0.7413 -1.1373  0.8586
  178DOPC     P21746   3.039   6.416  12.304 -0.0873  0.1538 -0.2188
  178DOPC   O1321747   3.083   6.292  12.227 -0.3886 -0.1168  0.1933
  178DOPC   O1421748   2.891   6.441  12.300 -0.0619  0.0199  0.2839
  178DOPC   O1221749   3.121   6.540  12.248 -0.6217 -0.7486 -0.2643
  178DOPC   O1121750   3.088   6.413  12.455  0.3676 -0.0711 -0.1713
  178DOPC    C121751   3.228   6.382  12.470  0.3680  0.2016 -0.0377
  178DOPC    HA21752   3.294   6.443  12.406  2.8538  0.6454  2.7110
  178DOPC    HB21753   3.248   6.273  12.465  1.2090  0.3643 -0.3256
  178DOPC    C221754   3.275   6.400  12.622  0.1239 -0.0233  0.7699
  178DOPC    HS21755   3.378   6.359  12.630  0.2010 -0.0786 -0.3609
  178DOPC   O2121756   3.181   6.345  12.714  0.2994 -0.3265 -0.3993
  178DOPC   C2121757   3.188   6.212  12.715 -0.3440 -0.1740  0.2413
  178DOPC   O2221758   3.265   6.139  12.652 -0.0881  1.0021 -0.2450
  178DOPC   C2221759   3.081   6.167  12.813  0.1590 -0.6841 -0.0687
  178DOPC   H2R21760   2.983   6.153  12.763  1.1496  0.2133 -2.3700
  178DOPC   H2S21761   3.057   6.250  12.883 -2.5116 -0.6460 -0.9005
  178DOPC    C321762   3.301   6.550  12.655 -0.1360 -0.3011  0.2965
  178DOPC    HX21763   3.225   6.612  12.602 -0.6196 -1.2453 -0.1573
  178DOPC    HY21764   3.401   6.581  12.619  0.7799 -1.3898  1.8313
  178DOPC   O3121765   3.293   6.564  12.799 -0.3460  0.5866  0.3493
  178DOPC   C3121766   3.226   6.666  12.844 -0.0795  0.1264 -0.3924
  178DOPC   O3221767   3.185   6.760  12.774 -0.0693 -0.9281  0.1474
  178DOPC   C3221768   3.249   6.672  12.999  0.2067  0.2010  0.0878
  178DOPC   H2X21769   3.192   6.582  13.028 -1.6582  0.5484 -2.1728
  178DOPC   H2Y21770   3.359   6.658  13.004  0.4039  1.3424 -0.6561
  178DOPC   C2321771   3.114   6.035  12.885  0.0847  0.8631  0.3625
  178DOPC   H3R21772   3.213   6.033  12.935 -0.0136 -0.5920  0.5461
  178DOPC   H3S21773   3.114   5.950  12.814 -0.5375 -0.0390  1.4184
  178DOPC   C2421774   3.008   5.982  12.989 -0.4345  0.2774  0.0516
  178DOPC   H4R21775   2.907   5.977  12.943  0.0443  1.0086 -1.1093
  178DOPC   H4S21776   3.002   6.058  13.070  1.3904 -2.4834  3.0551
  178DOPC   C2521777   3.042   5.848  13.063  0.0997  0.0896 -0.6030
  178DOPC   H5R21778   3.092   5.777  12.993  0.0533  0.6220 -1.1824
  178DOPC   H5S21779   2.944   5.807  13.095  0.6436 -0.5754  0.2512
  178DOPC   C2621780   3.116   5.884  13.196  0.1223  0.2287 -0.3493
  178DOPC   H6R21781   3.115   5.788  13.251 -2.3120 -0.4232 -1.4065
  178DOPC   H6S21782   3.054   5.950  13.260 -1.3876  0.4416 -1.9552
  178DOPC   C2721783   3.268   5.916  13.177  0.3098 -0.3498 -0.2831
  178DOPC   H7R21784   3.285   6.016  13.131  0.4587  0.5401  1.5971
  178DOPC   H7S21785   3.317   5.840  13.112  2.3807  1.7190 -1.2725
  178DOPC   C2821786   3.345   5.921  13.312 -0.1530 -0.5136  0.3415
  178DOPC   H8R21787   3.286   5.994  13.372 -0.8286 -0.8621  0.1118
  178DOPC   H8S21788   3.449   5.960  13.304 -0.1964 -0.6940 -1.5106
  178DOPC   C2921789   3.345   5.795  13.391 -0.1033  0.7457 -0.0455
  178DOPC   H9R21790   3.354   5.706  13.328 -1.9624  0.7515 -0.3532
  178DOPC  C21021791   3.325   5.772  13.519  0.9712 -0.2420 -0.4248
  178DOPC  H10R21792   3.298   5.673  13.558 -3.6238  1.9661  3.0296
  178DOPC  C21121793   3.305   5.878  13.626  0.0805 -0.9220  0.3515
  178DOPC  H11R21794   3.215   5.841  13.681 -1.2178  1.4113 -0.1008
  178DOPC  H11S21795   3.265   5.977  13.596  1.6327 -0.5191 -0.4769
  178DOPC  C21221796   3.427   5.887  13.722 -0.6275  0.1986 -0.4905
  178DOPC  H12R21797   3.372   5.953  13.792 -3.4133  0.1029 -2.4192
  178DOPC  H12S21798   3.516   5.935  13.675 -0.3834  0.2294 -0.0002
  178DOPC  C21321799   3.470   5.761  13.786 -0.2445  0.3472 -0.3608
  178DOPC  H13R21800   3.530   5.689  13.727  0.4414  1.6011 -1.2173
  178DOPC  H13S21801   3.379   5.701  13.810  0.7325 -0.7229  0.8311
  178DOPC  C21421802   3.541   5.783  13.922 -0.3219  0.1428  0.2777
  178DOPC  H14R21803   3.484   5.869  13.962  0.2390  2.4932 -3.4424
  178DOPC  H14S21804   3.637   5.836  13.901 -0.5771  0.2477 -0.6831
  178DOPC  C21521805   3.548   5.658  14.013 -0.8038  0.6116 -0.0895
  178DOPC  H15R21806   3.605   5.579  13.959 -1.0631  0.7883 -0.6371
  178DOPC  H15S21807   3.443   5.623  14.020 -0.2704 -0.7747  1.6478
  178DOPC  C21621808   3.593   5.684  14.155 -0.9692 -0.0290 -1.0134
  178DOPC  H16R21809   3.574   5.595  14.219  0.3099  2.2093  2.8132
  178DOPC  H16S21810   3.530   5.764  14.200  0.4333  1.2114 -1.1549
  178DOPC  C21721811   3.740   5.722  14.170  0.2391 -0.4305  0.2159
  178DOPC  H17R21812   3.772   5.777  14.261 -0.3044  0.6395 -0.2241
  178DOPC  H17S21813   3.762   5.784  14.080  1.4851 -1.0369  0.0699
  178DOPC  C21821814   3.822   5.591  14.138  0.5014  0.4523  0.7451
  178DOPC  H18R21815   3.805   5.554  14.034  4.1468  0.5025 -0.0250
  178DOPC  H18S21816   3.801   5.506  14.206  1.3197 -0.2951  0.1025
  178DOPC  H18T21817   3.930   5.617  14.133  0.4335  0.6211  0.0458
  178DOPC   C3321818   3.199   6.795  13.075  0.0794 -0.4406  0.4911
  178DOPC   H3X21819   3.089   6.788  13.093  0.1291 -1.6467  0.4049
  178DOPC   H3Y21820   3.222   6.889  13.020  0.0427 -0.9046 -0.3283
  178DOPC   C3421821   3.262   6.805  13.210 -0.1444  0.1553  0.6438
  178DOPC   H4X21822   3.372   6.789  13.202 -0.0659 -0.0618  1.9537
  178DOPC   H4Y21823   3.217   6.718  13.264 -0.9256 -0.6082 -1.1661
  178DOPC   C3521824   3.248   6.945  13.276  0.6900 -0.3556  0.3279
  178DOPC   H5X21825   3.140   6.965  13.261  1.3006  1.9210 -1.6523
  178DOPC   H5Y21826   3.307   7.017  13.214 -0.4785 -0.5988 -1.1240
  178DOPC   C3621827   3.279   6.946  13.420 -0.2662 -0.5298 -0.5614
  178DOPC   H6X21828   3.201   6.885  13.472  0.8484 -1.6058 -0.0951
  178DOPC   H6Y21829   3.377   6.899  13.445 -0.9161 -2.0139 -0.7133
  178DOPC   C3721830   3.265   7.093  13.477  0.0006 -0.6714 -0.0847
  178DOPC   H7X21831   3.336   7.152  13.415  1.3769 -2.1878 -0.0316
  178DOPC   H7Y21832   3.165   7.130  13.446  0.4695  0.4784 -0.2811
  178DOPC   C3821833   3.291   7.110  13.628 -0.5333 -0.2562 -0.4717
  178DOPC   H8X21834   3.293   7.220  13.644 -2.8318 -0.1161 -0.9282
  178DOPC   H8Y21835   3.389   7.063  13.655 -0.6652 -0.2560  0.0052
  178DOPC   C3921836   3.190   7.058  13.728  1.1399 -0.4593 -0.2398
  178DOPC   H9X21837   3.160   6.952  13.725  1.6973 -0.8151  2.9548
  178DOPC  C31021838   3.125   7.126  13.828 -0.5967  0.1147 -0.4703
  178DOPC  H10X21839   3.051   7.064  13.881  0.3922 -3.0469 -2.5234
  178DOPC  C31121840   3.129   7.276  13.860 -0.6267 -0.2713  0.1945
  178DOPC  H11X21841   3.228   7.313  13.827  0.0828 -0.9519  1.4968
  178DOPC  H11Y21842   3.128   7.276  13.971  1.6552  0.9697  0.2831
  178DOPC  C31221843   3.013   7.367  13.826 -0.1593 -0.1925 -0.2592
  178DOPC  H12X21844   3.015   7.369  13.715  0.1576  2.0621 -0.2640
  178DOPC  H12Y21845   3.036   7.471  13.859 -3.9614  0.5910  0.3126
  178DOPC  C31321846   2.873   7.332  13.884 -0.0412  0.0621  1.1350
  178DOPC  H13X21847   2.802   7.409  13.845 -1.0251 -1.3473  0.0673
  178DOPC  H13Y21848   2.847   7.231  13.848 -0.4512  0.2190  0.9803
  178DOPC  C31421849   2.863   7.333  14.031 -0.0670  0.2313  0.2618
  178DOPC  H14X21850   2.928   7.267  14.093  0.2612  3.0172  3.2232
  178DOPC  H14Y21851   2.874   7.439  14.065 -1.7516  0.7101 -0.5729
  178DOPC  C31521852   2.718   7.299  14.074  0.7013  0.3901  0.5101
  178DOPC  H15X21853   2.691   7.198  14.036 -0.6958  1.1890 -0.7384
  178DOPC  H15Y21854   2.647   7.364  14.020  0.2309 -1.5278 -1.3178
  178DOPC  C31621855   2.696   7.324  14.222  0.3323  0.1355 -0.0167
  178DOPC  H16X21856   2.758   7.257  14.286  2.1080  2.5442  0.8985
  178DOPC  H16Y21857   2.730   7.427  14.244  0.6896 -0.0796  0.4560
  178DOPC  C31721858   2.548   7.309  14.263  0.3916 -0.3185 -0.2454
  178DOPC  H17X21859   2.484   7.369  14.195 -0.3977 -0.2873  0.5109
  178DOPC  H17Y21860   2.523   7.202  14.252  2.1521 -0.8172  0.2832
  178DOPC  C31821861   2.519   7.357  14.409  0.7145 -1.0537  0.2398
  178DOPC  H18X21862   2.538   7.466  14.417  0.0659 -0.6207 -2.9355
  178DOPC  H18Y21863   2.412   7.328  14.420  0.8066 -1.1941  0.8086
  178DOPC  H18Z21864   2.583   7.304  14.483  2.4101  1.1961  0.5076
  179DOPC     N21865   0.107   5.267  12.256  0.2346 -0.1594  0.1358
  179DOPC   C1221866   0.035   5.150  12.327 -0.5096 -0.3301 -0.0862
  179DOPC  H12A21867   0.044   5.059  12.270 -1.9166 -1.1873  0.9952
  179DOPC  H12B21868  -0.071   5.166  12.337 -0.7004 -2.2899  1.7147
  179DOPC   C1321869   0.054   5.391  12.318  0.0021  0.0944 -0.1346
  179DOPC  H13A21870   0.086   5.391  12.421  1.0118 -0.4498 -0.4299
  179DOPC  H13B21871   0.100   5.477  12.273  0.6932  0.8661  1.9187
  179DOPC  H13C21872  -0.053   5.396  12.312  0.0405  0.1782 -0.8650
  179DOPC   C1421873   0.081   5.268  12.113 -0.4074 -0.4375  0.4334
  179DOPC  H14A21874   0.142   5.341  12.061 -0.0588  1.4685  3.3004
  179DOPC  H14B21875   0.110   5.171  12.075 -1.2922 -1.0256  1.2141
  179DOPC  H14C21876  -0.025   5.283  12.097 -0.2618 -0.1046 -0.3069
  179DOPC   C1521877   0.259   5.255  12.263  0.1663  0.2904 -0.7284
  179DOPC  H15A21878   0.311   5.349  12.251 -0.3889  0.5900 -0.7889
  179DOPC  H15B21879   0.291   5.178  12.194  2.0695 -0.4865  0.9146
  179DOPC  H15C21880   0.286   5.218  12.361 -0.8747  0.8283 -0.2183
  179DOPC   C1121881   0.080   5.119  12.475 -0.2530  0.2871 -0.1564
  179DOPC  H11A21882   0.078   5.213  12.535 -1.5708 -0.2018  0.5980
  179DOPC  H11B21883   0.005   5.047  12.512  2.5015 -2.6274  0.1649
  179DOPC     P21884   0.241   4.918  12.435  0.4961  0.4142  0.6055
  179DOPC   O1321885   0.387   4.898  12.423 -0.1200 -0.3342 -0.6187
  179DOPC   O1421886   0.152   4.885  12.322  0.7094 -0.1888 -0.5182
  179DOPC   O1221887   0.206   5.062  12.486 -0.6029  0.1232  0.0656
  179DOPC   O1121888   0.194   4.816  12.550  0.0048  0.0768 -0.2831
  179DOPC    C121889   0.222   4.845  12.692 -1.0977  0.0422  0.2385
  179DOPC    HA21890   0.163   4.931  12.728 -0.1101  2.0133 -2.5613
  179DOPC    HB21891   0.331   4.868  12.702 -1.6098  2.3066  1.3109
  179DOPC    C221892   0.194   4.716  12.776  0.6036 -0.7281 -0.1167
  179DOPC    HS21893   0.238   4.629  12.723  0.3516 -1.7569  1.3086
  179DOPC   O2121894   0.051   4.696  12.775 -0.0961 -0.8512 -0.1215
  179DOPC   C2121895  -0.001   4.583  12.822  1.0056 -0.6955  0.5018
  179DOPC   O2221896   0.057   4.475  12.833  0.1177  0.2172 -0.3430
  179DOPC   C2221897  -0.155   4.601  12.820 -0.8511 -0.2162 -0.7841
  179DOPC   H2R21898  -0.193   4.571  12.720 -2.3229  1.7178 -0.8657
  179DOPC   H2S21899  -0.165   4.711  12.831 -1.1957 -0.3495  0.2786
  179DOPC    C321900   0.250   4.729  12.926 -0.5734 -0.1087  0.1631
  179DOPC    HX21901   0.361   4.732  12.926 -0.5780  0.1999 -0.4337
  179DOPC    HY21902   0.213   4.635  12.974 -0.6028 -0.5866 -0.7640
  179DOPC   O3121903   0.199   4.852  12.982  0.2798  0.6660 -0.3482
  179DOPC   C3121904   0.227   4.867  13.109 -0.0633  0.5704 -0.2954
  179DOPC   O3221905   0.312   4.801  13.171  0.1029  0.2518 -0.2880
  179DOPC   C3221906   0.121   4.950  13.174 -0.0879  0.0770  0.5614
  179DOPC   H2X21907   0.129   5.052  13.130 -1.2598  0.7159  1.7570
  179DOPC   H2Y21908   0.020   4.908  13.156 -0.1473  0.9680 -1.5734
  179DOPC   C2321909  -0.217   4.514  12.935  0.2711  0.3965  0.5107
  179DOPC   H3R21910  -0.190   4.407  12.928  0.0839  0.3499  0.4893
  179DOPC   H3S21911  -0.324   4.509  12.906  0.6441 -0.8390 -0.7625
  179DOPC   C2421912  -0.195   4.568  13.079 -0.0824  0.2375  0.1725
  179DOPC   H4R21913  -0.086   4.552  13.096  0.1527 -1.5321 -2.3602
  179DOPC   H4S21914  -0.258   4.498  13.138 -1.0663  0.2982 -0.7811
  179DOPC   C2521915  -0.235   4.710  13.100  0.6436 -0.3925 -0.5825
  179DOPC   H5R21916  -0.338   4.720  13.058  0.8231 -0.2316 -0.9832
  179DOPC   H5S21917  -0.179   4.789  13.046 -0.4503  1.1206  0.4034
  179DOPC   C2621918  -0.235   4.755  13.245  0.7734  0.5902 -0.5341
  179DOPC   H6R21919  -0.131   4.749  13.285  0.9236  1.1374 -0.8277
  179DOPC   H6S21920  -0.294   4.675  13.293  1.1188  0.0652 -0.9699
  179DOPC   C2721921  -0.302   4.889  13.266  0.2859 -0.4972  0.5708
  179DOPC   H7R21922  -0.409   4.878  13.241  0.4052  0.7020 -0.5752
  179DOPC   H7S21923  -0.258   4.955  13.188 -0.6001 -1.4148 -0.7548
  179DOPC   C2821924  -0.274   4.951  13.405 -0.7817 -0.4464 -1.2300
  179DOPC   H8R21925  -0.165   4.952  13.425 -0.9135  1.6339 -0.3522
  179DOPC   H8S21926  -0.304   4.873  13.478 -0.0388 -1.5964 -2.1113
  179DOPC   C2921927  -0.339   5.077  13.429 -0.2259  0.0736  0.4962
  179DOPC   H9R21928  -0.404   5.123  13.353  1.8674  0.6928 -1.0149
  179DOPC  C21021929  -0.312   5.147  13.543  0.3289 -0.0798 -0.1431
  179DOPC  H10R21930  -0.355   5.248  13.549  0.2035 -0.1821  0.7663
  179DOPC  C21121931  -0.237   5.095  13.658 -0.1284  0.2763  0.1279
  179DOPC  H11R21932  -0.152   5.024  13.644 -0.1839  0.4387 -1.2645
  179DOPC  H11S21933  -0.307   5.028  13.711 -0.3087  0.4274  0.0812
  179DOPC  C21221934  -0.182   5.205  13.758  0.1811 -0.5436  0.0339
  179DOPC  H12R21935  -0.128   5.153  13.840  0.2374 -1.4681 -0.5730
  179DOPC  H12S21936  -0.261   5.271  13.798  0.5653  1.2229 -1.9296
  179DOPC  C21321937  -0.075   5.294  13.691  0.2744 -0.0801  0.1981
  179DOPC  H13R21938  -0.100   5.303  13.583 -1.7297  1.7704  0.7485
  179DOPC  H13S21939   0.026   5.249  13.701  0.3849  0.0211 -0.4417
  179DOPC  C21421940  -0.067   5.439  13.750 -0.4858  0.0060 -0.1298
  179DOPC  H14R21941   0.030   5.478  13.712 -0.8180  0.2973 -0.6891
  179DOPC  H14S21942  -0.056   5.424  13.860 -1.8096  1.3131  0.2058
  179DOPC  C21521943  -0.185   5.534  13.717  0.1840  0.2881  0.8252
  179DOPC  H15R21944  -0.281   5.478  13.719  1.1148 -1.5375 -1.4878
  179DOPC  H15S21945  -0.184   5.576  13.615 -0.4426  1.9391  1.4649
  179DOPC  C21621946  -0.199   5.665  13.806  0.3868 -0.1077  0.7048
  179DOPC  H16R21947  -0.096   5.706  13.799  0.3099 -0.0656 -0.2833
  179DOPC  H16S21948  -0.219   5.632  13.910 -0.6952 -0.4398  0.4003
  179DOPC  C21721949  -0.301   5.770  13.750 -0.3211  0.0454  0.1895
  179DOPC  H17R21950  -0.400   5.721  13.760 -0.5005  0.2477 -0.5387
  179DOPC  H17S21951  -0.273   5.789  13.644  1.5357  2.1338  0.9773
  179DOPC  C21821952  -0.300   5.907  13.830 -0.4982 -0.7685 -0.3660
  179DOPC  H18R21953  -0.197   5.950  13.830 -0.6197 -0.4754 -0.5335
  179DOPC  H18S21954  -0.324   5.885  13.937 -0.3207  0.3021 -0.0905
  179DOPC  H18T21955  -0.377   5.972  13.784 -0.2667 -0.5089 -0.3902
  179DOPC   C3321956   0.150   4.959  13.321 -0.0949  0.3729 -0.8861
  179DOPC   H3X21957   0.081   5.039  13.355  1.3914  1.1800  0.4191
  179DOPC   H3Y21958   0.253   4.996  13.342 -0.4453 -0.1366  2.2198
  179DOPC   C3421959   0.133   4.825  13.393  0.0209  0.4975 -0.0185
  179DOPC   H4X21960   0.231   4.772  13.395 -0.6334 -0.7385  1.7462
  179DOPC   H4Y21961   0.061   4.744  13.371 -0.4431  0.1215  2.4999
  179DOPC   C3521962   0.114   4.866  13.550 -0.4677  0.0388  0.2706
  179DOPC   H5X21963   0.035   4.942  13.562  1.1674  1.7621  0.5240
  179DOPC   H5Y21964   0.212   4.910  13.580  0.1124  0.5261 -2.1199
  179DOPC   C3621965   0.091   4.745  13.638  0.3880  0.2900 -0.4611
  179DOPC   H6X21966  -0.004   4.693  13.613  0.3625  0.5113 -0.8274
  179DOPC   H6Y21967   0.174   4.675  13.615  0.9355  1.8242 -3.7643
  179DOPC   C3721968   0.089   4.773  13.793  0.1472 -0.2190 -0.4485
  179DOPC   H7X21969  -0.018   4.792  13.814  0.8117  1.7887  1.5694
  179DOPC   H7Y21970   0.100   4.683  13.858 -2.3427  0.7886  1.5175
  179DOPC   C3821971   0.171   4.886  13.860 -0.5360 -0.4234  0.3089
  179DOPC   H8X21972   0.143   4.985  13.818  0.4163 -0.3757 -0.2317
  179DOPC   H8Y21973   0.276   4.863  13.832 -0.0352 -0.0081  1.8025
  179DOPC   C3921974   0.144   4.880  14.008 -0.0917  0.4923 -0.3752
  179DOPC   H9X21975   0.039   4.871  14.037 -0.2024  3.8200  0.6096
  179DOPC  C31021976   0.240   4.911  14.104 -0.7640  0.2475 -0.1952
  179DOPC  H10X21977   0.217   4.921  14.211 -1.4871  0.8694 -0.4031
  179DOPC  C31121978   0.388   4.941  14.077 -0.3712 -0.4363  0.1262
  179DOPC  H11X21979   0.430   4.879  13.995  2.2113  2.2530 -0.7454
  179DOPC  H11Y21980   0.440   4.927  14.175 -0.1922  1.8645  0.4077
  179DOPC  C31221981   0.412   5.088  14.039  0.4719  0.1577  0.5088
  179DOPC  H12X21982   0.375   5.146  14.125  0.6353 -3.2535  3.0692
  179DOPC  H12Y21983   0.359   5.107  13.943  0.5727  1.8067  0.7537
  179DOPC  C31321984   0.556   5.110  14.009 -0.4768 -0.4722 -0.0984
  179DOPC  H13X21985   0.623   5.058  14.080 -0.8872 -0.1235  0.5527
  179DOPC  H13Y21986   0.578   5.059  13.913 -1.2640  0.3576 -0.7382
  179DOPC  C31421987   0.584   5.259  13.983 -0.2056 -0.1841  0.2099
  179DOPC  H14X21988   0.570   5.313  14.079  0.9303 -0.2278  0.4162
  179DOPC  H14Y21989   0.690   5.266  13.952 -1.0261 -1.5782 -3.5414
  179DOPC  C31521990   0.502   5.322  13.872  0.2720 -0.0082 -0.5629
  179DOPC  H15X21991   0.539   5.426  13.862  1.1224 -0.2439  0.0685
  179DOPC  H15Y21992   0.397   5.334  13.906  0.3894  1.7993 -0.7697
  179DOPC  C31621993   0.502   5.260  13.732 -0.2615  0.1779  0.3567
  179DOPC  H16X21994   0.600   5.290  13.689  1.2125  2.3073  4.6232
  179DOPC  H16Y21995   0.491   5.149  13.738 -0.3692  0.1834  0.2674
  179DOPC  C31721996   0.402   5.313  13.631  0.2101 -0.3366  0.0337
  179DOPC  H17X21997   0.297   5.292  13.663  0.9382 -0.1424  2.7988
  179DOPC  H17Y21998   0.423   5.422  13.630 -0.2812 -0.1516  2.5852
  179DOPC  C31821999   0.427   5.265  13.488 -0.0289  0.4986  0.3454
  179DOPC  H18X22000   0.529   5.295  13.457  0.7119 -2.2620 -0.1960
  179DOPC  H18Y22001   0.409   5.156  13.477  0.9303  0.4435 -0.8928
  179DOPC  H18Z22002   0.349   5.313  13.425 -0.4297  0.3575  0.7282
  180DOPC     N22003   7.789   2.418  12.101  0.6677 -0.2268 -0.9213
  180DOPC   C1222004   7.807   2.287  12.173 -0.0929  0.6768 -0.2358
  180DOPC  H12A22005   7.847   2.226  12.094  2.0739  2.0621 -0.2805
  180DOPC  H12B22006   7.710   2.246  12.198  0.7194 -0.7219  0.7810
  180DOPC   C1322007   7.725   2.520  12.190  0.5344 -0.2629  0.5880
  180DOPC  H13A22008   7.749   2.508  12.295  0.4322 -2.7043  0.3883
  180DOPC  H13B22009   7.754   2.619  12.158  1.9815 -1.3598 -1.8236
  180DOPC  H13C22010   7.618   2.506  12.196  0.4005 -0.7888 -1.9113
  180DOPC   C1422011   7.701   2.400  11.982  0.1481  0.6014 -0.0948
  180DOPC  H14A22012   7.700   2.494  11.929 -0.4606  1.5866  1.6073
  180DOPC  H14B22013   7.713   2.316  11.914  1.7053  1.9966 -1.6242
  180DOPC  H14C22014   7.602   2.378  12.018  0.5506  0.3504  0.8722
  180DOPC   C1522015   7.924   2.457  12.046 -0.5779  0.2934 -0.7395
  180DOPC  H15A22016   7.991   2.477  12.128 -0.2728  0.0312 -0.9215
  180DOPC  H15B22017   7.922   2.536  11.973 -0.2634 -0.2101 -1.3023
  180DOPC  H15C22018   7.972   2.376  11.991  2.2990  1.9737 -0.9249
  180DOPC   C1122019   7.903   2.274  12.300 -0.1942 -0.6420 -0.1886
  180DOPC  H11A22020   7.881   2.358  12.369  2.2685  0.4661 -0.6559
  180DOPC  H11B22021   7.864   2.177  12.338 -2.4602 -0.8108 -2.6354
  180DOPC     P22022   8.149   2.175  12.320 -0.0529  0.0336  0.0031
  180DOPC   O1322023   8.279   2.184  12.244  0.0924  0.5792  0.7464
  180DOPC   O1422024   8.085   2.044  12.319 -0.8133  0.6000 -0.9125
  180DOPC   O1222025   8.043   2.282  12.273 -0.1509 -0.0773  0.6567
  180DOPC   O1122026   8.181   2.223  12.464  0.5433  0.0576  0.3912
  180DOPC    C122027   8.199   2.355  12.513 -0.5368 -0.0041 -0.7875
  180DOPC    HA22028   8.140   2.421  12.445  1.2959  0.7300 -1.7425
  180DOPC    HB22029   8.302   2.392  12.495  0.1780 -0.4272  1.9625
  180DOPC    C222030   8.148   2.388  12.660 -0.0116  0.2987 -0.4191
  180DOPC    HS22031   8.159   2.498  12.671 -4.3553  0.8146  0.5221
  180DOPC   O2122032   8.210   2.298  12.762  0.3279  0.1962  0.3232
  180DOPC   C2122033   8.336   2.336  12.789  0.9349 -0.1687 -0.2699
  180DOPC   O2222034   8.382   2.444  12.762 -0.2052  0.0569 -0.4493
  180DOPC   C2222035   8.398   2.223  12.864 -0.9547 -0.1207 -0.3327
  180DOPC   H2R22036   8.392   2.142  12.788 -1.0813 -0.5388  0.1155
  180DOPC   H2S22037   8.340   2.192  12.953  0.5691  0.1753  0.7953
  180DOPC    C322038   7.991   2.359  12.670 -0.4842  0.4525  0.5537
  180DOPC    HX22039   7.992   2.249  12.681  0.4583  0.6208  2.6516
  180DOPC    HY22040   7.942   2.397  12.578  0.6212 -1.3631 -0.8447
  180DOPC   O3122041   7.942   2.406  12.792 -0.3479  0.7417 -0.5071
  180DOPC   C3122042   7.877   2.521  12.786 -0.4027  0.1870  0.1347
  180DOPC   O3222043   7.861   2.595  12.693 -0.0859  0.1018 -0.2863
  180DOPC   C3222044   7.816   2.551  12.924 -0.1958 -0.0117 -0.0600
  180DOPC   H2X22045   7.801   2.461  12.987 -3.3097  0.9119  0.6934
  180DOPC   H2Y22046   7.884   2.626  12.970  0.3987  1.9280 -3.7549
  180DOPC   C2322047   8.551   2.249  12.896  0.1322 -0.0092  0.6575
  180DOPC   H3R22048   8.560   2.336  12.964  1.5544  0.0015  0.4894
  180DOPC   H3S22049   8.616   2.274  12.809  1.1292  2.1653  1.9483
  180DOPC   C2422050   8.608   2.131  12.970 -0.3585  0.0354  0.3324
  180DOPC   H4R22051   8.612   2.043  12.902  0.7614  0.6097 -0.3799
  180DOPC   H4S22052   8.557   2.107  13.065 -0.1450 -0.2532  0.3760
  180DOPC   C2522053   8.756   2.165  13.013  0.7835  0.1258  0.8242
  180DOPC   H5R22054   8.749   2.224  13.107 -1.1585 -0.1649  0.9157
  180DOPC   H5S22055   8.801   2.229  12.935 -1.5111  1.8478  0.8119
  180DOPC   C2622056   8.838   2.044  13.038 -0.0311 -0.9162 -0.3084
  180DOPC   H6R22057   8.941   2.078  13.059 -0.7694  1.5603 -0.3490
  180DOPC   H6S22058   8.838   1.979  12.948 -1.2366 -0.1708 -0.8748
  180DOPC   C2722059   8.784   1.950  13.146  0.2521 -0.4493 -0.3726
  180DOPC   H7R22060   8.831   1.851  13.131  0.3744 -0.4617  0.0651
  180DOPC   H7S22061   8.677   1.937  13.119  0.9157 -0.0728 -3.4692
  180DOPC   C2822062   8.807   1.996  13.293 -0.0431  0.6108  0.3406
  180DOPC   H8R22063   8.757   2.094  13.310 -1.3943  0.2564 -1.3114
  180DOPC   H8S22064   8.917   1.999  13.302  0.1725 -0.4939 -1.4402
  180DOPC   C2922065   8.747   1.895  13.389  0.1467 -0.2209  0.3500
  180DOPC   H9R22066   8.675   1.826  13.341  0.2902 -0.4490  0.4566
  180DOPC  C21022067   8.792   1.862  13.514 -0.1394  0.3662  0.0010
  180DOPC  H10R22068   8.742   1.780  13.568 -0.5548  1.9800  2.2022
  180DOPC  C21122069   8.913   1.930  13.585  0.2362 -0.1858  0.5497
  180DOPC  H11R22070   8.927   2.028  13.536 -1.4182  1.3167  2.8773
  180DOPC  H11S22071   9.004   1.870  13.564  0.3407 -0.2035  1.0305
  180DOPC  C21222072   8.894   1.943  13.739 -0.1378  0.5757  0.9559
  180DOPC  H12R22073   8.999   1.962  13.771  1.6174 -0.4572 -3.3608
  180DOPC  H12S22074   8.862   1.846  13.781  0.1985  1.0723  2.3975
  180DOPC  C21322075   8.791   2.043  13.784  0.8454 -0.5711  0.1193
  180DOPC  H13R22076   8.777   2.039  13.894  1.1098  0.9034  0.2228
  180DOPC  H13S22077   8.700   2.012  13.729  0.8812 -1.1726  0.3874
  180DOPC  C21422078   8.827   2.187  13.751 -0.4822 -0.1477  0.5097
  180DOPC  H14R22079   8.787   2.216  13.651  1.8771 -0.1529 -0.5017
  180DOPC  H14S22080   8.937   2.197  13.739 -0.4972  0.3360  0.7474
  180DOPC  C21522081   8.801   2.292  13.861 -0.5858 -0.4463 -0.0771
  180DOPC  H15R22082   8.879   2.371  13.854 -0.9332 -0.1911 -1.1854
  180DOPC  H15S22083   8.828   2.223  13.944  0.0107 -0.7840 -0.5429
  180DOPC  C21622084   8.661   2.351  13.863 -0.4569  0.4591  0.0492
  180DOPC  H16R22085   8.588   2.287  13.810  0.6032 -0.6001 -0.1952
  180DOPC  H16S22086   8.682   2.444  13.806  0.5785  1.0046  1.2728
  180DOPC  C21722087   8.621   2.395  14.001  0.7879 -0.2768  0.3096
  180DOPC  H17R22088   8.700   2.464  14.039  0.6352  0.4271 -0.6334
  180DOPC  H17S22089   8.628   2.302  14.062  0.2121 -0.1853  0.5241
  180DOPC  C21822090   8.489   2.463  14.014  0.5015 -0.0396  0.1346
  180DOPC  H18R22091   8.470   2.480  14.123 -1.0834 -2.5924  0.3392
  180DOPC  H18S22092   8.406   2.406  13.967 -0.0065  3.0243 -3.0738
  180DOPC  H18T22093   8.485   2.566  13.974 -2.4704 -0.1415 -0.1033
  180DOPC   C3322094   7.676   2.616  12.909  0.0376 -0.2188  0.1164
  180DOPC   H3X22095   7.679   2.706  12.844 -0.5073  0.7817  1.4151
  180DOPC   H3Y22096   7.649   2.653  13.011  0.3717  1.2085 -0.2918
  180DOPC   C3422097   7.563   2.514  12.858  0.4584 -0.2017 -0.4561
  180DOPC   H4X22098   7.564   2.421  12.918  0.0689  1.1779  1.8337
  180DOPC   H4Y22099   7.590   2.498  12.751  1.8600  0.6967 -0.2588
  180DOPC   C3522100   7.421   2.569  12.855  0.7879 -0.0902  0.3787
  180DOPC   H5X22101   7.395   2.624  12.948  0.3682 -0.3680  0.4311
  180DOPC   H5Y22102   7.335   2.498  12.854 -0.0249  0.8432 -1.7024
  180DOPC   C3622103   7.396   2.679  12.740 -0.0661  1.1257 -0.4192
  180DOPC   H6X22104   7.483   2.746  12.722  0.6806  0.0369 -1.0314
  180DOPC   H6Y22105   7.390   2.613  12.650 -3.1123  0.8659 -0.1166
  180DOPC   C3722106   7.255   2.752  12.761 -0.5093  0.3727  0.0829
  180DOPC   H7X22107   7.182   2.683  12.810  0.0201  0.6292  1.2742
  180DOPC   H7Y22108   7.259   2.839  12.830 -1.7257 -0.0430  0.7228
  180DOPC   C3822109   7.188   2.799  12.622 -0.5172 -0.5040 -0.2117
  180DOPC   H8X22110   7.078   2.799  12.631 -0.5315  2.6914  0.6999
  180DOPC   H8Y22111   7.224   2.725  12.547 -1.2980  1.2026 -2.3420
  180DOPC   C3922112   7.225   2.932  12.574 -0.4203  0.1693 -0.3383
  180DOPC   H9X22113   7.309   2.937  12.503  0.3910 -0.3389  0.5511
  180DOPC  C31022114   7.178   3.051  12.618  0.0361  0.2518  0.1785
  180DOPC  H10X22115   7.222   3.144  12.579  1.8704 -0.5960  0.0855
  180DOPC  C31122116   7.068   3.062  12.725  0.2387 -0.3898  0.3688
  180DOPC  H11X22117   7.012   2.969  12.750  0.3663 -0.6610 -0.3443
  180DOPC  H11Y22118   7.006   3.133  12.666  1.2966 -0.7359 -1.2223
  180DOPC  C31222119   7.106   3.119  12.865 -0.5759 -0.3440  0.1136
  180DOPC  H12X22120   7.142   3.222  12.841  0.7742 -1.1170 -1.3599
  180DOPC  H12Y22121   7.184   3.060  12.918  0.7886  1.1697 -0.1250
  180DOPC  C31322122   6.979   3.150  12.950 -0.1336 -0.6536  0.0082
  180DOPC  H13X22123   6.909   3.207  12.885 -0.9043 -0.4405  0.9930
  180DOPC  H13Y22124   6.932   3.057  12.988 -0.1385 -0.0573  1.5297
  180DOPC  C31422125   6.997   3.241  13.074  0.0384  0.4148 -0.2477
  180DOPC  H14X22126   7.064   3.196  13.150 -1.4374  1.1782  1.5873
  180DOPC  H14Y22127   7.055   3.324  13.028 -0.6815  1.1402  0.1284
  180DOPC  C31522128   6.868   3.295  13.140  0.3924 -0.1796 -0.4104
  180DOPC  H15X22129   6.807   3.210  13.177  0.3917 -1.1172 -2.4470
  180DOPC  H15Y22130   6.801   3.356  13.077 -0.1920  0.9248  1.1938
  180DOPC  C31622131   6.903   3.385  13.261 -0.2413  0.0246  0.2832
  180DOPC  H16X22132   6.971   3.327  13.326 -0.0832  1.0344  1.0359
  180DOPC  H16Y22133   6.962   3.475  13.230  0.3129 -0.6571 -0.7185
  180DOPC  C31722134   6.774   3.416  13.343 -0.2550  0.4403 -0.2247
  180DOPC  H17X22135   6.709   3.465  13.268 -2.7893  0.2123  1.7046
  180DOPC  H17Y22136   6.722   3.327  13.384 -1.5560  1.3282  0.0986
  180DOPC  C31822137   6.806   3.514  13.458 -0.7928  0.0850 -0.6306
  180DOPC  H18X22138   6.902   3.480  13.501 -0.3347  0.9379 -0.9495
  180DOPC  H18Y22139   6.838   3.607  13.405  2.1255 -0.9493 -0.8778
  180DOPC  H18Z22140   6.726   3.526  13.534 -0.1955  3.9925 -0.3930
  181DOPC     N22141   3.607   4.438  12.151  0.0973 -0.1644  0.4733
  181DOPC   C1222142   3.588   4.333  12.252  0.1748  1.1538 -1.0268
  181DOPC  H12A22143   3.676   4.318  12.312 -1.4275 -1.1017  0.9688
  181DOPC  H12B22144   3.576   4.236  12.206 -0.2785  1.3023 -1.2357
  181DOPC   C1322145   3.496   4.448  12.041 -0.5835  0.5975 -0.2076
  181DOPC  H13A22146   3.518   4.518  11.963 -1.1757 -0.9535 -1.8204
  181DOPC  H13B22147   3.480   4.358  11.984  0.2843  0.1947  0.1707
  181DOPC  H13C22148   3.407   4.487  12.089 -0.5994 -0.9018  1.1047
  181DOPC   C1422149   3.738   4.414  12.076 -0.1850  0.6055  0.3407
  181DOPC  H14A22150   3.760   4.502  12.017 -2.7215  1.5587  0.6800
  181DOPC  H14B22151   3.820   4.403  12.145  0.0581  0.4955  0.0361
  181DOPC  H14C22152   3.731   4.325  12.016 -1.8842  0.2091  1.0643
  181DOPC   C1522153   3.622   4.569  12.230 -0.3073  0.5956  0.1653
  181DOPC  H15A22154   3.704   4.560  12.299 -0.3723  0.2480  0.1961
  181DOPC  H15B22155   3.530   4.582  12.284 -1.2733 -1.6754 -0.8275
  181DOPC  H15C22156   3.647   4.649  12.161 -1.6568  0.2196 -0.8117
  181DOPC   C1122157   3.480   4.358  12.357  0.6834  0.2207  0.3580
  181DOPC  H11A22158   3.387   4.396  12.309  1.3734  0.3272 -0.9333
  181DOPC  H11B22159   3.449   4.264  12.407  1.3556 -0.8319 -1.1644
  181DOPC     P22160   3.633   4.427  12.559 -0.4462  0.2688  0.0212
  181DOPC   O1322161   3.650   4.550  12.640 -0.3344 -0.1918 -0.1102
  181DOPC   O1422162   3.748   4.370  12.482  0.1028  0.5031 -0.6686
  181DOPC   O1222163   3.517   4.454  12.456  0.3042 -0.0909  0.1907
  181DOPC   O1122164   3.565   4.319  12.647 -0.6063 -0.0946  0.4460
  181DOPC    C122165   3.428   4.330  12.679 -0.5177  0.4284 -0.2540
  181DOPC    HA22166   3.374   4.242  12.635  1.5952 -0.7925 -0.5408
  181DOPC    HB22167   3.374   4.418  12.639 -3.6924 -0.9613  0.6559
  181DOPC    C222168   3.389   4.336  12.836  0.5403 -0.4286  0.2546
  181DOPC    HS22169   3.417   4.432  12.885 -0.3357 -1.3445  2.6906
  181DOPC   O2122170   3.451   4.221  12.897  0.3139 -0.1968 -0.0778
  181DOPC   C2122171   3.574   4.236  12.947 -0.0993 -0.2133  0.5697
  181DOPC   O2222172   3.639   4.338  12.955 -0.4191  0.2891  0.2911
  181DOPC   C2222173   3.607   4.098  13.003 -0.3577 -0.0598 -0.1888
  181DOPC   H2R22174   3.663   4.050  12.920 -0.1191 -1.3386  0.6765
  181DOPC   H2S22175   3.514   4.044  13.030  0.7683 -1.5011  0.9772
  181DOPC    C322176   3.236   4.336  12.858  0.2874  0.2756  0.2800
  181DOPC    HX22177   3.199   4.236  12.827  1.0021  0.1108 -0.0567
  181DOPC    HY22178   3.189   4.412  12.791 -3.5743 -0.2377  2.1325
  181DOPC   O3122179   3.194   4.374  12.986  0.1254 -0.2183  0.2740
  181DOPC   C3122180   3.183   4.281  13.087  0.3704  0.3732  0.3745
  181DOPC   O3222181   3.191   4.160  13.068 -0.1289 -0.6584  0.0531
  181DOPC   C3222182   3.131   4.347  13.213 -0.2759 -0.5028  0.0700
  181DOPC   H2X22183   3.111   4.454  13.192  1.2252 -0.3587 -0.7445
  181DOPC   H2Y22184   3.034   4.296  13.233  0.0341 -1.9947 -1.9859
  181DOPC   C2322185   3.712   4.101  13.120 -0.2284  0.3975 -0.2318
  181DOPC   H3R22186   3.810   4.147  13.095  0.6603 -0.9230  0.7284
  181DOPC   H3S22187   3.735   3.996  13.147 -1.4498  0.5004  1.3645
  181DOPC   C2422188   3.666   4.180  13.238  0.1792  0.4380  0.0346
  181DOPC   H4R22189   3.564   4.145  13.264 -0.2248 -0.1902 -2.2154
  181DOPC   H4S22190   3.652   4.282  13.197  1.2609  0.2092 -0.9761
  181DOPC   C2522191   3.753   4.186  13.356  0.1236 -1.0417  0.2928
  181DOPC   H5R22192   3.843   4.247  13.335  0.4329 -1.7918 -0.6786
  181DOPC   H5S22193   3.781   4.081  13.382  2.4428  0.0244  2.5363
  181DOPC   C2622194   3.666   4.250  13.470 -0.3094 -0.2240 -0.1319
  181DOPC   H6R22195   3.589   4.180  13.510 -0.4131  1.4052  2.7767
  181DOPC   H6S22196   3.625   4.345  13.430  0.2617  0.5062  0.9766
  181DOPC   C2722197   3.750   4.309  13.587 -0.0053  0.3576  0.6451
  181DOPC   H7R22198   3.835   4.372  13.554  0.3879 -0.3463  0.2868
  181DOPC   H7S22199   3.800   4.222  13.635  1.2609 -0.2008 -1.5374
  181DOPC   C2822200   3.664   4.390  13.686 -0.1495  0.2610 -0.1166
  181DOPC   H8R22201   3.734   4.413  13.769  0.1229  1.0576 -0.5634
  181DOPC   H8S22202   3.585   4.324  13.729  0.4456 -0.0746  0.4883
  181DOPC   C2922203   3.602   4.519  13.636  0.0240 -0.0164  0.4718
  181DOPC   H9R22204   3.514   4.506  13.572  0.6408 -3.9743  0.2218
  181DOPC  C21022205   3.626   4.650  13.661 -0.5561  0.7056 -0.3236
  181DOPC  H10R22206   3.577   4.730  13.603  0.4822  0.6397 -1.3430
  181DOPC  C21122207   3.745   4.692  13.742 -0.1799 -0.5287  0.0355
  181DOPC  H11R22208   3.807   4.762  13.681  0.1639 -1.8231 -1.1581
  181DOPC  H11S22209   3.821   4.615  13.769  1.3477 -0.3742 -3.3961
  181DOPC  C21222210   3.693   4.756  13.871 -0.4139  0.6344 -0.4628
  181DOPC  H12R22211   3.615   4.834  13.854  1.1097  1.9834 -1.5327
  181DOPC  H12S22212   3.775   4.811  13.922  0.2053 -0.9837  0.3425
  181DOPC  C21322213   3.626   4.650  13.965 -0.0936 -0.7084  0.2557
  181DOPC  H13R22214   3.709   4.577  13.981  1.2005  0.6023 -0.2598
  181DOPC  H13S22215   3.544   4.605  13.906 -0.8254  0.1881  0.5712
  181DOPC  C21422216   3.578   4.708  14.097  0.3438  0.1827 -0.0474
  181DOPC  H14R22217   3.514   4.799  14.092 -0.0792  0.0815  2.3988
  181DOPC  H14S22218   3.669   4.746  14.147  0.1269 -0.0332  0.5229
  181DOPC  C21522219   3.502   4.605  14.188  0.3070 -0.1056 -0.2475
  181DOPC  H15R22220   3.575   4.529  14.224  0.4733  0.2242  0.1100
  181DOPC  H15S22221   3.429   4.555  14.120  1.4594  1.1137 -2.4923
  181DOPC  C21622222   3.423   4.664  14.308  0.4335  0.2031  0.0607
  181DOPC  H16R22223   3.346   4.734  14.268 -1.9800 -2.5295 -0.3639
  181DOPC  H16S22224   3.491   4.722  14.374 -2.2733  1.5433  1.8724
  181DOPC  C21722225   3.349   4.566  14.396 -0.4827  0.1342  0.6383
  181DOPC  H17R22226   3.412   4.475  14.408 -1.5285 -0.6328  0.4910
  181DOPC  H17S22227   3.259   4.534  14.338 -0.5304 -0.6074  1.0974
  181DOPC  C21822228   3.309   4.625  14.530 -0.3222 -0.4654 -0.5912
  181DOPC  H18R22229   3.382   4.690  14.582 -0.6524 -0.3230 -0.2947
  181DOPC  H18S22230   3.275   4.546  14.601  0.9930  0.3513  1.0098
  181DOPC  H18T22231   3.227   4.700  14.521  0.6013  0.4184 -1.9859
  181DOPC   C3322232   3.227   4.327  13.336 -0.1345 -0.6000  0.7553
  181DOPC   H3X22233   3.323   4.378  13.317 -0.8294  0.7484  0.7332
  181DOPC   H3Y22234   3.258   4.221  13.347 -0.8866 -0.8190  0.8197
  181DOPC   C3422235   3.173   4.371  13.471 -0.4932 -0.1720  0.5402
  181DOPC   H4X22236   3.063   4.388  13.469 -0.7995 -1.3864  3.0893
  181DOPC   H4Y22237   3.220   4.469  13.495 -0.9785  0.6185 -1.4938
  181DOPC   C3522238   3.212   4.271  13.585 -0.1851 -0.0494 -0.4138
  181DOPC   H5X22239   3.323   4.270  13.593 -0.1747 -0.3152 -0.6116
  181DOPC   H5Y22240   3.172   4.169  13.568  0.2627 -0.4817  0.9745
  181DOPC   C3622241   3.171   4.329  13.722  0.5225 -0.9476  0.8675
  181DOPC   H6X22242   3.229   4.424  13.730 -0.0367 -0.6780  1.8301
  181DOPC   H6Y22243   3.061   4.327  13.733  0.3034 -1.3572 -1.0415
  181DOPC   C3722244   3.212   4.229  13.841  0.3139 -0.0024 -0.0054
  181DOPC   H7X22245   3.152   4.136  13.837 -0.1116  0.2948 -0.6982
  181DOPC   H7Y22246   3.312   4.183  13.826 -0.5329 -2.6269  1.7212
  181DOPC   C3822247   3.208   4.300  13.977 -0.0104  0.6740 -0.9515
  181DOPC   H8X22248   3.253   4.399  13.957 -1.0630  0.8975 -2.3730
  181DOPC   H8Y22249   3.270   4.249  14.054  1.1882  1.8110 -1.1430
  181DOPC   C3922250   3.064   4.331  14.014  0.6308  0.2183  0.2373
  181DOPC   H9X22251   3.003   4.240  14.016  2.1119 -0.8266  2.1267
  181DOPC  C31022252   3.003   4.450  14.042 -0.0205 -0.4497  0.3514
  181DOPC  H10X22253   2.893   4.450  14.044 -0.0150 -0.3473  0.7314
  181DOPC  C31122254   3.071   4.581  14.049  0.1333  1.1707 -0.3608
  181DOPC  H11X22255   3.178   4.580  14.019  0.7013  0.3615  1.5681
  181DOPC  H11Y22256   3.073   4.618  14.154 -0.9753  1.7803 -0.5430
  181DOPC  C31222257   3.003   4.693  13.984 -0.0330  0.0161  0.0560
  181DOPC  H12X22258   3.023   4.787  14.040  2.4865 -1.3609  1.6145
  181DOPC  H12Y22259   2.892   4.681  13.983 -0.2259  1.4758 -1.2986
  181DOPC  C31322260   3.036   4.697  13.835 -0.0519  0.1336 -0.7325
  181DOPC  H13X22261   3.028   4.602  13.777  0.1834 -2.1366  2.6629
  181DOPC  H13Y22262   2.961   4.762  13.784 -1.4279  0.8701  2.0548
  181DOPC  C31422263   3.161   4.782  13.805  0.6900  0.0253  0.1300
  181DOPC  H14X22264   3.164   4.876  13.864 -2.8450 -0.1061  0.7546
  181DOPC  H14Y22265   3.254   4.727  13.830  0.1594 -1.4846 -1.0569
  181DOPC  C31522266   3.176   4.801  13.655 -0.3852  1.0085  0.8606
  181DOPC  H15X22267   3.085   4.839  13.603  0.6732  0.1980 -1.7471
  181DOPC  H15Y22268   3.205   4.706  13.605  1.0079  1.1528  1.3462
  181DOPC  C31622269   3.287   4.899  13.617  0.4023 -0.1443 -0.0434
  181DOPC  H16X22270   3.242   4.997  13.642  2.0103  0.5917  0.0863
  181DOPC  H16Y22271   3.371   4.893  13.689  0.6240  0.5216 -0.2393
  181DOPC  C31722272   3.343   4.901  13.479  0.0106  0.5967 -0.1473
  181DOPC  H17X22273   3.342   4.797  13.440  0.6603 -0.0497  1.4915
  181DOPC  H17Y22274   3.267   4.950  13.415 -0.8455 -0.7277 -0.1790
  181DOPC  C31822275   3.477   4.975  13.475  0.1009  0.7061  0.2079
  181DOPC  H18X22276   3.488   5.016  13.372 -0.6217 -3.6648 -1.8303
  181DOPC  H18Y22277   3.463   5.071  13.529 -1.9972  1.4732 -1.5247
  181DOPC  H18Z22278   3.564   4.916  13.511 -1.5721 -4.3290 -3.0210
  182DOPC     N22279   1.921   0.401  12.032 -0.3174 -0.2071  0.0551
  182DOPC   C1222280   1.875   0.258  12.081  0.3735 -1.1210  1.1727
  182DOPC  H12A22281   1.932   0.232  12.170  1.4866 -0.1003  0.7871
  182DOPC  H12B22282   1.911   0.181  12.014 -1.1681 -2.1822  1.5110
  182DOPC   C1322283   1.849   0.442  11.908  0.0644  0.5533  0.0787
  182DOPC  H13A22284   1.744   0.426  11.929  0.0841  0.4233  0.0743
  182DOPC  H13B22285   1.864   0.548  11.891  0.3836  0.9192  2.2772
  182DOPC  H13C22286   1.869   0.377  11.825  2.4760  0.5913  0.5661
  182DOPC   C1422287   2.061   0.416  12.008 -0.0436  0.6027  0.7094
  182DOPC  H14A22288   2.089   0.514  11.971  0.6567 -0.5137 -1.9719
  182DOPC  H14B22289   2.131   0.409  12.089 -0.9611  4.3334  2.0614
  182DOPC  H14C22290   2.094   0.347  11.932 -1.0011 -0.1094  0.9247
  182DOPC   C1522291   1.880   0.490  12.146 -0.7354 -0.6712  0.2223
  182DOPC  H15A22292   1.900   0.595  12.133  0.9089 -1.1970 -2.2363
  182DOPC  H15B22293   1.927   0.466  12.240 -0.6912  3.1450  1.3269
  182DOPC  H15C22294   1.774   0.485  12.167 -0.8914  1.9313  0.3034
  182DOPC   C1122295   1.728   0.215  12.109  0.2103 -0.5484 -0.9702
  182DOPC  H11A22296   1.670   0.242  12.018  0.1913  1.3135 -0.4388
  182DOPC  H11B22297   1.708   0.106  12.121  0.1221 -0.3879  0.6163
  182DOPC     P22298   1.742   0.236  12.367 -0.0676 -0.0571  0.0473
  182DOPC   O1322299   1.683   0.316  12.479  0.2500  0.2077  0.1843
  182DOPC   O1422300   1.891   0.250  12.371  0.0695 -1.0501  0.3012
  182DOPC   O1222301   1.681   0.279  12.227  0.3723  0.5408 -0.0294
  182DOPC   O1122302   1.710   0.086  12.393 -0.0544  0.1043 -0.3132
  182DOPC    C122303   1.582   0.032  12.377 -0.3470  0.7523 -0.3362
  182DOPC    HA22304   1.591  -0.078  12.379  1.7931  0.8576 -1.0879
  182DOPC    HB22305   1.545   0.044  12.273  2.4323 -0.7424 -1.6076
  182DOPC    C222306   1.480   0.068  12.482  0.3884 -0.1875 -0.2001
  182DOPC    HS22307   1.446   0.168  12.448  2.8214  0.8308  0.1427
  182DOPC   O2122308   1.545   0.065  12.613  0.1729  0.2600  0.2898
  182DOPC   C2122309   1.505   0.164  12.691 -0.9711  0.3737  0.5366
  182DOPC   O2222310   1.426   0.249  12.669 -0.3113 -0.6631  0.7830
  182DOPC   C2222311   1.586   0.161  12.818 -0.3792  0.1371 -0.3242
  182DOPC   H2R22312   1.635   0.259  12.832  0.6687 -0.5175  0.7644
  182DOPC   H2S22313   1.667   0.086  12.809 -0.4861  0.0162 -0.2857
  182DOPC    C322314   1.361  -0.033  12.479 -0.2248 -0.1244 -0.4419
  182DOPC    HX22315   1.397  -0.137  12.496 -1.0812 -0.2117  0.9526
  182DOPC    HY22316   1.312  -0.023  12.380 -0.6200  1.4443 -0.1174
  182DOPC   O3122317   1.262  -0.005  12.583 -0.0085  0.3733  0.5793
  182DOPC   C3122318   1.174   0.094  12.569  0.1863  0.1935  0.6245
  182DOPC   O3222319   1.170   0.166  12.467  0.0990 -0.8443  0.1226
  182DOPC   C3222320   1.093   0.127  12.695 -0.5312 -0.7909  0.3316
  182DOPC   H2X22321   1.046   0.028  12.717  0.8696 -1.8390 -1.1972
  182DOPC   H2Y22322   1.159   0.141  12.783 -0.3419 -0.7412  0.1831
  182DOPC   C2322323   1.495   0.136  12.940 -0.0419  0.2218 -0.0782
  182DOPC   H3R22324   1.389   0.128  12.907  0.5810 -0.6462 -1.9818
  182DOPC   H3S22325   1.498   0.225  13.006 -1.9050 -0.2429  0.7182
  182DOPC   C2422326   1.531   0.012  13.026 -0.3098 -0.1902  0.4584
  182DOPC   H4R22327   1.640   0.005  13.048 -0.0376  0.4516 -0.6385
  182DOPC   H4S22328   1.512  -0.075  12.960  0.2814  1.7928 -2.5267
  182DOPC   C2522329   1.442   0.002  13.145 -0.3101 -0.5383 -0.6424
  182DOPC   H5R22330   1.421   0.093  13.207 -3.6502 -2.2654  1.0107
  182DOPC   H5S22331   1.494  -0.077  13.203  1.8264  0.2044 -1.4260
  182DOPC   C2622332   1.301  -0.047  13.115  0.3705 -0.3739 -0.7627
  182DOPC   H6R22333   1.298  -0.132  13.044 -2.0386 -0.8976 -0.1287
  182DOPC   H6S22334   1.241   0.031  13.064 -0.3762 -0.6859 -0.3882
  182DOPC   C2722335   1.211  -0.087  13.235  0.0070 -0.4391 -0.2523
  182DOPC   H7R22336   1.235  -0.012  13.313 -0.0552  0.6188 -1.2241
  182DOPC   H7S22337   1.248  -0.187  13.266 -1.6876 -1.0000  0.0991
  182DOPC   C2822338   1.065  -0.080  13.202 -0.3310 -0.4665  0.1135
  182DOPC   H8R22339   1.043   0.019  13.159  0.8618  0.1204  0.7935
  182DOPC   H8S22340   1.015  -0.086  13.301  1.2483  0.2727  0.9990
  182DOPC   C2922341   1.012  -0.194  13.120  0.2873  0.6379  0.2094
  182DOPC   H9R22342   1.027  -0.183  13.012  3.1518  0.6908  0.5468
  182DOPC  C21022343   0.958  -0.314  13.153 -0.0318  0.2530 -0.2962
  182DOPC  H10R22344   0.941  -0.387  13.073 -1.6352 -1.4006  1.4688
  182DOPC  C21122345   0.936  -0.363  13.299 -0.0581  0.0031  0.9876
  182DOPC  H11R22346   1.010  -0.314  13.365  0.0532  1.8763 -0.4189
  182DOPC  H11S22347   0.955  -0.471  13.313 -2.7755 -0.8821 -1.0316
  182DOPC  C21222348   0.794  -0.334  13.349 -0.0857  0.4717 -0.4269
  182DOPC  H12R22349   0.721  -0.399  13.297  0.2730 -1.7434  1.6939
  182DOPC  H12S22350   0.769  -0.227  13.333 -0.0986  0.5616  0.1987
  182DOPC  C21322351   0.783  -0.351  13.504 -0.2381  0.1012  0.1555
  182DOPC  H13R22352   0.863  -0.285  13.544 -0.5765 -0.5749  2.0486
  182DOPC  H13S22353   0.807  -0.456  13.528  0.5496 -0.6643 -3.4287
  182DOPC  C21422354   0.644  -0.303  13.567 -0.5716 -0.4039  0.7886
  182DOPC  H14R22355   0.574  -0.381  13.531  2.2753 -2.3651 -0.9340
  182DOPC  H14S22356   0.616  -0.201  13.534  1.7499 -0.2811 -1.0899
  182DOPC  C21522357   0.643  -0.310  13.716  0.6337 -0.1408 -0.1684
  182DOPC  H15R22358   0.738  -0.268  13.756  1.4809 -0.2200 -2.0010
  182DOPC  H15S22359   0.650  -0.416  13.747  0.8646 -0.7132 -2.0446
  182DOPC  C21622360   0.515  -0.255  13.778 -0.2333 -0.7996 -0.1583
  182DOPC  H16R22361   0.423  -0.315  13.765 -1.0495 -0.1071  1.9285
  182DOPC  H16S22362   0.487  -0.160  13.726 -0.1878 -1.7472 -2.0139
  182DOPC  C21722363   0.526  -0.221  13.928  0.3696  0.1753  0.3531
  182DOPC  H17R22364   0.616  -0.157  13.943  1.4888 -1.0753 -0.7687
  182DOPC  H17S22365   0.564  -0.313  13.978 -0.4442 -1.6270 -2.1699
  182DOPC  C21822366   0.404  -0.171  14.000 -0.4616 -0.4757  0.0710
  182DOPC  H18R22367   0.427  -0.170  14.109  1.3016  1.3990 -0.2446
  182DOPC  H18S22368   0.305  -0.219  13.984 -1.2913  1.0404  0.4607
  182DOPC  H18T22369   0.387  -0.063  13.979 -0.6498 -0.3428  0.8589
  182DOPC   C3322370   0.984   0.237  12.676  0.1839 -0.2635 -0.2770
  182DOPC   H3X22371   0.957   0.219  12.570  1.9660  0.1019 -0.8453
  182DOPC   H3Y22372   1.035   0.336  12.683 -1.1834  0.3806  1.4142
  182DOPC   C3422373   0.867   0.222  12.777  0.4643  0.0168 -1.0146
  182DOPC   H4X22374   0.824   0.120  12.776 -2.1090  0.8296  3.0294
  182DOPC   H4Y22375   0.790   0.294  12.742 -0.2284 -0.2342 -0.0268
  182DOPC   C3522376   0.911   0.240  12.924 -0.5899 -0.4176 -0.2372
  182DOPC   H5X22377   0.985   0.321  12.939  0.9155 -1.7471 -0.1214
  182DOPC   H5Y22378   0.969   0.147  12.945  1.1798  0.4867 -0.9932
  182DOPC   C3622379   0.795   0.256  13.025 -0.1244  0.5092 -0.2060
  182DOPC   H6X22380   0.708   0.310  12.981  0.7291  0.3875 -2.1658
  182DOPC   H6Y22381   0.764   0.151  13.043  0.6234  0.1491 -0.9274
  182DOPC   C3722382   0.842   0.329  13.156 -0.1076  0.3261 -0.2562
  182DOPC   H7X22383   0.946   0.305  13.190  0.4783  1.0272 -1.4873
  182DOPC   H7Y22384   0.835   0.440  13.151 -0.6392  0.6460  3.9228
  182DOPC   C3822385   0.738   0.309  13.273  1.4689  0.3409 -0.4723
  182DOPC   H8X22386   0.641   0.357  13.248 -0.0629 -1.8450  0.9735
  182DOPC   H8Y22387   0.774   0.358  13.367 -0.6511 -1.0556  1.1488
  182DOPC   C3922388   0.713   0.159  13.314 -0.6228  0.3965 -0.4022
  182DOPC   H9X22389   0.803   0.098  13.298  0.4830  1.2817  1.9535
  182DOPC  C31022390   0.595   0.112  13.351 -0.3869  0.1995  0.1764
  182DOPC  H10X22391   0.602   0.006  13.381 -0.7988 -0.4892 -2.0287
  182DOPC  C31122392   0.458   0.179  13.337  0.0908  0.0761 -0.0164
  182DOPC  H11X22393   0.477   0.284  13.305 -1.3476  0.4528  0.2841
  182DOPC  H11Y22394   0.415   0.180  13.440  0.8314  0.9323  0.2955
  182DOPC  C31222395   0.354   0.119  13.248  0.6369 -0.3302 -1.0764
  182DOPC  H12X22396   0.394   0.140  13.146  0.5093  0.6862 -0.9294
  182DOPC  H12Y22397   0.254   0.157  13.278 -0.2648 -4.6789  2.4081
  182DOPC  C31322398   0.317  -0.029  13.274 -0.1732  0.0010 -0.6403
  182DOPC  H13X22399   0.236  -0.054  13.203  0.4339  1.3461 -1.8444
  182DOPC  H13Y22400   0.400  -0.097  13.244 -1.6615 -2.0390 -0.3588
  182DOPC  C31422401   0.276  -0.052  13.419 -0.4067 -0.3142 -0.1507
  182DOPC  H14X22402   0.357  -0.009  13.482  0.9293  0.1626 -2.0844
  182DOPC  H14Y22403   0.183   0.005  13.440  0.4304  0.1907  2.5025
  182DOPC  C31522404   0.248  -0.198  13.438  0.3259 -0.1579 -0.2856
  182DOPC  H15X22405   0.229  -0.213  13.546  0.7698 -2.1191 -0.4346
  182DOPC  H15Y22406   0.346  -0.247  13.418 -0.0045 -0.4619 -1.1871
  182DOPC  C31622407   0.133  -0.256  13.344  0.3415 -0.9935 -0.5106
  182DOPC  H16X22408   0.169  -0.240  13.240  1.0700 -0.0164 -0.1219
  182DOPC  H16Y22409   0.128  -0.366  13.353 -2.1056 -0.7687  2.4981
  182DOPC  C31722410  -0.006  -0.195  13.367 -0.3186  0.4308 -0.0315
  182DOPC  H17X22411  -0.027  -0.192  13.476  0.3244  3.3629  0.1182
  182DOPC  H17Y22412   0.004  -0.085  13.351  1.3378  0.3437  0.2171
  182DOPC  C31822413  -0.124  -0.249  13.283  0.6387 -0.3465  0.2101
  182DOPC  H18X22414  -0.092  -0.232  13.178  3.0234 -1.1155  0.7296
  182DOPC  H18Y22415  -0.141  -0.358  13.296  0.3370 -0.7063 -2.6348
  182DOPC  H18Z22416  -0.209  -0.187  13.319  2.3739  1.6737  1.0439
  183DOPC     N22417   0.808   3.804  11.997 -0.1634  0.4007  0.3116
  183DOPC   C1222418   0.874   3.764  12.126  0.1750 -0.0319  0.1010
  183DOPC  H12A22419   0.973   3.807  12.125 -0.2443  0.9817 -1.3319
  183DOPC  H12B22420   0.878   3.656  12.125 -0.5993 -0.0664 -0.4952
  183DOPC   C1322421   0.873   3.759  11.872 -0.3803 -0.0094 -0.1603
  183DOPC  H13A22422   0.888   3.653  11.886  2.4728  0.4997  1.4451
  183DOPC  H13B22423   0.823   3.775  11.778 -0.2357 -0.2795 -0.2855
  183DOPC  H13C22424   0.976   3.789  11.859 -0.2419  1.4798  3.2436
  183DOPC   C1422425   0.780   3.956  11.987 -0.1363 -0.3361  0.2483
  183DOPC  H14A22426   0.728   3.991  11.899  0.0510  0.5031  0.4563
  183DOPC  H14B22427   0.724   3.976  12.077 -1.0357 -2.1158  0.1298
  183DOPC  H14C22428   0.876   4.004  11.998  0.0624 -0.7725  0.4484
  183DOPC   C1522429   0.670   3.741  11.988 -0.8165 -0.3374  0.0445
  183DOPC  H15A22430   0.618   3.771  12.077 -0.4785 -0.8343  0.4123
  183DOPC  H15B22431   0.676   3.634  11.976 -2.7142 -0.3197 -1.6040
  183DOPC  H15C22432   0.620   3.779  11.900  0.5280 -1.6243 -1.3526
  183DOPC   C1122433   0.805   3.800  12.262 -1.7779 -0.8935 -0.5645
  183DOPC  H11A22434   0.878   3.768  12.340  0.7807  2.3480 -1.3521
  183DOPC  H11B22435   0.815   3.910  12.279 -0.1308 -1.2675  1.2429
  183DOPC     P22436   0.642   3.629  12.355  0.0592  0.0290  0.0203
  183DOPC   O1322437   0.745   3.531  12.313  1.1017 -0.0284  0.4999
  183DOPC   O1422438   0.501   3.593  12.339  0.7545 -0.0018  0.2578
  183DOPC   O1222439   0.670   3.764  12.284 -0.0013 -0.0039  0.1688
  183DOPC   O1122440   0.663   3.664  12.502  0.4181  0.3894  0.2626
  183DOPC    C122441   0.596   3.779  12.561 -0.0671 -0.2193 -0.3737
  183DOPC    HA22442   0.506   3.807  12.502  0.3880 -1.8736 -1.9231
  183DOPC    HB22443   0.672   3.860  12.569  0.1262 -0.2176 -1.9581
  183DOPC    C222444   0.542   3.745  12.704  0.4507  0.2269  0.3825
  183DOPC    HS22445   0.494   3.836  12.746 -1.7917 -0.1830 -1.1189
  183DOPC   O2122446   0.639   3.702  12.799 -0.1249  0.3696  0.2312
  183DOPC   C2122447   0.724   3.789  12.842  0.3439 -0.0987 -0.2612
  183DOPC   O2222448   0.719   3.908  12.815  0.3223 -0.0420 -0.1265
  183DOPC   C2222449   0.816   3.727  12.938  0.1213 -0.3006 -0.7495
  183DOPC   H2R22450   0.876   3.647  12.890  1.7955  1.3972 -1.6343
  183DOPC   H2S22451   0.749   3.691  13.019  0.6325  1.3716  0.4690
  183DOPC    C322452   0.430   3.636  12.683  0.3010 -0.7373 -0.0832
  183DOPC    HX22453   0.489   3.548  12.648 -0.2442 -1.4509  0.7404
  183DOPC    HY22454   0.361   3.664  12.601 -1.9627 -1.7588  1.3749
  183DOPC   O3122455   0.351   3.599  12.796 -0.5533  0.1812 -0.3294
  183DOPC   C3122456   0.279   3.489  12.776 -0.2854 -0.0452 -0.2616
  183DOPC   O3222457   0.299   3.409  12.686 -0.5064 -0.3242 -0.3820
  183DOPC   C3222458   0.168   3.474  12.881 -0.1711 -0.7576 -0.7503
  183DOPC   H2X22459   0.221   3.451  12.976 -1.2846  0.7672  0.2889
  183DOPC   H2Y22460   0.129   3.577  12.896  3.7874  0.6867  0.7368
  183DOPC   C2322461   0.919   3.827  12.991  0.5203 -0.0046  0.1857
  183DOPC   H3R22462   0.873   3.913  13.043  1.7608  1.6230 -1.3106
  183DOPC   H3S22463   0.967   3.870  12.901 -0.2459  1.3099  0.3782
  183DOPC   C2422464   1.022   3.767  13.090 -0.5362 -0.5672  0.6163
  183DOPC   H4R22465   1.101   3.841  13.114 -1.5607  1.4288 -1.6641
  183DOPC   H4S22466   1.070   3.690  13.026 -0.1554  1.8023 -2.1623
  183DOPC   C2522467   0.961   3.708  13.221 -0.5078 -0.4271  0.0819
  183DOPC   H5R22468   1.042   3.665  13.285 -0.5046 -1.1390 -0.3819
  183DOPC   H5S22469   0.896   3.625  13.185 -0.4471  0.3738 -2.0177
  183DOPC   C2622470   0.880   3.807  13.307 -0.2974  0.0658 -0.3084
  183DOPC   H6R22471   0.796   3.843  13.244 -0.1360 -0.1275 -0.6431
  183DOPC   H6S22472   0.936   3.893  13.350  0.2337 -0.6465  0.4415
  183DOPC   C2722473   0.821   3.724  13.427  0.1275  0.5034  0.0084
  183DOPC   H7R22474   0.914   3.677  13.467  0.0901 -0.0710 -0.5621
  183DOPC   H7S22475   0.756   3.644  13.385 -1.0344  2.1316 -1.3851
  183DOPC   C2822476   0.756   3.796  13.550 -0.2883  0.8166 -0.0524
  183DOPC   H8R22477   0.719   3.714  13.616  1.4447  0.1950  0.2122
  183DOPC   H8S22478   0.673   3.858  13.513 -0.1842  0.6308 -0.6025
  183DOPC   C2922479   0.855   3.892  13.615  0.9624 -0.3921 -0.3396
  183DOPC   H9R22480   0.870   3.989  13.564  0.3720  0.2852  0.7403
  183DOPC  C21022481   0.932   3.873  13.725  0.4723 -1.0337  0.1007
  183DOPC  H10R22482   1.014   3.944  13.742  0.9374 -1.0458 -1.8458
  183DOPC  C21122483   0.934   3.743  13.802 -1.0876  0.9300  0.6143
  183DOPC  H11R22484   1.034   3.728  13.848 -0.7389 -0.0216 -0.3975
  183DOPC  H11S22485   0.908   3.659  13.734  0.1151  1.7727 -0.9626
  183DOPC  C21222486   0.825   3.746  13.911 -0.2948 -0.1354  0.1590
  183DOPC  H12R22487   0.726   3.736  13.863  0.1340 -2.9874 -0.2982
  183DOPC  H12S22488   0.829   3.848  13.957  0.4169  0.8744 -2.0092
  183DOPC  C21322489   0.833   3.631  14.014 -0.5699 -0.7664 -0.3167
  183DOPC  H13R22490   0.935   3.635  14.057 -1.0371 -0.2801  0.7703
  183DOPC  H13S22491   0.814   3.534  13.961  0.4110 -1.1794  0.0789
  183DOPC  C21422492   0.743   3.645  14.137 -0.4801 -0.1188 -0.1934
  183DOPC  H14R22493   0.771   3.734  14.196 -0.9763 -0.4958  0.6270
  183DOPC  H14S22494   0.747   3.556  14.204 -1.7636 -1.3440 -1.6624
  183DOPC  C21522495   0.598   3.676  14.102 -0.1952 -0.1288  0.2937
  183DOPC  H15R22496   0.564   3.600  14.028 -0.1491  1.2013 -1.1266
  183DOPC  H15S22497   0.581   3.774  14.054 -0.4337 -1.0037 -1.5127
  183DOPC  C21622498   0.492   3.665  14.217  0.3666 -0.0477  0.7739
  183DOPC  H16R22499   0.478   3.557  14.241 -1.1564 -0.4589 -1.6089
  183DOPC  H16S22500   0.393   3.695  14.176  0.8578  0.7629  0.1810
  183DOPC  C21722501   0.520   3.742  14.349 -0.0446  0.0412  1.1306
  183DOPC  H17R22502   0.525   3.849  14.317 -0.1439  0.4242  2.3359
  183DOPC  H17S22503   0.620   3.717  14.389  0.0001  0.8854  1.5821
  183DOPC  C21822504   0.405   3.734  14.451 -1.0374 -0.1750  0.4200
  183DOPC  H18R22505   0.435   3.802  14.534  2.3083  2.5377 -2.6681
  183DOPC  H18S22506   0.393   3.633  14.494 -0.3462 -0.3717  0.1657
  183DOPC  H18T22507   0.312   3.765  14.399 -0.9797 -1.2748 -0.3737
  183DOPC   C3322508   0.063   3.359  12.856  0.3651 -0.6368 -0.0261
  183DOPC   H3X22509   0.114   3.263  12.832  1.1970  0.4201 -2.8371
  183DOPC   H3Y22510   0.004   3.396  12.769 -0.9268  0.0376  1.0976
  183DOPC   C3422511  -0.034   3.340  12.974 -0.3401 -0.0223 -1.2017
  183DOPC   H4X22512  -0.128   3.302  12.928 -0.1232 -0.7810 -1.0142
  183DOPC   H4Y22513  -0.052   3.441  13.017 -1.5758 -0.4121 -0.7586
  183DOPC   C3522514   0.033   3.242  13.075 -0.0507 -0.1996 -0.7189
  183DOPC   H5X22515   0.136   3.272  13.101 -0.6317  1.0605  0.2130
  183DOPC   H5Y22516   0.045   3.149  13.015  0.5865 -0.0712 -0.7925
  183DOPC   C3622517  -0.045   3.212  13.203  0.2338  0.9043 -0.5663
  183DOPC   H6X22518  -0.047   3.311  13.254  1.0762  0.6302  0.0232
  183DOPC   H6Y22519  -0.150   3.185  13.178 -0.0349  1.3955 -0.0068
  183DOPC   C3722520   0.024   3.098  13.285 -0.2725  0.5101  0.1299
  183DOPC   H7X22521   0.015   2.999  13.236  1.2293  1.2606 -1.8065
  183DOPC   H7Y22522   0.131   3.129  13.281  0.0017 -0.1901  1.6711
  183DOPC   C3822523  -0.030   3.089  13.432  0.1175 -0.3191  0.6585
  183DOPC   H8X22524  -0.138   3.066  13.428 -0.0286  0.4177  0.0508
  183DOPC   H8Y22525  -0.034   3.194  13.469 -0.4672 -0.5152  1.1613
  183DOPC   C3922526   0.044   2.993  13.521  0.0398  0.3342  0.4268
  183DOPC   H9X22527   0.153   3.004  13.533  0.4167 -0.6326 -1.5632
  183DOPC  C31022528  -0.015   2.887  13.577 -0.5422 -1.1071 -0.2712
  183DOPC  H10X22529   0.052   2.827  13.640  1.3427  0.3950 -0.7742
  183DOPC  C31122530  -0.157   2.842  13.583  0.3593  0.4473  0.1451
  183DOPC  H11X22531  -0.184   2.773  13.499 -3.5136  1.2314  0.5575
  183DOPC  H11Y22532  -0.222   2.932  13.581  1.0467  0.9870  1.5419
  183DOPC  C31222533  -0.183   2.766  13.715  0.0710 -0.0730 -0.2308
  183DOPC  H12X22534  -0.164   2.841  13.795 -1.2294 -0.6694  0.6725
  183DOPC  H12Y22535  -0.106   2.687  13.725 -0.4504 -0.5567 -0.0231
  183DOPC  C31322536  -0.325   2.715  13.738  0.2560  0.2685 -0.5306
  183DOPC  H13X22537  -0.389   2.805  13.739  0.0071  0.0979  0.6776
  183DOPC  H13Y22538  -0.348   2.653  13.649  0.0407 -0.3685 -0.0433
  183DOPC  C31422539  -0.325   2.627  13.864  0.3418  0.7544 -0.3727
  183DOPC  H14X22540  -0.252   2.544  13.846 -0.0435  0.2183  0.4879
  183DOPC  H14Y22541  -0.290   2.689  13.949 -2.0216  0.1074  1.1676
  183DOPC  C31522542  -0.471   2.583  13.894 -0.5687 -0.6520  0.3906
  183DOPC  H15X22543  -0.487   2.496  13.827 -2.9914  0.4048 -0.5228
  183DOPC  H15Y22544  -0.534   2.672  13.873 -3.2357 -2.1775  1.4513
  183DOPC  C31622545  -0.483   2.541  14.041 -0.3163  0.0991  0.0759
  183DOPC  H16X22546  -0.578   2.484  14.050  0.0693 -0.3117  1.8426
  183DOPC  H16Y22547  -0.393   2.479  14.058  0.1268  0.9461  0.9218
  183DOPC  C31722548  -0.493   2.642  14.154  0.0074  0.0941 -0.1060
  183DOPC  H17X22549  -0.392   2.690  14.155 -0.5556  1.3580  1.2553
  183DOPC  H17Y22550  -0.567   2.724  14.144 -0.3416  0.1133  1.9976
  183DOPC  C31822551  -0.519   2.572  14.292 -0.0168 -0.4053  0.1287
  183DOPC  H18X22552  -0.442   2.494  14.310  0.6538  0.4588  1.1093
  183DOPC  H18Y22553  -0.509   2.644  14.376  0.3466  2.1614 -1.9970
  183DOPC  H18Z22554  -0.622   2.533  14.308 -0.4517 -0.0373 -1.5934
  184DOPC     N22555   5.209   7.981  12.174 -0.4667 -0.2723  0.3709
  184DOPC   C1222556   5.205   7.990  12.327  0.3503 -0.0238 -0.1350
  184DOPC  H12A22557   5.105   7.994  12.367  0.2652  2.8855 -0.3940
  184DOPC  H12B22558   5.248   8.082  12.365  2.2265 -1.2424  0.8630
  184DOPC   C1322559   5.113   8.077  12.116  0.2824  0.5274 -1.1424
  184DOPC  H13A22560   5.015   8.051  12.154  0.8280 -0.5445 -0.4017
  184DOPC  H13B22561   5.134   8.179  12.145  0.9955  0.1534 -0.2920
  184DOPC  H13C22562   5.114   8.070  12.009 -0.4202 -0.3889 -1.0992
  184DOPC   C1422563   5.170   7.842  12.125 -0.3735 -0.5762 -0.2079
  184DOPC  H14A22564   5.162   7.848  12.017  1.0143 -1.8614 -0.4132
  184DOPC  H14B22565   5.237   7.762  12.153 -0.7251 -1.3324 -1.4527
  184DOPC  H14C22566   5.075   7.809  12.165 -0.9779  0.6642 -0.5576
  184DOPC   C1522567   5.351   8.012  12.128  0.0483 -0.6335 -0.0621
  184DOPC  H15A22568   5.378   8.116  12.132 -3.2722  0.4441 -1.8306
  184DOPC  H15B22569   5.356   7.985  12.024  3.7252  1.9756 -0.7297
  184DOPC  H15C22570   5.425   7.961  12.187  0.4168  0.5464  0.5358
  184DOPC   C1122571   5.271   7.876  12.410  0.4590 -0.4648  0.1946
  184DOPC  H11A22572   5.236   7.896  12.513  0.4042 -0.7614  0.2328
  184DOPC  H11B22573   5.240   7.775  12.375  0.7393 -0.6495  0.4776
  184DOPC     P22574   5.516   7.939  12.507  0.1240  0.3908  0.1605
  184DOPC   O1322575   5.535   8.080  12.468 -0.5179  0.2752 -0.1754
  184DOPC   O1422576   5.639   7.854  12.506 -0.0904  0.2935 -0.3302
  184DOPC   O1222577   5.409   7.877  12.406 -0.3650  0.2827 -0.5932
  184DOPC   O1122578   5.446   7.924  12.648  0.2354 -0.5013 -0.0015
  184DOPC    C122579   5.348   8.014  12.697 -0.1297 -0.0202  0.2202
  184DOPC    HA22580   5.263   7.960  12.745 -0.0872 -1.3236 -1.1086
  184DOPC    HB22581   5.295   8.075  12.621  0.9514 -0.2446 -0.7354
  184DOPC    C222582   5.411   8.105  12.804 -0.5450  0.6052 -0.1163
  184DOPC    HS22583   5.507   8.133  12.756 -1.1553 -0.5265 -2.0847
  184DOPC   O2122584   5.429   8.022  12.928  0.1900 -0.1503  0.8841
  184DOPC   C2122585   5.531   8.050  13.000 -0.0293  0.3042  0.3492
  184DOPC   O2222586   5.620   8.129  12.970  0.5348 -0.4760  0.1053
  184DOPC   C2222587   5.533   7.957  13.124  1.2271 -0.8577  0.6056
  184DOPC   H2R22588   5.571   8.018  13.209  0.4726  1.2112 -0.4630
  184DOPC   H2S22589   5.603   7.878  13.089  2.3996  1.1311 -1.9556
  184DOPC    C322590   5.323   8.219  12.831  0.4862 -0.0371 -0.2364
  184DOPC    HX22591   5.226   8.174  12.858  1.2603 -1.6252  0.0299
  184DOPC    HY22592   5.307   8.269  12.733  1.1381  0.1449 -0.2600
  184DOPC   O3122593   5.370   8.306  12.938  0.1859  0.3173  0.0603
  184DOPC   C3122594   5.458   8.403  12.900 -0.8678  0.1817  0.3420
  184DOPC   O3222595   5.507   8.406  12.785  0.3569 -0.5353 -0.2668
  184DOPC   C3222596   5.461   8.523  13.001  0.3258 -0.0491 -0.4925
  184DOPC   H2X22597   5.476   8.609  12.932  2.9029  0.4841  0.6195
  184DOPC   H2Y22598   5.366   8.528  13.057  0.0170 -3.2759 -0.5685
  184DOPC   C2322599   5.391   7.912  13.163  0.0269  0.5245 -0.5166
  184DOPC   H3R22600   5.357   7.815  13.120 -1.6599  0.3013  1.1859
  184DOPC   H3S22601   5.314   7.987  13.137 -0.6354  0.1402  0.2959
  184DOPC   C2422602   5.368   7.888  13.315  0.2286 -0.4836 -0.6191
  184DOPC   H4R22603   5.366   7.990  13.360  0.5040 -0.8452  0.2315
  184DOPC   H4S22604   5.455   7.837  13.362 -2.2115 -2.3555  2.1652
  184DOPC   C2522605   5.242   7.819  13.369  0.2286 -0.5426 -0.4712
  184DOPC   H5R22606   5.148   7.872  13.344  0.6042  0.1029 -0.5281
  184DOPC   H5S22607   5.253   7.826  13.480 -2.0681  1.0297 -0.2889
  184DOPC   C2622608   5.237   7.670  13.323  0.9415 -0.7030 -0.7545
  184DOPC   H6R22609   5.345   7.644  13.328  0.9539 -0.4140  1.1432
  184DOPC   H6S22610   5.200   7.676  13.218 -1.6412 -0.7924  0.0788
  184DOPC   C2722611   5.154   7.586  13.415  0.2266  0.0654 -0.2505
  184DOPC   H7R22612   5.142   7.483  13.373  1.0835  0.3780 -1.2877
  184DOPC   H7S22613   5.054   7.633  13.415  0.7426  1.1827 -0.0266
  184DOPC   C2822614   5.208   7.559  13.554  0.0824  0.4395 -0.5606
  184DOPC   H8R22615   5.150   7.473  13.594  0.8302  0.5173  0.7459
  184DOPC   H8S22616   5.189   7.640  13.627  1.6284  0.5305 -0.2196
  184DOPC   C2922617   5.355   7.510  13.552 -1.1377 -0.1457  0.0756
  184DOPC   H9R22618   5.393   7.460  13.461  1.6188  0.3520  0.8808
  184DOPC  C21022619   5.456   7.563  13.630 -0.6810 -0.0952  0.9317
  184DOPC  H10R22620   5.556   7.529  13.601 -1.4673 -0.9209 -0.9465
  184DOPC  C21122621   5.450   7.654  13.753 -0.0902 -0.3931 -0.8835
  184DOPC  H11R22622   5.372   7.732  13.748 -0.4360 -0.6670  0.1741
  184DOPC  H11S22623   5.540   7.717  13.768 -0.2319 -0.7002  1.6382
  184DOPC  C21222624   5.445   7.570  13.889 -0.5393  0.4586 -0.0002
  184DOPC  H12R22625   5.432   7.644  13.971 -1.8586  1.3261 -0.9563
  184DOPC  H12S22626   5.539   7.514  13.907 -1.1394 -0.6294 -0.1994
  184DOPC  C21322627   5.327   7.475  13.899  0.2394  0.1345 -0.4353
  184DOPC  H13R22628   5.342   7.395  13.825 -2.0053  0.2057 -1.0614
  184DOPC  H13S22629   5.234   7.531  13.875 -0.0833 -0.0996  0.2394
  184DOPC  C21422630   5.309   7.415  14.041  0.2951  0.1300 -0.2962
  184DOPC  H14R22631   5.278   7.495  14.111 -0.8130 -1.0070  0.5522
  184DOPC  H14S22632   5.412   7.387  14.075 -0.2053  0.6800  1.8083
  184DOPC  C21522633   5.209   7.302  14.050  0.0064 -1.0283  0.3096
  184DOPC  H15R22634   5.121   7.320  13.984 -1.2605  0.6470  2.3147
  184DOPC  H15S22635   5.175   7.300  14.156  1.7645 -3.0356  0.8939
  184DOPC  C21622636   5.272   7.163  13.999 -0.4851 -0.0696 -0.1668
  184DOPC  H16R22637   5.311   7.167  13.895  0.3462  2.3650  0.1872
  184DOPC  H16S22638   5.182   7.097  14.006 -0.6281  0.2899  2.7684
  184DOPC  C21722639   5.382   7.110  14.085 -0.6064  0.6709 -0.0284
  184DOPC  H17R22640   5.390   7.160  14.184 -0.0083 -0.7226  0.6652
  184DOPC  H17S22641   5.480   7.108  14.031 -0.5245  0.3259  0.1254
  184DOPC  C21822642   5.368   6.956  14.113 -0.4197 -0.0227  0.1233
  184DOPC  H18R22643   5.442   6.922  14.189  0.0778 -0.5369 -0.5789
  184DOPC  H18S22644   5.379   6.894  14.021  0.9253 -0.2303  0.4064
  184DOPC  H18T22645   5.266   6.931  14.148 -0.7916  0.7116 -0.3954
  184DOPC   C3322646   5.583   8.512  13.092  0.2461  0.2942 -0.0245
  184DOPC   H3X22647   5.611   8.618  13.110  0.4310  0.3358 -0.5473
  184DOPC   H3Y22648   5.668   8.472  13.032  0.4459 -0.8404  0.9871
  184DOPC   C3422649   5.564   8.433  13.220 -0.2164 -0.9516 -0.5714
  184DOPC   H4X22650   5.664   8.432  13.269 -0.3178  0.2215 -0.3243
  184DOPC   H4Y22651   5.532   8.333  13.183  0.4439 -0.8003 -1.5994
  184DOPC   C3522652   5.460   8.481  13.314 -0.9089 -0.0360 -0.2089
  184DOPC   H5X22653   5.360   8.464  13.267 -1.5665 -0.2275  1.1953
  184DOPC   H5Y22654   5.471   8.590  13.327 -1.5031 -0.1682  1.8316
  184DOPC   C3622655   5.468   8.412  13.446 -0.9478  0.2537 -0.2383
  184DOPC   H6X22656   5.501   8.306  13.435 -1.4784 -0.0351  0.7817
  184DOPC   H6Y22657   5.560   8.445  13.500  1.2580 -4.0742 -0.8912
  184DOPC   C3722658   5.340   8.427  13.530 -0.1501  0.2628  0.0846
  184DOPC   H7X22659   5.319   8.533  13.558 -0.6836  0.9948 -2.7073
  184DOPC   H7Y22660   5.255   8.393  13.466  0.3913  1.3615 -1.2770
  184DOPC   C3822661   5.338   8.336  13.657  0.0650 -0.3920  0.6753
  184DOPC   H8X22662   5.297   8.237  13.627 -0.4857 -0.3307  1.1966
  184DOPC   H8Y22663   5.257   8.374  13.724 -0.0902 -1.5208  1.1613
  184DOPC   C3922664   5.469   8.322  13.729 -0.0866  0.3558  0.1264
  184DOPC   H9X22665   5.517   8.420  13.737 -0.4405  0.6756 -1.2987
  184DOPC  C31022666   5.545   8.214  13.758 -0.4519  0.0148  0.6487
  184DOPC  H10X22667   5.638   8.225  13.816 -0.4885  0.9068  0.5491
  184DOPC  C31122668   5.495   8.076  13.720  0.2731  0.9484 -0.0660
  184DOPC  H11X22669   5.385   8.067  13.731  0.2177  0.4319 -0.9907
  184DOPC  H11Y22670   5.518   8.005  13.802 -1.6284 -1.2441 -1.3251
  184DOPC  C31222671   5.559   8.026  13.587  0.6023 -0.3846  0.2474
  184DOPC  H12X22672   5.519   8.093  13.508 -1.2086  0.0737  1.4782
  184DOPC  H12Y22673   5.529   7.921  13.564  1.4115 -0.7965  1.0257
  184DOPC  C31322674   5.710   8.042  13.579  0.2874  0.1100  0.3065
  184DOPC  H13X22675   5.738   8.144  13.611  0.1978  0.0666  0.5210
  184DOPC  H13Y22676   5.765   7.961  13.631 -0.1457 -1.1499 -1.0977
  184DOPC  C31422677   5.752   8.018  13.428  0.2683 -0.3540  0.2259
  184DOPC  H14X22678   5.717   7.916  13.402 -0.8384 -0.0131  0.3286
  184DOPC  H14Y22679   5.708   8.095  13.361  2.0215  2.0096  1.6595
  184DOPC  C31522680   5.901   8.027  13.401  0.4509  0.0911  0.1512
  184DOPC  H15X22681   5.952   7.943  13.453 -0.4305 -1.2917 -1.1305
  184DOPC  H15Y22682   5.930   8.119  13.456 -0.1686 -0.7923  2.0417
  184DOPC  C31622683   5.944   8.033  13.259 -0.3764 -0.9590  0.4398
  184DOPC  H16X22684   5.902   8.125  13.214  1.1094 -0.9624 -1.0383
  184DOPC  H16Y22685   6.053   8.050  13.266 -0.6394  0.4577  1.4737
  184DOPC  C31722686   5.920   7.902  13.182  0.3729  0.4903 -0.8020
  184DOPC  H17X22687   5.811   7.880  13.183  0.5333 -0.3329  0.5673
  184DOPC  H17Y22688   5.936   7.929  13.075  1.1234  0.9683 -0.5688
  184DOPC  C31822689   6.015   7.793  13.227  0.1553 -0.8534  0.0876
  184DOPC  H18X22690   5.975   7.750  13.321 -1.6226  2.0222  0.8071
  184DOPC  H18Y22691   6.034   7.708  13.158  0.7338  0.5327 -1.5312
  184DOPC  H18Z22692   6.117   7.830  13.251 -0.0010  0.5525 -1.2619
  185DOPC     N22693   8.380   5.967  12.057 -0.5984  0.3762 -0.4817
  185DOPC   C1222694   8.463   5.963  12.183 -0.2215 -0.1693  0.1649
  185DOPC  H12A22695   8.444   5.874  12.242 -0.6162  0.4417  0.9832
  185DOPC  H12B22696   8.426   6.046  12.242 -4.5018 -0.7703 -1.3084
  185DOPC   C1322697   8.417   5.861  11.960 -0.7177  0.1934  0.0077
  185DOPC  H13A22698   8.524   5.860  11.947 -0.6249  3.3020 -0.0818
  185DOPC  H13B22699   8.392   5.762  11.995  0.1887  0.5807  1.9117
  185DOPC  H13C22700   8.365   5.881  11.867 -0.1003 -0.3577 -0.4630
  185DOPC   C1422701   8.401   6.095  11.966  0.1025  0.8207  0.0608
  185DOPC  H14A22702   8.346   6.079  11.875  0.9148  0.0758 -0.3141
  185DOPC  H14B22703   8.373   6.184  12.021  2.0924  1.6709 -0.2124
  185DOPC  H14C22704   8.506   6.095  11.938 -0.0773 -1.2463 -0.7910
  185DOPC   C1522705   8.229   5.960  12.072  0.4117 -0.4644  0.2847
  185DOPC  H15A22706   8.183   5.948  11.975  2.0440 -0.0439 -0.5919
  185DOPC  H15B22707   8.186   6.042  12.129  1.4825 -0.6199  1.3674
  185DOPC  H15C22708   8.212   5.870  12.129  2.9878 -1.5984 -0.5819
  185DOPC   C1122709   8.619   5.974  12.161 -0.0111  0.1791  0.1361
  185DOPC  H11A22710   8.637   6.055  12.087 -2.0812 -1.0934 -1.8839
  185DOPC  H11B22711   8.669   5.998  12.257 -3.0759  2.2614  1.3814
  185DOPC     P22712   8.679   5.712  12.174  0.0639  0.0661 -0.0358
  185DOPC   O1322713   8.812   5.645  12.145  0.5381 -0.3297  0.2622
  185DOPC   O1422714   8.561   5.631  12.135 -0.4091  0.2364  0.1290
  185DOPC   O1222715   8.672   5.854  12.102 -0.3939  0.3671 -0.1242
  185DOPC   O1122716   8.663   5.749  12.322 -0.1864 -0.4126  0.3165
  185DOPC    C122717   8.780   5.777  12.396  0.5540  0.4712 -0.0813
  185DOPC    HA22718   8.767   5.864  12.464 -1.4578  0.3942 -0.3099
  185DOPC    HB22719   8.872   5.798  12.338  0.2774 -0.6243 -0.9337
  185DOPC    C222720   8.808   5.668  12.498  0.3638  0.6183 -0.1633
  185DOPC    HS22721   8.827   5.576  12.439 -1.6276  0.0019  0.0776
  185DOPC   O2122722   8.696   5.648  12.596  0.1468 -0.4209 -0.0205
  185DOPC   C2122723   8.680   5.520  12.642  0.2263 -0.1034 -0.3995
  185DOPC   O2222724   8.752   5.429  12.607 -0.1485 -0.2765 -0.1284
  185DOPC   C2222725   8.565   5.514  12.746 -0.1204 -0.2542  0.5500
  185DOPC   H2R22726   8.591   5.428  12.812  0.3982 -0.3756  0.1945
  185DOPC   H2S22727   8.470   5.506  12.688  0.8103 -1.1565 -0.9196
  185DOPC    C322728   8.937   5.704  12.577  0.0823 -0.4537  0.4413
  185DOPC    HX22729   8.918   5.796  12.636  1.3998  0.8402 -1.0266
  185DOPC    HY22730   9.019   5.725  12.505  1.3076 -1.9388  1.3279
  185DOPC   O3122731   8.977   5.600  12.668  0.3359 -0.7016  0.7088
  185DOPC   C3122732   9.042   5.493  12.618 -0.2716 -0.0019  0.0758
  185DOPC   O3222733   9.051   5.472  12.498  0.2514 -0.0539  0.0510
  185DOPC   C3222734   9.117   5.404  12.712 -0.3268  0.3039 -0.0062
  185DOPC   H2X22735   9.069   5.415  12.812 -1.1706  1.0551 -0.4766
  185DOPC   H2Y22736   9.103   5.298  12.682  1.9675  0.3571 -1.5327
  185DOPC   C2322737   8.563   5.643  12.831  0.1751  0.0730 -0.0395
  185DOPC   H3R22738   8.497   5.624  12.918 -0.9678 -1.5404 -1.2028
  185DOPC   H3S22739   8.532   5.730  12.769  1.8415 -0.5484 -1.8631
  185DOPC   C2422740   8.692   5.685  12.901 -0.5576  0.3149 -0.2143
  185DOPC   H4R22741   8.673   5.781  12.954  0.8141  0.9805 -0.8774
  185DOPC   H4S22742   8.777   5.714  12.836  1.1297 -0.6391  1.4648
  185DOPC   C2522743   8.746   5.574  12.993 -0.7539  1.0993  0.3267
  185DOPC   H5R22744   8.742   5.474  12.944 -1.3173  0.6124  1.3316
  185DOPC   H5S22745   8.682   5.557  13.082 -1.5466  0.9239 -0.2636
  185DOPC   C2622746   8.888   5.610  13.037  0.0602  0.0217  0.2040
  185DOPC   H6R22747   8.886   5.720  13.047  0.6135 -0.0821  1.5174
  185DOPC   H6S22748   8.952   5.569  12.956 -0.3028  1.0444 -0.6267
  185DOPC   C2722749   8.919   5.537  13.170  0.2126 -0.2130 -0.2146
  185DOPC   H7R22750   8.914   5.427  13.156  0.0967 -0.2063 -0.2229
  185DOPC   H7S22751   8.847   5.567  13.249  0.7663 -1.1672  0.6852
  185DOPC   C2822752   9.066   5.558  13.216 -0.4000  0.2465  0.1819
  185DOPC   H8R22753   9.143   5.531  13.140 -0.7906 -1.3560  0.3241
  185DOPC   H8S22754   9.072   5.482  13.296  2.2512  0.1513 -0.0204
  185DOPC   C2922755   9.084   5.698  13.273 -0.2622 -0.2645  0.2370
  185DOPC   H9R22756   9.051   5.782  13.210  1.7173  0.1344 -0.3305
  185DOPC  C21022757   9.146   5.732  13.389 -0.3121 -0.1471  1.1998
  185DOPC  H10R22758   9.166   5.838  13.409  1.8234 -0.8139  3.0076
  185DOPC  C21122759   9.210   5.639  13.489  0.1219 -0.7052  0.0492
  185DOPC  H11R22760   9.318   5.663  13.484  0.1978 -1.3242 -2.8212
  185DOPC  H11S22761   9.194   5.537  13.450  0.7481 -0.9749  0.4891
  185DOPC  C21222762   9.155   5.662  13.631  0.4694  0.6509 -0.8010
  185DOPC  H12R22763   9.223   5.610  13.701 -1.1317  1.4455  1.4674
  185DOPC  H12S22764   9.054   5.616  13.634  0.8232 -0.0754  0.7814
  185DOPC  C21322765   9.123   5.805  13.679 -0.2636  0.6774  0.5377
  185DOPC  H13R22766   9.039   5.847  13.620 -2.3265 -1.6618  1.6535
  185DOPC  H13S22767   9.220   5.859  13.679  0.6547 -0.8232  2.7433
  185DOPC  C21422768   9.086   5.815  13.836 -0.6651 -0.6367 -0.2770
  185DOPC  H14R22769   9.096   5.922  13.864  2.1903 -0.9854  0.4311
  185DOPC  H14S22770   9.165   5.754  13.885 -0.1920 -1.2582 -1.7266
  185DOPC  C21522771   8.950   5.770  13.865  0.3463 -0.7099  0.0794
  185DOPC  H15R22772   8.945   5.666  13.826  1.7089 -0.6069 -0.4154
  185DOPC  H15S22773   8.882   5.833  13.803  1.8469 -0.8889 -1.8535
  185DOPC  C21622774   8.914   5.770  14.010  0.2007  0.0967 -0.2222
  185DOPC  H16R22775   8.807   5.738  14.009 -0.5531  2.4027 -2.0179
  185DOPC  H16S22776   8.917   5.871  14.055  2.3244 -0.8215  1.9104
  185DOPC  C21722777   9.005   5.687  14.107  0.3913  0.3366 -0.4265
  185DOPC  H17R22778   9.108   5.730  14.103  0.3620  0.4176 -0.2894
  185DOPC  H17S22779   9.007   5.582  14.070  1.6286  0.1858  0.0009
  185DOPC  C21822780   8.973   5.696  14.255 -0.0010  1.0239  0.3830
  185DOPC  H18R22781   8.966   5.804  14.279 -0.2222  1.3580 -1.0652
  185DOPC  H18S22782   9.054   5.656  14.318  0.9172  0.1385 -1.2958
  185DOPC  H18T22783   8.872   5.651  14.268 -1.0997  3.3798  0.6512
  185DOPC   C3322784   9.272   5.428  12.719  0.2324 -0.3250  0.1758
  185DOPC   H3X22785   9.324   5.394  12.627 -1.8051 -0.0381 -1.1418
  185DOPC   H3Y22786   9.310   5.363  12.800 -0.7960 -0.4362  0.5835
  185DOPC   C3422787   9.309   5.570  12.727 -0.3225 -1.0652 -0.4493
  185DOPC   H4X22788   9.277   5.638  12.645  0.3363  1.8193  1.5140
  185DOPC   H4Y22789   9.420   5.569  12.719 -0.1112  0.5030  1.4614
  185DOPC   C3522790   9.257   5.639  12.854 -0.1593 -0.0624  0.2206
  185DOPC   H5X22791   9.288   5.586  12.947  1.2446  2.3324  1.2208
  185DOPC   H5Y22792   9.146   5.644  12.843 -0.2127  0.1693  0.7827
  185DOPC   C3622793   9.319   5.784  12.868  0.1155  1.0643 -0.5495
  185DOPC   H6X22794   9.294   5.840  12.776 -2.4881 -2.0475 -1.9110
  185DOPC   H6Y22795   9.270   5.823  12.960 -1.8080 -1.4042 -0.4181
  185DOPC   C3722796   9.471   5.789  12.903 -0.6445 -0.2786 -0.3993
  185DOPC   H7X22797   9.516   5.733  12.818 -1.6678 -2.1338  0.2094
  185DOPC   H7Y22798   9.511   5.892  12.899  0.7419 -0.6977  1.1169
  185DOPC   C3822799   9.513   5.718  13.034 -0.3270  0.1707  0.2739
  185DOPC   H8X22800   9.622   5.724  13.059 -0.6829  1.7737  1.6045
  185DOPC   H8Y22801   9.488   5.614  13.005  0.3760  0.1524 -0.2986
  185DOPC   C3922802   9.422   5.747  13.152  0.0116 -0.1192  0.6178
  185DOPC   H9X22803   9.333   5.682  13.154 -0.4920  0.5021 -0.6484
  185DOPC  C31022804   9.444   5.829  13.255  0.0889  0.1625  0.1320
  185DOPC  H10X22805   9.362   5.849  13.326  1.0296 -1.4637  1.7676
  185DOPC  C31122806   9.561   5.918  13.275 -0.4565 -0.3427  0.4466
  185DOPC  H11X22807   9.648   5.891  13.210 -0.5062  0.1262  0.1846
  185DOPC  H11Y22808   9.611   5.923  13.374 -2.1552 -1.0291  1.3867
  185DOPC  C31222809   9.525   6.068  13.246  0.1187  0.1830  0.5259
  185DOPC  H12X22810   9.498   6.070  13.138 -2.3314  2.0486  1.0843
  185DOPC  H12Y22811   9.621   6.122  13.260  0.5796 -0.6837  0.7984
  185DOPC  C31322812   9.413   6.130  13.330  0.2287  0.4011  0.0836
  185DOPC  H13X22813   9.313   6.083  13.314  1.1211 -1.8024  0.5976
  185DOPC  H13Y22814   9.436   6.121  13.438 -0.1888 -1.3135  0.0577
  185DOPC  C31422815   9.387   6.285  13.307  0.0204 -0.0990  0.6011
  185DOPC  H14X22816   9.384   6.295  13.197  3.5696 -2.4557  0.1387
  185DOPC  H14Y22817   9.289   6.320  13.347 -0.1524 -1.0013  0.9880
  185DOPC  C31522818   9.497   6.371  13.368 -0.5460 -0.4391  0.0453
  185DOPC  H15X22819   9.515   6.464  13.310 -0.6353 -1.9511 -2.5508
  185DOPC  H15Y22820   9.594   6.321  13.349 -1.0043 -1.2315 -0.2969
  185DOPC  C31622821   9.487   6.390  13.521 -0.0311  0.1020  0.0984
  185DOPC  H16X22822   9.457   6.297  13.573 -1.0032  0.2981 -0.0897
  185DOPC  H16Y22823   9.584   6.432  13.556  0.8038 -0.8207 -1.0037
  185DOPC  C31722824   9.384   6.491  13.569  0.6534  0.1961 -0.0991
  185DOPC  H17X22825   9.366   6.568  13.491  0.0341 -1.8412 -2.0941
  185DOPC  H17Y22826   9.286   6.443  13.593  0.1883  0.2918 -1.6808
  185DOPC  C31822827   9.417   6.555  13.702 -0.7527 -0.4848  0.1128
  185DOPC  H18X22828   9.343   6.616  13.759  1.1009  0.1840  1.9423
  185DOPC  H18Y22829   9.435   6.470  13.772  1.5289 -0.2193 -0.0930
  185DOPC  H18Z22830   9.499   6.629  13.694 -0.4178 -0.6266  1.8304
  186DOPC     N22831   8.394   1.738  12.177 -0.2715 -0.1412 -0.5510
  186DOPC   C1222832   8.516   1.790  12.256 -0.2588  0.5746  0.9562
  186DOPC  H12A22833   8.602   1.729  12.235  0.3931  1.3760  1.2313
  186DOPC  H12B22834   8.496   1.770  12.360 -2.5965  1.4479  0.7513
  186DOPC   C1322835   8.278   1.819  12.220  0.0042  0.4451  0.1887
  186DOPC  H13A22836   8.275   1.823  12.328  1.5844  0.9805  0.2356
  186DOPC  H13B22837   8.284   1.919  12.178 -0.4515 -0.7557 -3.0079
  186DOPC  H13C22838   8.191   1.764  12.188  1.5790 -1.5623 -0.8909
  186DOPC   C1422839   8.379   1.594  12.199 -0.6452 -0.1857 -0.3329
  186DOPC  H14A22840   8.457   1.542  12.145  0.7549  1.0548  0.4328
  186DOPC  H14B22841   8.396   1.577  12.304 -0.6701  2.3603  0.1429
  186DOPC  H14C22842   8.278   1.568  12.172 -1.5807  2.0875  0.7110
  186DOPC   C1522843   8.418   1.748  12.029 -0.7658  0.2300  0.7004
  186DOPC  H15A22844   8.482   1.668  11.996 -0.6736  0.2490  0.8322
  186DOPC  H15B22845   8.448   1.846  11.995  1.3541 -1.0378 -1.3617
  186DOPC  H15C22846   8.322   1.733  11.982  0.1546 -0.5842 -0.9873
  186DOPC   C1122847   8.559   1.933  12.222  0.0790  0.1988  0.3303
  186DOPC  H11A22848   8.481   2.010  12.238  0.9646  0.7290  2.4908
  186DOPC  H11B22849   8.635   1.955  12.301  1.2956 -0.7499 -0.5282
  186DOPC     P22850   8.699   2.064  12.022  0.1781  0.1692 -0.4149
  186DOPC   O1322851   8.615   2.181  12.044  0.0782 -0.2163 -0.0428
  186DOPC   O1422852   8.736   2.021  11.889 -0.2217  0.4649 -0.1633
  186DOPC   O1222853   8.618   1.939  12.090 -0.1776 -0.1851 -0.0637
  186DOPC   O1122854   8.829   2.071  12.110 -0.6854 -0.0346 -0.4914
  186DOPC    C122855   8.923   1.958  12.125  0.7742 -0.5840 -0.1805
  186DOPC    HA22856   9.021   1.990  12.084 -0.4607  1.4334 -1.7424
  186DOPC    HB22857   8.884   1.872  12.067  2.0610 -0.5726 -1.0754
  186DOPC    C222858   8.940   1.914  12.276  0.4703 -0.4682  0.3735
  186DOPC    HS22859   8.840   1.893  12.320  0.0420 -0.9995 -0.8119
  186DOPC   O2122860   9.004   2.022  12.345  1.0188 -0.5118  0.1772
  186DOPC   C2122861   8.974   2.025  12.476  0.2092  0.3210  0.7158
  186DOPC   O2222862   8.869   1.977  12.524  0.0544 -0.3129 -0.6142
  186DOPC   C2222863   9.088   2.105  12.548 -0.1173  0.1699 -0.2715
  186DOPC   H2R22864   9.064   2.213  12.557 -2.7996 -0.5226  3.4495
  186DOPC   H2S22865   9.188   2.087  12.503  0.4598 -0.6238  1.2535
  186DOPC    C322866   9.011   1.772  12.275  0.4102 -0.4918 -0.0906
  186DOPC    HX22867   9.085   1.774  12.192 -2.4119  2.7653 -2.8675
  186DOPC    HY22868   8.935   1.697  12.245  0.9108 -1.3224  0.6841
  186DOPC   O3122869   9.080   1.751  12.404  0.1191  0.0689 -0.0333
  186DOPC   C3122870   9.016   1.662  12.483 -0.8618 -0.2712 -0.0283
  186DOPC   O3222871   8.912   1.608  12.457  0.2190 -0.5593 -0.2378
  186DOPC   C3222872   9.113   1.643  12.598 -0.7000 -0.1131  0.2229
  186DOPC   H2X22873   9.202   1.598  12.549  0.6101  1.8608  0.6552
  186DOPC   H2Y22874   9.145   1.740  12.642  1.3652 -0.7922  0.2904
  186DOPC   C2322875   9.094   2.053  12.688 -0.2105 -0.4000  0.0613
  186DOPC   H3R22876   9.106   1.942  12.689 -0.1790 -0.4837 -2.6399
  186DOPC   H3S22877   8.997   2.066  12.739 -1.1149 -0.6996 -1.5214
  186DOPC   C2422878   9.212   2.110  12.778  0.0280 -0.4071 -0.1748
  186DOPC   H4R22879   9.196   2.073  12.881 -0.1990  1.6211  0.5631
  186DOPC   H4S22880   9.204   2.219  12.797  1.4016  0.0447 -1.8825
  186DOPC   C2522881   9.351   2.082  12.713 -0.2558  0.5186  0.1545
  186DOPC   H5R22882   9.423   2.101  12.795 -2.4659  1.5774  1.9548
  186DOPC   H5S22883   9.366   2.158  12.633 -1.7650 -0.0504 -0.7184
  186DOPC   C2622884   9.392   1.944  12.654  0.5463  0.0266  0.4200
  186DOPC   H6R22885   9.349   1.932  12.553  0.7612 -1.2245  0.4705
  186DOPC   H6S22886   9.354   1.856  12.710 -0.0508  0.5426  0.8492
  186DOPC   C2722887   9.541   1.917  12.646 -0.7797 -0.3456 -0.6541
  186DOPC   H7R22888   9.589   1.994  12.583 -1.2509  1.8264  1.4615
  186DOPC   H7S22889   9.571   1.816  12.610 -1.1279 -0.4859 -0.5621
  186DOPC   C2822890   9.617   1.931  12.783  0.3739 -0.3001  0.1460
  186DOPC   H8R22891   9.624   2.037  12.814  3.3136 -0.6013  0.8029
  186DOPC   H8S22892   9.721   1.901  12.758  0.4590 -1.2279  1.4908
  186DOPC   C2922893   9.556   1.839  12.884 -0.4360  0.6355  0.5320
  186DOPC   H9R22894   9.582   1.738  12.851  2.3030  1.5753 -0.5129
  186DOPC  C21022895   9.500   1.864  13.004  0.5648  0.9947 -0.2317
  186DOPC  H10R22896   9.462   1.779  13.061  0.9969  0.2713 -0.9974
  186DOPC  C21122897   9.479   1.994  13.082  0.2489 -0.0595  0.3446
  186DOPC  H11R22898   9.370   2.018  13.080 -0.2264 -1.9259 -2.0119
  186DOPC  H11S22899   9.529   2.062  13.010 -0.9661 -0.7232 -1.2002
  186DOPC  C21222900   9.540   2.002  13.224 -0.5556  0.1094  0.0348
  186DOPC  H12R22901   9.488   2.096  13.254  0.9480  1.0976 -0.3391
  186DOPC  H12S22902   9.649   2.017  13.237 -0.8773  1.1816  1.8808
  186DOPC  C21322903   9.494   1.892  13.324  0.3194  0.1377  0.5255
  186DOPC  H13R22904   9.551   1.803  13.292 -2.1869 -1.3842 -0.0041
  186DOPC  H13S22905   9.388   1.863  13.308  0.4874 -1.2375  1.7306
  186DOPC  C21422906   9.514   1.921  13.470 -0.0071 -0.1332 -0.7796
  186DOPC  H14R22907   9.468   2.016  13.505  0.0832 -1.0309  1.9721
  186DOPC  H14S22908   9.620   1.953  13.481 -0.4576  0.7276  1.4750
  186DOPC  C21522909   9.477   1.803  13.560  0.2281  0.5845 -0.0641
  186DOPC  H15R22910   9.532   1.709  13.533  0.2059 -0.6319  3.5822
  186DOPC  H15S22911   9.370   1.777  13.550  0.1417  0.8810  0.0980
  186DOPC  C21622912   9.500   1.827  13.708 -0.5750 -0.6909  0.0239
  186DOPC  H16R22913   9.584   1.897  13.727  0.8921 -2.2764 -0.4104
  186DOPC  H16S22914   9.536   1.735  13.758 -0.1959  0.4538  1.9401
  186DOPC  C21722915   9.363   1.857  13.767  0.8773  0.3564  0.2779
  186DOPC  H17R22916   9.300   1.769  13.745  1.3780  0.7165 -2.9866
  186DOPC  H17S22917   9.324   1.946  13.713  0.4931 -0.0381 -0.0951
  186DOPC  C21822918   9.356   1.885  13.919  0.3741  0.0979  0.5595
  186DOPC  H18R22919   9.429   1.819  13.971 -0.7707 -1.1942  0.5696
  186DOPC  H18S22920   9.256   1.876  13.966  0.3148  0.5768  0.5351
  186DOPC  H18T22921   9.377   1.994  13.928  1.3843  0.0318 -0.7210
  186DOPC   C3322922   9.041   1.555  12.707  0.3054 -0.1811  0.4567
  186DOPC   H3X22923   9.024   1.454  12.665 -2.4383  0.8157 -1.1327
  186DOPC   H3Y22924   8.938   1.598  12.707  0.7313  0.9011 -0.3958
  186DOPC   C3422925   9.105   1.559  12.843 -0.6315 -0.0950 -0.4274
  186DOPC   H4X22926   9.211   1.529  12.832 -0.8807 -1.9504  1.5892
  186DOPC   H4Y22927   9.051   1.492  12.914 -0.9295  0.1636 -0.4078
  186DOPC   C3522928   9.090   1.697  12.920 -0.2417  0.0008  0.1014
  186DOPC   H5X22929   8.984   1.727  12.911  0.5287  3.6381  1.3744
  186DOPC   H5Y22930   9.157   1.769  12.866 -0.9220  1.6145  1.3299
  186DOPC   C3622931   9.128   1.697  13.075  0.0872 -0.4369 -0.2778
  186DOPC   H6X22932   9.237   1.683  13.084  0.4866  2.7425  1.4077
  186DOPC   H6Y22933   9.108   1.804  13.099  2.2929  0.0084 -0.2935
  186DOPC   C3722934   9.042   1.604  13.168 -0.6043  0.3279 -0.7441
  186DOPC   H7X22935   8.935   1.635  13.167 -0.5630  0.4739 -0.7055
  186DOPC   H7Y22936   9.053   1.496  13.146 -0.3635  0.2772 -0.3966
  186DOPC   C3822937   9.083   1.628  13.314  0.3437  0.7568  0.9626
  186DOPC   H8X22938   9.039   1.726  13.342 -1.4602  0.5637 -0.9214
  186DOPC   H8Y22939   9.194   1.634  13.322  0.5937 -1.7335  0.1383
  186DOPC   C3922940   9.008   1.520  13.397  0.2154  0.5505  0.3821
  186DOPC   H9X22941   8.903   1.546  13.415  0.3153  0.7363  0.7043
  186DOPC  C31022942   9.070   1.431  13.468 -0.1363  0.7539 -0.3933
  186DOPC  H10X22943   9.012   1.356  13.524  2.2250 -1.9553 -1.3873
  186DOPC  C31122944   9.216   1.404  13.486  0.3716  0.4064  0.5674
  186DOPC  H11X22945   9.235   1.394  13.595 -2.7937  0.9448  1.2702
  186DOPC  H11Y22946   9.267   1.494  13.446 -0.4949 -0.0328 -1.6699
  186DOPC  C31222947   9.276   1.290  13.408 -0.0262  0.1589 -0.2865
  186DOPC  H12X22948   9.240   1.199  13.461  0.1096  0.4144  0.2455
  186DOPC  H12Y22949   9.385   1.305  13.417 -0.1481  0.8244  0.1429
  186DOPC  C31322950   9.244   1.287  13.254 -0.5686  0.2725  0.0143
  186DOPC  H13X22951   9.136   1.268  13.239 -0.0456 -2.2811 -1.0510
  186DOPC  H13Y22952   9.276   1.386  13.212 -3.7032  1.2154 -0.4125
  186DOPC  C31422953   9.311   1.166  13.181  0.2253  0.2388 -0.2014
  186DOPC  H14X22954   9.278   1.080  13.243 -0.4272  0.0703 -0.7656
  186DOPC  H14Y22955   9.272   1.149  13.078  1.2298  1.0912 -0.7494
  186DOPC  C31522956   9.460   1.170  13.171  0.3292 -0.1612 -0.2050
  186DOPC  H15X22957   9.499   1.075  13.129 -1.9640  0.1745 -3.4577
  186DOPC  H15Y22958   9.502   1.199  13.270  0.6384  3.5277 -1.2763
  186DOPC  C31622959   9.503   1.265  13.057 -0.5501  0.0915 -0.4220
  186DOPC  H16X22960   9.431   1.347  13.076 -3.0491 -2.2413  0.8810
  186DOPC  H16Y22961   9.600   1.307  13.091 -1.5049  0.6974  1.7017
  186DOPC  C31722962   9.493   1.205  12.922 -0.4789  0.0779  0.1533
  186DOPC  H17X22963   9.569   1.132  12.886 -1.7540 -0.4991 -1.4445
  186DOPC  H17Y22964   9.392   1.160  12.911  0.2698 -1.5659 -0.2681
  186DOPC  C31822965   9.508   1.318  12.825 -0.7229 -0.0858 -0.1727
  186DOPC  H18X22966   9.611   1.360  12.822 -0.0413 -1.7187 -0.8375
  186DOPC  H18Y22967   9.487   1.284  12.722  1.5613 -0.6709 -0.5017
  186DOPC  H18Z22968   9.428   1.387  12.860 -1.2348 -0.9378  0.3686
  187DOPC     N22969   7.000   0.619  12.214 -0.3308  0.0125 -0.5978
  187DOPC   C1222970   6.962   0.729  12.308  0.2955  0.1889 -0.0943
  187DOPC  H12A22971   6.854   0.731  12.313  0.3074  3.9219  2.2692
  187DOPC  H12B22972   6.993   0.827  12.277  2.0312  0.6973  2.8099
  187DOPC   C1322973   6.933   0.488  12.259  0.4172 -0.1511  0.2670
  187DOPC  H13A22974   6.828   0.491  12.236  0.5442  1.1745 -0.2151
  187DOPC  H13B22975   6.982   0.408  12.205  1.8557  0.6249  0.3741
  187DOPC  H13C22976   6.944   0.463  12.364  2.3874  1.3884  0.4892
  187DOPC   C1422977   7.146   0.595  12.220  0.6296  0.5564 -0.7413
  187DOPC  H14A22978   7.186   0.539  12.137 -0.5620 -1.8327  0.2070
  187DOPC  H14B22979   7.204   0.685  12.232  1.0142  0.2866 -0.5745
  187DOPC  H14C22980   7.163   0.530  12.304 -1.4738 -0.4138 -1.0117
  187DOPC   C1522981   6.960   0.658  12.071  0.2332 -0.4983 -0.1589
  187DOPC  H15A22982   6.853   0.672  12.078  0.2780 -0.0833 -0.2977
  187DOPC  H15B22983   6.979   0.574  12.006  1.3416 -0.1450 -0.3042
  187DOPC  H15C22984   7.014   0.747  12.043 -0.9828  1.3105  2.8037
  187DOPC   C1122985   7.008   0.721  12.454 -0.5610  0.4902 -0.3639
  187DOPC  H11A22986   7.119   0.724  12.463 -0.6283 -1.1665  2.6150
  187DOPC  H11B22987   6.970   0.808  12.512  0.8230 -0.8982  2.8652
  187DOPC     P22988   6.851   0.567  12.621 -0.0958 -0.3394  0.2166
  187DOPC   O1322989   6.849   0.418  12.656 -0.0684  0.2125  0.2268
  187DOPC   O1422990   6.728   0.631  12.567 -0.2789 -0.0811 -0.7115
  187DOPC   O1222991   6.960   0.594  12.511  0.2197  0.1225 -0.1141
  187DOPC   O1122992   6.901   0.663  12.740  0.4197  0.0744 -0.2760
  187DOPC    C122993   7.019   0.647  12.809  0.9682  0.8728 -0.9256
  187DOPC    HA22994   7.083   0.736  12.795  1.1523  0.5278 -2.4478
  187DOPC    HB22995   7.080   0.562  12.771  0.0083 -0.2180 -0.1217
  187DOPC    C222996   6.987   0.626  12.963  0.3460  0.3660  0.5491
  187DOPC    HS22997   6.946   0.525  12.981 -1.9726  1.2287  0.4677
  187DOPC   O2122998   6.886   0.722  13.001 -0.1761  0.3741  0.3247
  187DOPC   C2122999   6.760   0.683  12.983  0.3761  0.0668  0.0681
  187DOPC   O2223000   6.726   0.570  12.954 -0.1167 -0.1150  0.0744
  187DOPC   C2223001   6.664   0.806  13.019 -0.1776  1.1999 -0.2786
  187DOPC   H2R23002   6.567   0.767  12.982  0.2968  1.1279 -1.4857
  187DOPC   H2S23003   6.692   0.894  12.957 -1.5604  1.4374 -0.6023
  187DOPC    C323004   7.128   0.652  13.042  0.1546 -0.4285  0.0449
  187DOPC    HX23005   7.113   0.643  13.152 -0.2642 -1.2617 -0.0683
  187DOPC    HY23006   7.152   0.754  13.006 -0.2749 -1.1933 -2.6547
  187DOPC   O3123007   7.233   0.560  13.000  0.6028  0.4862 -0.4060
  187DOPC   C3123008   7.356   0.581  13.054 -0.6840 -0.6043 -0.4686
  187DOPC   O3223009   7.387   0.663  13.140 -0.2460  0.4179 -0.1025
  187DOPC   C3223010   7.456   0.486  12.977 -0.1150  0.4889 -0.7421
  187DOPC   H2X23011   7.391   0.400  12.951  0.4918 -0.3774  0.5041
  187DOPC   H2Y23012   7.502   0.543  12.894  1.6598 -0.8329 -0.6999
  187DOPC   C2323013   6.674   0.854  13.166 -0.3190 -0.4909 -0.1188
  187DOPC   H3R23014   6.624   0.953  13.169  2.2218  0.9047 -0.9609
  187DOPC   H3S23015   6.781   0.878  13.181 -0.2648 -0.8374  0.0486
  187DOPC   C2423016   6.605   0.766  13.272 -0.3239 -0.6406  0.1452
  187DOPC   H4R23017   6.641   0.661  13.274 -0.4761 -0.6981 -0.2055
  187DOPC   H4S23018   6.496   0.765  13.254 -0.5008  0.4559  0.9934
  187DOPC   C2523019   6.618   0.834  13.414  0.6011 -0.1692 -0.0851
  187DOPC   H5R23020   6.561   0.929  13.406  2.3785  1.0241  0.7441
  187DOPC   H5S23021   6.723   0.861  13.438 -0.5979  2.5366  2.7999
  187DOPC   C2623022   6.539   0.758  13.525  0.3014 -0.0206 -0.0725
  187DOPC   H6R23023   6.551   0.648  13.522 -2.6016 -0.4325  0.2664
  187DOPC   H6S23024   6.431   0.770  13.503 -0.3070  0.7611  2.8217
  187DOPC   C2723025   6.559   0.824  13.655 -0.3786  0.7141 -0.3125
  187DOPC   H7R23026   6.532   0.931  13.652 -2.5937  0.1895 -1.9150
  187DOPC   H7S23027   6.668   0.812  13.673 -0.3368 -0.7987 -1.3452
  187DOPC   C2823028   6.467   0.758  13.764  0.2565 -0.5292  0.2660
  187DOPC   H8R23029   6.468   0.648  13.750  1.9086 -0.6031  0.8330
  187DOPC   H8S23030   6.366   0.800  13.742 -0.3840 -2.0306  0.1981
  187DOPC   C2923031   6.502   0.802  13.909  0.4966 -0.3733 -0.2570
  187DOPC   H9R23032   6.600   0.776  13.951  0.8382  0.0522 -0.7750
  187DOPC  C21023033   6.410   0.860  13.999 -1.1028  0.0698  0.3330
  187DOPC  H10R23034   6.435   0.867  14.106 -0.1261  0.0573  0.1203
  187DOPC  C21123035   6.276   0.902  13.963  0.1880  0.0045  0.4559
  187DOPC  H11R23036   6.206   0.816  13.974 -0.0613  0.1672  0.1294
  187DOPC  H11S23037   6.267   0.952  13.865  2.2410 -1.3224 -0.4796
  187DOPC  C21223038   6.223   1.010  14.050 -0.1706 -0.5609 -0.3330
  187DOPC  H12R23039   6.227   0.972  14.154  1.0885 -0.0017 -0.1654
  187DOPC  H12S23040   6.115   1.022  14.026 -0.5503 -1.3673  0.9025
  187DOPC  C21323041   6.309   1.139  14.040  0.7674  0.2954  0.1129
  187DOPC  H13R23042   6.304   1.176  13.936  0.9904  1.5962  0.5459
  187DOPC  H13S23043   6.417   1.123  14.057  0.5722 -2.1000 -0.4975
  187DOPC  C21423044   6.267   1.247  14.147  0.6125  0.2389  0.4305
  187DOPC  H14R23045   6.287   1.197  14.244 -0.1223 -2.3421 -0.6612
  187DOPC  H14S23046   6.163   1.281  14.125  1.4506  0.6667 -3.9149
  187DOPC  C21523047   6.366   1.368  14.154 -0.1060  0.3692  0.5252
  187DOPC  H15R23048   6.361   1.427  14.059 -0.2039 -0.3331  0.0831
  187DOPC  H15S23049   6.470   1.334  14.170 -0.4778  0.6318  4.1574
  187DOPC  C21623050   6.328   1.450  14.268 -0.3018 -0.1253  0.2102
  187DOPC  H16R23051   6.383   1.546  14.258 -1.6589  0.4631 -3.0278
  187DOPC  H16S23052   6.354   1.396  14.361 -0.7902 -0.6508  0.0437
  187DOPC  C21723053   6.177   1.485  14.283 -0.3165  0.0900 -0.7275
  187DOPC  H17R23054   6.127   1.395  14.323  0.3113  0.6335  1.4172
  187DOPC  H17S23055   6.146   1.514  14.180  1.1539  2.2647 -0.6204
  187DOPC  C21823056   6.157   1.599  14.384 -0.0431  0.6710 -1.0451
  187DOPC  H18R23057   6.228   1.679  14.352  1.9959 -0.6938 -0.1610
  187DOPC  H18S23058   6.195   1.571  14.484  2.4657  4.8612 -0.5723
  187DOPC  H18T23059   6.052   1.633  14.388 -0.0904  0.4079  0.9154
  187DOPC   C3323060   7.575   0.423  13.063 -0.0722  0.2936  0.8487
  187DOPC   H3X23061   7.634   0.503  13.112  1.0138  0.0962 -0.0941
  187DOPC   H3Y23062   7.645   0.360  13.005  1.1375  1.1203  1.3838
  187DOPC   C3423063   7.532   0.349  13.184  0.7424 -0.0045  0.6411
  187DOPC   H4X23064   7.468   0.408  13.253 -0.8543 -0.5388 -0.3399
  187DOPC   H4Y23065   7.627   0.323  13.235 -0.4053 -0.2507  2.7452
  187DOPC   C3523066   7.464   0.220  13.153  0.0888 -0.5065  0.3647
  187DOPC   H5X23067   7.515   0.158  13.076 -0.5545 -0.4230 -0.1358
  187DOPC   H5Y23068   7.358   0.241  13.125  1.0326  1.0286 -2.5354
  187DOPC   C3623069   7.459   0.124  13.279 -0.1546  0.7428  0.5758
  187DOPC   H6X23070   7.393   0.041  13.247  2.2409  0.1516 -3.5965
  187DOPC   H6Y23071   7.563   0.094  13.306 -0.2029  0.5506  0.5484
  187DOPC   C3723072   7.395   0.189  13.397 -0.2905 -0.1536 -0.4154
  187DOPC   H7X23073   7.461   0.263  13.447 -1.3919  1.6537 -1.5490
  187DOPC   H7Y23074   7.308   0.254  13.371 -0.9631 -0.6756  0.4466
  187DOPC   C3823075   7.365   0.074  13.494 -0.1805  0.5373 -0.5252
  187DOPC   H8X23076   7.460   0.022  13.520  0.0489  0.2000 -1.9178
  187DOPC   H8Y23077   7.304  -0.002  13.441  0.2776 -1.8776  2.2077
  187DOPC   C3923078   7.294   0.121  13.616 -0.0662 -0.5554 -0.5225
  187DOPC   H9X23079   7.185   0.120  13.602 -0.0113  0.7177 -1.2190
  187DOPC  C31023080   7.344   0.187  13.723 -0.8611 -0.0283  0.1918
  187DOPC  H10X23081   7.268   0.203  13.801 -0.2602 -1.0779  1.0131
  187DOPC  C31123082   7.490   0.210  13.761  0.4092 -0.1842 -0.6666
  187DOPC  H11X23083   7.503   0.318  13.780 -0.7709 -0.3620  1.4490
  187DOPC  H11Y23084   7.558   0.173  13.682  2.5109 -0.2648  1.0809
  187DOPC  C31223085   7.532   0.136  13.894  0.4187 -0.5990  0.0775
  187DOPC  H12X23086   7.467   0.172  13.977 -0.6920 -1.0940 -0.5543
  187DOPC  H12Y23087   7.631   0.186  13.904  0.2301 -0.2808  0.3678
  187DOPC  C31323088   7.525  -0.018  13.882 -0.5730 -0.7325 -0.1001
  187DOPC  H13X23089   7.420  -0.040  13.853 -0.5250  1.0860 -1.9083
  187DOPC  H13Y23090   7.589  -0.061  13.802 -1.2667 -0.6772 -0.6922
  187DOPC  C31423091   7.562  -0.082  14.015 -0.3361 -0.6165  0.2159
  187DOPC  H14X23092   7.643  -0.012  14.044  0.5248 -0.3392 -2.5653
  187DOPC  H14Y23093   7.471  -0.074  14.078 -0.0393 -0.3078  0.6100
  187DOPC  C31523094   7.620  -0.232  14.006 -0.0918  0.2115  0.0242
  187DOPC  H15X23095   7.707  -0.221  13.938 -1.0330  0.2060 -1.2251
  187DOPC  H15Y23096   7.547  -0.297  13.954 -0.9568 -1.3204  2.9117
  187DOPC  C31623097   7.653  -0.299  14.138 -0.0702  0.5002 -0.3683
  187DOPC  H16X23098   7.558  -0.318  14.193  0.1236 -0.7966 -0.4464
  187DOPC  H16Y23099   7.688  -0.404  14.138 -2.9795 -0.6006  2.0964
  187DOPC  C31723100   7.749  -0.218  14.229  0.2360 -0.6819 -0.4170
  187DOPC  H17X23101   7.839  -0.197  14.166 -0.9618 -0.3643 -2.0793
  187DOPC  H17Y23102   7.699  -0.125  14.266 -0.0232  0.6572 -3.7609
  187DOPC  C31823103   7.786  -0.285  14.361  0.4426  0.5879  0.2620
  187DOPC  H18X23104   7.689  -0.322  14.401  0.4134  0.3870  0.0077
  187DOPC  H18Y23105   7.851  -0.375  14.354 -1.2775 -0.8056  1.2743
  187DOPC  H18Z23106   7.819  -0.202  14.427  1.0500  1.0959 -0.6649
  188DOPC     N23107   3.089   8.392  11.831 -0.0340  0.2481 -0.3058
  188DOPC   C1223108   3.051   8.402  11.976  0.1849 -0.3406 -0.4572
  188DOPC  H12A23109   2.944   8.415  11.981  0.0558 -1.3626 -0.3743
  188DOPC  H12B23110   3.100   8.483  12.029 -2.0897 -0.1241  1.5113
  188DOPC   C1323111   2.990   8.302  11.758  0.8523 -0.2225  0.0909
  188DOPC  H13A23112   3.015   8.278  11.656 -0.4323 -0.2214 -0.2378
  188DOPC  H13B23113   2.962   8.213  11.811  1.0217  0.1674  0.8552
  188DOPC  H13C23114   2.904   8.366  11.744  1.1916  0.0829 -0.6794
  188DOPC   C1423115   3.223   8.327  11.817  0.7601 -0.2574 -0.3927
  188DOPC  H14A23116   3.221   8.223  11.848  0.5602  0.0173  0.5435
  188DOPC  H14B23117   3.253   8.337  11.714 -1.9672  0.7930 -1.1564
  188DOPC  H14C23118   3.292   8.385  11.877 -1.4421  1.6538  0.4235
  188DOPC   C1523119   3.095   8.527  11.761 -0.5268 -0.7728  0.3128
  188DOPC  H15A23120   2.999   8.571  11.782 -0.8736 -0.8464 -1.0577
  188DOPC  H15B23121   3.111   8.523  11.654 -3.0761  1.5116 -0.2537
  188DOPC  H15C23122   3.170   8.584  11.814 -0.4152 -0.7603  0.1403
  188DOPC   C1123123   3.080   8.277  12.066 -0.1659 -0.1283 -0.4611
  188DOPC  H11A23124   3.187   8.249  12.069  0.4066  1.8773 -0.9675
  188DOPC  H11B23125   3.063   8.314  12.170  2.4758  1.5161 -0.5308
  188DOPC     P23126   3.022   8.016  12.054  0.1140  0.4754 -0.3623
  188DOPC   O1323127   3.153   7.973  11.998 -0.1895  0.5738  0.1987
  188DOPC   O1423128   2.910   7.937  12.003  0.0965 -0.0180 -0.6141
  188DOPC   O1223129   2.990   8.168  12.027 -0.3189  0.4614 -0.6871
  188DOPC   O1123130   3.023   8.005  12.211  0.1261  0.2610  0.0652
  188DOPC    C123131   2.898   8.030  12.282  0.1454  0.0362 -0.0102
  188DOPC    HA23132   2.808   7.984  12.235  0.0435 -0.9464  1.0841
  188DOPC    HB23133   2.873   8.137  12.270 -0.4940 -0.1363 -0.2884
  188DOPC    C223134   2.890   7.983  12.428 -0.0743  0.1723 -0.7908
  188DOPC    HS23135   2.789   8.012  12.464  0.0939  1.3316 -1.2262
  188DOPC   O2123136   3.001   8.047  12.503 -0.2721  0.9476 -0.3247
  188DOPC   C2123137   2.971   8.173  12.527 -0.3222  0.4404  1.3615
  188DOPC   O2223138   2.858   8.226  12.514 -1.2018  0.3284  0.0121
  188DOPC   C2223139   3.090   8.233  12.591  0.1797 -0.1897 -0.1298
  188DOPC   H2R23140   3.069   8.340  12.571 -2.2700 -0.7511 -0.8796
  188DOPC   H2S23141   3.173   8.208  12.522 -1.4413 -1.7553 -1.6252
  188DOPC    C323142   2.901   7.826  12.448  0.2098  0.6851 -0.1225
  188DOPC    HX23143   2.988   7.783  12.395  0.8203 -1.5015  2.4217
  188DOPC    HY23144   2.806   7.789  12.405  0.3756 -0.1753  0.2449
  188DOPC   O3123145   2.907   7.781  12.586 -0.1204  0.1123 -0.2516
  188DOPC   C3123146   2.795   7.791  12.658  0.3060 -0.6002  0.0547
  188DOPC   O3223147   2.685   7.829  12.615 -0.4940 -0.0239 -0.1403
  188DOPC   C3223148   2.820   7.742  12.804 -0.5562 -0.1872  0.4628
  188DOPC   H2X23149   2.825   7.631  12.805  0.4786 -0.1483  1.4903
  188DOPC   H2Y23150   2.919   7.773  12.842  0.3164 -1.9686 -0.2204
  188DOPC   C2323151   3.117   8.166  12.728  0.3149  0.1521  0.0680
  188DOPC   H3R23152   3.221   8.184  12.760 -0.1100  1.3785  0.8423
  188DOPC   H3S23153   3.100   8.056  12.726  0.9841  0.0320  0.6911
  188DOPC   C2423154   3.033   8.224  12.841 -0.0390 -0.5588  0.1411
  188DOPC   H4R23155   2.924   8.215  12.819 -0.3606  1.8218  0.5275
  188DOPC   H4S23156   3.050   8.334  12.833 -2.6784 -0.1098 -0.2927
  188DOPC   C2523157   3.072   8.174  12.979  1.4648 -0.6339 -0.7037
  188DOPC   H5R23158   3.179   8.143  12.979  1.5797 -0.2523 -0.3665
  188DOPC   H5S23159   3.004   8.088  13.000  1.1857 -0.0806  0.7904
  188DOPC   C2623160   3.040   8.278  13.091 -0.1630 -0.2832  0.2037
  188DOPC   H6R23161   2.929   8.289  13.088 -0.4248 -2.5464 -2.3504
  188DOPC   H6S23162   3.086   8.378  13.074  1.1781 -0.2855  3.2746
  188DOPC   C2723163   3.098   8.241  13.226  0.1691 -0.3161  0.3165
  188DOPC   H7R23164   3.074   8.322  13.299 -0.5776  0.7781 -1.1053
  188DOPC   H7S23165   3.209   8.243  13.228  0.2154 -1.9095  0.0694
  188DOPC   C2823166   3.058   8.103  13.278  0.3710  0.1820 -0.1246
  188DOPC   H8R23167   3.113   8.076  13.371 -1.0172 -0.5499  0.5144
  188DOPC   H8S23168   3.088   8.026  13.203 -1.4481 -1.1543  0.4469
  188DOPC   C2923169   2.906   8.099  13.295 -0.2856 -0.8454  0.3006
  188DOPC   H9R23170   2.853   8.108  13.199 -0.3205  3.6943  0.5476
  188DOPC  C21023171   2.827   8.104  13.409  0.1378  1.2913  0.1505
  188DOPC  H10R23172   2.718   8.086  13.407  0.5116 -1.5517  1.0299
  188DOPC  C21123173   2.884   8.100  13.549  0.5653 -0.8146  0.1736
  188DOPC  H11R23174   2.994   8.115  13.542  0.5741 -1.0490 -0.1883
  188DOPC  H11S23175   2.857   8.000  13.591  1.4958 -0.6731  1.1452
  188DOPC  C21223176   2.822   8.199  13.649 -0.8080 -0.0859  0.8561
  188DOPC  H12R23177   2.715   8.173  13.664 -0.5795 -1.9826 -0.5220
  188DOPC  H12S23178   2.833   8.304  13.612  0.8496 -0.5911 -0.1894
  188DOPC  C21323179   2.877   8.176  13.794 -0.1424  0.0810  0.0111
  188DOPC  H13R23180   2.986   8.195  13.792 -0.4247  2.0550  0.6630
  188DOPC  H13S23181   2.873   8.067  13.813  2.5002 -0.3179 -1.3301
  188DOPC  C21423182   2.807   8.250  13.905  0.6024 -0.1846 -0.5629
  188DOPC  H14R23183   2.697   8.233  13.909  0.1539  2.4690  0.4662
  188DOPC  H14S23184   2.809   8.361  13.897 -2.6705 -0.0428 -0.8305
  188DOPC  C21523185   2.865   8.192  14.037  0.2043  0.2299  0.3639
  188DOPC  H15R23186   2.973   8.212  14.054  0.6629 -0.9853 -0.9148
  188DOPC  H15S23187   2.858   8.082  14.023  1.0102  0.3249 -0.9431
  188DOPC  C21623188   2.785   8.236  14.162  0.0895  0.4613  0.0641
  188DOPC  H16R23189   2.689   8.181  14.162  1.4411 -2.3551 -3.5736
  188DOPC  H16S23190   2.770   8.346  14.162  1.4520  0.6683 -0.0408
  188DOPC  C21723191   2.844   8.188  14.290  0.4085 -0.1958  0.2583
  188DOPC  H17R23192   2.946   8.226  14.309 -0.5333  2.2919  0.6964
  188DOPC  H17S23193   2.857   8.078  14.297  0.9885 -0.0951  0.8068
  188DOPC  C21823194   2.761   8.220  14.412  0.1838  0.1970  0.0230
  188DOPC  H18R23195   2.789   8.173  14.509  3.2088  1.5311 -0.0805
  188DOPC  H18S23196   2.655   8.189  14.395  0.2363 -0.4768  0.8471
  188DOPC  H18T23197   2.761   8.330  14.428  0.2163  0.0498  1.1687
  188DOPC   C3323198   2.718   7.798  12.902 -0.2559  0.3435 -0.0237
  188DOPC   H3X23199   2.737   7.757  13.003  1.0951 -0.8827 -0.7399
  188DOPC   H3Y23200   2.617   7.759  12.878 -0.0003  0.0285 -0.6128
  188DOPC   C3423201   2.711   7.954  12.918 -0.8204 -0.2371  0.0481
  188DOPC   H4X23202   2.702   8.000  12.817  0.1291  0.5557  0.2996
  188DOPC   H4Y23203   2.811   7.988  12.953 -0.0534 -1.8975 -0.4487
  188DOPC   C3523204   2.597   8.020  13.007 -0.1506 -0.2597  0.5982
  188DOPC   H5X23205   2.614   8.130  13.011 -0.6481 -0.1791  0.6625
  188DOPC   H5Y23206   2.584   7.977  13.109 -1.2302 -1.2067  0.0852
  188DOPC   C3623207   2.462   7.989  12.930  0.1115  0.3420  0.2308
  188DOPC   H6X23208   2.472   8.007  12.821 -0.9249  1.8416  0.3495
  188DOPC   H6Y23209   2.437   7.882  12.938  0.6584  0.2287  0.4749
  188DOPC   C3723210   2.343   8.088  12.970 -0.5619  0.8878  0.1450
  188DOPC   H7X23211   2.372   8.195  12.969  0.6244  0.5781  0.2200
  188DOPC   H7Y23212   2.267   8.075  12.889 -0.2595 -1.6932  0.1909
  188DOPC   C3823213   2.274   8.051  13.105  0.6029 -0.6438 -0.1089
  188DOPC   H8X23214   2.345   8.068  13.189  0.3763  0.2004 -0.0789
  188DOPC   H8Y23215   2.238   7.946  13.107 -1.5006  0.0370 -0.1270
  188DOPC   C3923216   2.159   8.149  13.126  0.4127  0.1799  0.6827
  188DOPC   H9X23217   2.094   8.178  13.042 -2.7888  3.3344  3.8357
  188DOPC  C31023218   2.136   8.218  13.238 -0.1019  0.4325 -0.1451
  188DOPC  H10X23219   2.053   8.290  13.230 -1.2939 -1.0299 -1.7324
  188DOPC  C31123220   2.199   8.204  13.372 -0.6236  0.2163  0.6825
  188DOPC  H11X23221   2.237   8.299  13.414 -0.2430  0.3703  0.0075
  188DOPC  H11Y23222   2.280   8.128  13.373  0.6531  1.5325  1.2213
  188DOPC  C31223223   2.110   8.157  13.485  0.2719  0.1940 -0.6289
  188DOPC  H12X23224   2.051   8.071  13.448  1.3128 -0.3252 -1.1278
  188DOPC  H12Y23225   2.041   8.241  13.508  0.1727  0.2876 -1.2445
  188DOPC  C31323226   2.182   8.135  13.620 -0.4988 -0.0938  0.1475
  188DOPC  H13X23227   2.250   8.221  13.637 -1.2728  0.9934 -1.9280
  188DOPC  H13Y23228   2.102   8.129  13.697  0.7837 -1.1729  1.4635
  188DOPC  C31423229   2.264   8.010  13.641 -0.1304 -0.5597 -0.1705
  188DOPC  H14X23230   2.203   7.918  13.652  2.0821 -1.8984  2.0377
  188DOPC  H14Y23231   2.337   7.996  13.559  1.3656 -2.1532  1.3421
  188DOPC  C31523232   2.361   8.014  13.765  0.4724 -0.3451 -0.1587
  188DOPC  H15X23233   2.432   8.100  13.760 -0.4194  0.4634  0.7531
  188DOPC  H15Y23234   2.407   7.913  13.770 -0.4756 -0.9903 -2.8308
  188DOPC  C31623235   2.284   8.029  13.897  0.1661 -0.4721 -0.5377
  188DOPC  H16X23236   2.254   8.136  13.908 -0.5654 -0.7340  0.1315
  188DOPC  H16Y23237   2.193   7.966  13.887  0.3972 -0.7561 -0.8628
  188DOPC  C31723238   2.365   7.982  14.017  0.0301 -0.0188  0.2378
  188DOPC  H17X23239   2.296   7.988  14.104  2.2868  1.9303  2.0415
  188DOPC  H17Y23240   2.393   7.875  14.009  0.3770  0.1205 -0.4856
  188DOPC  C31823241   2.494   8.064  14.051 -0.3553 -0.4134  0.4930
  188DOPC  H18X23242   2.467   8.171  14.066 -0.5174 -0.4528  0.4787
  188DOPC  H18Y23243   2.532   8.024  14.147 -2.6299 -1.8002  0.8972
  188DOPC  H18Z23244   2.570   8.057  13.970 -1.7554  2.6545 -1.2639
  189DOPC     N23245   3.666   7.826  12.336 -0.0042  0.3532  0.6454
  189DOPC   C1223246   3.796   7.794  12.405  0.1847 -0.1430  0.0302
  189DOPC  H12A23247   3.816   7.689  12.395  2.6358  0.1098  1.3685
  189DOPC  H12B23248   3.790   7.808  12.512 -1.8485  3.3000 -0.3995
  189DOPC   C1323249   3.680   7.809  12.187  0.9106  0.1254 -0.3272
  189DOPC  H13A23250   3.766   7.868  12.159  0.3287  0.5106 -1.3592
  189DOPC  H13B23251   3.690   7.705  12.161  0.5608 -0.6517  2.2844
  189DOPC  H13C23252   3.601   7.859  12.133  0.0280 -0.1495  0.6515
  189DOPC   C1423253   3.615   7.964  12.355  0.0067 -0.2912 -0.1791
  189DOPC  H14A23254   3.517   7.977  12.312 -0.3035 -0.7464  0.3687
  189DOPC  H14B23255   3.610   7.988  12.460 -1.0183 -0.0757 -0.2705
  189DOPC  H14C23256   3.675   8.038  12.306 -0.3522  1.0143  1.2670
  189DOPC   C1523257   3.562   7.734  12.390  0.2406  0.8221 -0.1112
  189DOPC  H15A23258   3.581   7.636  12.349  0.9102  0.4474  1.0480
  189DOPC  H15B23259   3.459   7.754  12.364 -0.7499 -0.0301  2.7370
  189DOPC  H15C23260   3.558   7.718  12.497 -2.1609 -1.8084 -0.4734
  189DOPC   C1123261   3.920   7.863  12.354  0.5112  0.2961  0.6047
  189DOPC  H11A23262   3.991   7.799  12.412  0.5508 -0.5047 -0.3056
  189DOPC  H11B23263   3.929   7.841  12.246  0.4475  1.6121  0.3170
  189DOPC     P23264   3.977   8.076  12.499  0.4039 -0.1782  0.0201
  189DOPC   O1323265   3.929   8.215  12.489 -0.3979  0.0057  0.3973
  189DOPC   O1423266   4.120   8.061  12.500  0.0086 -0.3565 -0.0879
  189DOPC   O1223267   3.926   8.000  12.372  0.5572 -0.4412  0.2428
  189DOPC   O1123268   3.906   8.000  12.619  0.1825  0.0101 -0.2979
  189DOPC    C123269   3.786   8.065  12.675 -0.4373  0.4724 -0.4320
  189DOPC    HA23270   3.721   7.986  12.719  0.4457  0.6526  1.2727
  189DOPC    HB23271   3.725   8.109  12.593 -0.6649 -2.2542 -1.8634
  189DOPC    C223272   3.807   8.159  12.794 -0.0494  0.3227  0.2002
  189DOPC    HS23273   3.896   8.222  12.770  0.2499 -0.8675 -2.1474
  189DOPC   O2123274   3.829   8.073  12.904 -0.1490 -0.3398 -1.0831
  189DOPC   C2123275   3.897   8.121  13.006 -0.2226 -0.0366 -0.2956
  189DOPC   O2223276   3.952   8.231  13.001 -0.4220 -0.2805 -0.2437
  189DOPC   C2223277   3.903   8.025  13.124  0.0164 -0.1026 -0.7410
  189DOPC   H2R23278   3.971   7.941  13.099 -2.1003 -2.5284  1.0550
  189DOPC   H2S23279   3.806   7.981  13.156  0.6498  0.0049  1.4712
  189DOPC    C323280   3.683   8.245  12.815  0.3646  0.1189  0.1191
  189DOPC    HX23281   3.593   8.182  12.835  1.4651 -0.9445  2.0070
  189DOPC    HY23282   3.667   8.302  12.721 -0.5267  0.4168  0.4405
  189DOPC   O3123283   3.694   8.322  12.929 -0.7450 -1.2743  0.0535
  189DOPC   C3123284   3.744   8.446  12.913 -0.2437  0.6652  0.9980
  189DOPC   O3223285   3.804   8.491  12.812  0.3645 -0.4009 -0.5368
  189DOPC   C3223286   3.708   8.528  13.033  0.0749  0.5421  0.1895
  189DOPC   H2X23287   3.776   8.616  13.038 -0.3424  0.8225  1.2152
  189DOPC   H2Y23288   3.606   8.570  13.026 -0.2246 -0.3122 -1.0790
  189DOPC   C2323289   3.958   8.102  13.254 -0.2103 -0.2033  0.9222
  189DOPC   H3R23290   3.955   8.031  13.339  5.1619  0.2989  1.9088
  189DOPC   H3S23291   3.892   8.189  13.272 -1.5415 -0.3677 -2.4237
  189DOPC   C2423292   4.112   8.133  13.250  0.6496 -0.2180  0.6765
  189DOPC   H4R23293   4.142   8.196  13.164  0.0580  0.0087  0.6281
  189DOPC   H4S23294   4.166   8.037  13.244  0.0749 -0.4720 -0.9069
  189DOPC   C2523295   4.148   8.196  13.383  0.0908 -0.6162  0.2551
  189DOPC   H5R23296   4.254   8.182  13.411  0.3025 -0.4746 -0.4536
  189DOPC   H5S23297   4.088   8.150  13.464  0.2347 -0.7005  0.3138
  189DOPC   C2623298   4.128   8.347  13.372  0.0971 -0.3218  0.1143
  189DOPC   H6R23299   4.033   8.372  13.318  0.4717  0.1957 -0.3141
  189DOPC   H6S23300   4.211   8.396  13.317  1.2157 -0.0074  2.0158
  189DOPC   C2723301   4.125   8.421  13.510  0.1546 -0.0156  0.8719
  189DOPC   H7R23302   4.032   8.398  13.566 -0.1649  0.6234  0.6062
  189DOPC   H7S23303   4.120   8.524  13.469 -1.1150 -0.7746 -0.9931
  189DOPC   C2823304   4.251   8.402  13.600  0.2886  0.1887 -0.0859
  189DOPC   H8R23305   4.253   8.499  13.654 -0.9111  0.0493  0.2439
  189DOPC   H8S23306   4.341   8.397  13.536  0.3531  0.1702  0.0074
  189DOPC   C2923307   4.264   8.284  13.699 -0.3830  0.4324 -0.4271
  189DOPC   H9R23308   4.163   8.242  13.712 -0.3868  0.8962  1.3535
  189DOPC  C21023309   4.369   8.227  13.764 -0.1574 -0.0354  0.6719
  189DOPC  H10R23310   4.336   8.145  13.829  0.4184 -0.2406  0.7195
  189DOPC  C21123311   4.515   8.259  13.749  0.7925 -0.4997 -0.2001
  189DOPC  H11R23312   4.534   8.345  13.682 -1.7374  1.3858  1.3321
  189DOPC  H11S23313   4.566   8.169  13.710 -0.5399 -1.5792  0.4221
  189DOPC  C21223314   4.589   8.298  13.883 -0.4012 -0.0690 -0.1418
  189DOPC  H12R23315   4.563   8.220  13.957 -0.0641 -0.8142 -0.7877
  189DOPC  H12S23316   4.554   8.399  13.911  0.5059  0.2945 -0.2794
  189DOPC  C21323317   4.742   8.301  13.871  0.0372  0.1622  0.2717
  189DOPC  H13R23318   4.753   8.370  13.785  0.9511 -0.9223 -0.5228
  189DOPC  H13S23319   4.772   8.198  13.840  0.2372  0.7552 -1.6416
  189DOPC  C21423320   4.822   8.349  13.988 -0.2576  0.0138  0.4895
  189DOPC  H14R23321   4.807   8.459  14.000 -0.4334 -0.0812  1.2055
  189DOPC  H14S23322   4.930   8.343  13.963 -0.0088  2.7397  0.5329
  189DOPC  C21523323   4.794   8.269  14.117 -0.5722 -0.5551 -0.6270
  189DOPC  H15R23324   4.686   8.257  14.140 -0.6093  0.6519 -0.0743
  189DOPC  H15S23325   4.834   8.338  14.195  0.4411 -1.4498 -0.3400
  189DOPC  C21623326   4.882   8.141  14.132  0.1609 -0.5944 -0.1216
  189DOPC  H16R23327   4.986   8.164  14.103 -0.8080  0.2660 -3.3346
  189DOPC  H16S23328   4.840   8.060  14.068 -2.1206  0.0079  0.5005
  189DOPC  C21723329   4.900   8.081  14.270  0.0515  0.1372  0.0745
  189DOPC  H17R23330   4.953   7.985  14.254 -2.6771 -1.4977  0.1598
  189DOPC  H17S23331   4.803   8.074  14.324  0.3069  2.5455  0.9844
  189DOPC  C21823332   4.990   8.177  14.354  0.0968  0.1747  0.5084
  189DOPC  H18R23333   5.089   8.200  14.308  0.3634 -1.9245 -0.0951
  189DOPC  H18S23334   5.006   8.150  14.461 -0.0078  4.0412  1.6513
  189DOPC  H18T23335   4.947   8.279  14.349  2.1074  1.0411 -0.6566
  189DOPC   C3323336   3.707   8.443  13.158  0.4442  0.0599  0.4345
  189DOPC   H3X23337   3.797   8.379  13.158  1.0482  0.8977  0.5074
  189DOPC   H3Y23338   3.616   8.379  13.149  0.9820 -0.6098 -0.2628
  189DOPC   C3423339   3.703   8.530  13.285  0.3337 -0.1863  0.3181
  189DOPC   H4X23340   3.613   8.596  13.284  0.1615 -0.3683  1.7049
  189DOPC   H4Y23341   3.801   8.581  13.291 -0.2187  0.7667  1.8468
  189DOPC   C3523342   3.684   8.442  13.415  0.0762  0.2183 -0.6865
  189DOPC   H5X23343   3.745   8.351  13.397  1.0402  0.8786 -0.8996
  189DOPC   H5Y23344   3.577   8.414  13.425  0.3084  0.0495  2.1988
  189DOPC   C3623345   3.721   8.521  13.543 -0.1100 -0.2332 -0.4684
  189DOPC   H6X23346   3.828   8.550  13.534 -0.3580  0.7285 -0.4128
  189DOPC   H6Y23347   3.672   8.621  13.543  1.5361  0.6085  0.4796
  189DOPC   C3723348   3.689   8.441  13.668  0.0701 -0.6091  0.6648
  189DOPC   H7X23349   3.579   8.423  13.662  0.2390 -1.2450 -2.2298
  189DOPC   H7Y23350   3.749   8.348  13.670 -0.5985 -1.0459  0.6156
  189DOPC   C3823351   3.712   8.519  13.801  0.3949 -0.6096 -0.0470
  189DOPC   H8X23352   3.683   8.450  13.883  0.3031 -1.2728 -0.6259
  189DOPC   H8Y23353   3.646   8.607  13.811 -0.2499 -1.0372 -0.4617
  189DOPC   C3923354   3.861   8.542  13.815  0.0071  0.1722  0.0868
  189DOPC   H9X23355   3.915   8.459  13.862 -0.0039  0.5096  0.7117
  189DOPC  C31023356   3.927   8.656  13.799 -0.3040 -0.4322 -0.1385
  189DOPC  H10X23357   4.036   8.648  13.811 -0.5979 -0.7118  2.8928
  189DOPC  C31123358   3.878   8.795  13.760 -0.1036 -0.1399  0.2245
  189DOPC  H11X23359   3.863   8.853  13.853 -1.7826  0.5865 -0.4518
  189DOPC  H11Y23360   3.779   8.793  13.709  1.1558  0.2011 -2.4211
  189DOPC  C31223361   3.968   8.859  13.654 -0.1599  0.1119 -0.7340
  189DOPC  H12X23362   4.074   8.839  13.680 -0.3883 -1.8608 -1.1623
  189DOPC  H12Y23363   3.944   8.968  13.649  0.6464  0.5142  2.3497
  189DOPC  C31323364   3.948   8.797  13.515  1.0098  0.1517  0.3838
  189DOPC  H13X23365   3.982   8.691  13.507  0.0438 -0.0643 -1.3416
  189DOPC  H13Y23366   3.845   8.787  13.476  1.0651 -0.9020  0.4801
  189DOPC  C31423367   4.041   8.854  13.410  0.0503 -0.1046  0.0361
  189DOPC  H14X23368   4.004   8.956  13.389 -0.1871 -0.5422 -1.8846
  189DOPC  H14Y23369   4.147   8.856  13.445  0.4234  1.1662 -1.0963
  189DOPC  C31523370   4.037   8.762  13.282  0.1439 -0.1069  0.8941
  189DOPC  H15X23371   3.936   8.773  13.237  1.0278 -2.9330 -2.1865
  189DOPC  H15Y23372   4.069   8.660  13.311  0.5986 -0.4195 -0.5870
  189DOPC  C31623373   4.131   8.816  13.175 -0.3233  0.1206  0.3277
  189DOPC  H16X23374   4.090   8.907  13.124  1.3346  1.4334  1.2450
  189DOPC  H16Y23375   4.231   8.836  13.220 -1.3892  0.3759  2.7031
  189DOPC  C31723376   4.168   8.715  13.062  0.2660 -0.2809 -0.0132
  189DOPC  H17X23377   4.083   8.657  13.020  1.4078 -2.3344  0.3639
  189DOPC  H17Y23378   4.200   8.781  12.978  2.2814 -0.2906  0.6952
  189DOPC  C31823379   4.275   8.611  13.099  0.0517 -0.1963 -0.2067
  189DOPC  H18X23380   4.233   8.551  13.182 -0.5516  1.6040  0.8455
  189DOPC  H18Y23381   4.282   8.546  13.009  0.9422 -0.8996  0.3581
  189DOPC  H18Z23382   4.372   8.654  13.133 -0.1392 -0.8564  1.2337
  190DOPC     N23383   1.457   7.909  11.797  0.1100 -0.1057 -0.0790
  190DOPC   C1223384   1.465   7.855  11.940  0.3907 -0.0545  0.8183
  190DOPC  H12A23385   1.554   7.797  11.960 -0.5632 -1.8613  0.1488
  190DOPC  H12B23386   1.384   7.784  11.955  0.9281 -0.6986  0.7086
  190DOPC   C1323387   1.326   7.986  11.781  0.3650  0.5695 -0.5733
  190DOPC  H13A23388   1.329   8.050  11.868  0.1109 -1.4725  1.0036
  190DOPC  H13B23389   1.317   8.041  11.688  0.8479 -0.2393 -1.1196
  190DOPC  H13C23390   1.248   7.911  11.781  0.6373  0.2797 -0.7546
  190DOPC   C1423391   1.456   7.790  11.701  0.4315 -0.2191  0.1832
  190DOPC  H14A23392   1.444   7.818  11.597 -0.5470 -1.6978 -0.1289
  190DOPC  H14B23393   1.553   7.743  11.709  1.6194  2.0136 -0.1778
  190DOPC  H14C23394   1.370   7.729  11.724  1.1422 -0.6963  1.6906
  190DOPC   C1523395   1.560   8.000  11.758 -0.4578 -0.5116 -0.8293
  190DOPC  H15A23396   1.656   7.961  11.790 -0.7968 -0.8143 -0.1615
  190DOPC  H15B23397   1.542   8.096  11.803 -1.3001 -1.7307  1.6327
  190DOPC  H15C23398   1.566   7.997  11.650 -3.0967 -3.9264 -1.0934
  190DOPC   C1123399   1.443   7.960  12.054 -0.3913 -0.1073 -0.0841
  190DOPC  H11A23400   1.341   8.003  12.047 -0.6462 -0.5348  0.8575
  190DOPC  H11B23401   1.459   7.902  12.148  0.4305 -1.2491 -0.8962
  190DOPC     P23402   1.521   8.194  12.122  0.0031 -0.0289  0.0117
  190DOPC   O1323403   1.407   8.264  12.057  0.5538  0.3134  0.0813
  190DOPC   O1423404   1.651   8.264  12.126 -0.2314  0.2881 -0.1400
  190DOPC   O1223405   1.550   8.059  12.050  0.1222  0.2312  0.1901
  190DOPC   O1123406   1.477   8.147  12.265 -0.2984 -0.0409  0.6850
  190DOPC    C123407   1.575   8.073  12.335  0.2115  0.1299  0.2619
  190DOPC    HA23408   1.633   8.147  12.395  0.0032  0.5250 -0.0199
  190DOPC    HB23409   1.643   8.017  12.266  0.4549  2.8998 -1.9232
  190DOPC    C223410   1.505   7.983  12.442  0.7096  0.6751  0.4667
  190DOPC    HS23411   1.455   7.901  12.385 -1.6535  1.2102  1.6667
  190DOPC   O2123412   1.398   8.061  12.505  0.0902 -0.3718  0.3583
  190DOPC   C2123413   1.327   8.002  12.601  0.0629 -0.3041 -0.7617
  190DOPC   O2223414   1.318   7.883  12.621  0.5240  0.5304 -0.0747
  190DOPC   C2223415   1.263   8.118  12.670 -0.0351 -0.3614 -0.4473
  190DOPC   H2R23416   1.172   8.069  12.709 -0.0353 -0.7887 -0.9653
  190DOPC   H2S23417   1.229   8.192  12.594  2.1825  0.6588 -0.5366
  190DOPC    C323418   1.612   7.919  12.536  0.4362  0.4751  0.6712
  190DOPC    HX23419   1.683   7.862  12.472 -1.8494  0.2361 -1.8624
  190DOPC    HY23420   1.557   7.848  12.602 -1.5907  0.0787 -1.2941
  190DOPC   O3123421   1.668   8.028  12.613 -0.2081  0.5858  0.6540
  190DOPC   C3123422   1.724   7.998  12.721  0.0276  0.1618  0.2509
  190DOPC   O3223423   1.759   7.884  12.757 -0.4182 -0.2535  0.0833
  190DOPC   C3223424   1.767   8.126  12.788 -0.2403  0.0509  0.2291
  190DOPC   H2X23425   1.843   8.166  12.718 -0.2896 -0.7167 -0.2695
  190DOPC   H2Y23426   1.690   8.205  12.781  0.0835  0.4218  0.7879
  190DOPC   C2323427   1.355   8.178  12.778  0.6521 -0.8351 -0.5702
  190DOPC   H3R23428   1.300   8.268  12.815  0.1260 -0.7264 -1.5767
  190DOPC   H3S23429   1.443   8.215  12.721 -0.2910 -0.3903 -1.7839
  190DOPC   C2423430   1.393   8.087  12.891  0.1447 -0.2831  0.2176
  190DOPC   H4R23431   1.443   8.146  12.970 -0.9603  0.6047  0.2819
  190DOPC   H4S23432   1.466   8.017  12.843 -0.0080 -0.9975  1.0081
  190DOPC   C2523433   1.282   8.009  12.960  0.4921  0.6903  0.1673
  190DOPC   H5R23434   1.241   7.930  12.894 -0.2522  1.1723  0.0418
  190DOPC   H5S23435   1.195   8.077  12.972  0.4865  1.0007 -1.4129
  190DOPC   C2623436   1.320   7.955  13.097 -0.3311 -0.1602 -0.3801
  190DOPC   H6R23437   1.231   7.916  13.150  0.0147 -1.0627 -0.4484
  190DOPC   H6S23438   1.361   8.040  13.155 -1.3014  0.6668 -0.8691
  190DOPC   C2723439   1.430   7.847  13.083 -0.0320  0.3727  0.1141
  190DOPC   H7R23440   1.515   7.889  13.025  0.6486 -0.7021  0.3139
  190DOPC   H7S23441   1.394   7.763  13.019 -0.0586  0.0903  0.4939
  190DOPC   C2823442   1.475   7.797  13.224  0.6231  0.1396 -0.3960
  190DOPC   H8R23443   1.386   7.745  13.268  0.1420 -0.3891 -1.9350
  190DOPC   H8S23444   1.489   7.889  13.284 -0.3765 -0.2686  0.5061
  190DOPC   C2923445   1.590   7.703  13.221 -0.3766 -0.1139 -0.1866
  190DOPC   H9R23446   1.615   7.656  13.125  4.0641 -1.3004  1.2806
  190DOPC  C21023447   1.685   7.693  13.317  0.4365 -0.0137  0.4419
  190DOPC  H10R23448   1.759   7.612  13.306  0.9121  0.5686 -0.9041
  190DOPC  C21123449   1.665   7.744  13.461 -0.1707 -0.8179 -0.3588
  190DOPC  H11R23450   1.600   7.833  13.478  1.5363  0.3160  0.5825
  190DOPC  H11S23451   1.765   7.780  13.494  0.2851 -1.6093 -0.8637
  190DOPC  C21223452   1.614   7.634  13.558 -0.3884 -0.6312 -0.1041
  190DOPC  H12R23453   1.653   7.536  13.525  1.2904  0.2400 -0.8466
  190DOPC  H12S23454   1.504   7.629  13.542 -0.7784  1.1008  1.6777
  190DOPC  C21323455   1.653   7.642  13.704 -0.8270  0.1737  0.1658
  190DOPC  H13R23456   1.762   7.621  13.706 -0.8811 -0.2021 -0.4183
  190DOPC  H13S23457   1.599   7.565  13.764  1.7542 -1.0342  1.0983
  190DOPC  C21423458   1.627   7.783  13.760 -0.2461 -0.2294 -0.5362
  190DOPC  H14R23459   1.547   7.829  13.699  0.5798  0.1878 -1.3422
  190DOPC  H14S23460   1.720   7.842  13.741 -0.6476  0.5406 -0.1426
  190DOPC  C21523461   1.583   7.801  13.904  0.4106  0.2319  0.7669
  190DOPC  H15R23462   1.500   7.738  13.942 -0.5012  0.9647  0.0371
  190DOPC  H15S23463   1.551   7.905  13.923 -0.4852  0.1919 -0.4049
  190DOPC  C21623464   1.700   7.760  14.000 -0.2247 -0.5716  0.5311
  190DOPC  H16R23465   1.798   7.805  13.974 -0.8732 -1.0484 -3.3391
  190DOPC  H16S23466   1.704   7.650  13.988  0.0833 -0.4853 -0.2097
  190DOPC  C21723467   1.678   7.805  14.146  0.1811  0.5083 -0.1467
  190DOPC  H17R23468   1.736   7.739  14.215  0.1708  0.2008 -0.4324
  190DOPC  H17S23469   1.576   7.769  14.172  1.0249 -2.0874 -0.1262
  190DOPC  C21823470   1.699   7.956  14.178  0.0315 -0.1464  0.8730
  190DOPC  H18R23471   1.665   7.984  14.280  0.8583  0.1365  1.0769
  190DOPC  H18S23472   1.650   8.022  14.103 -0.2917 -0.8591  0.4448
  190DOPC  H18T23473   1.805   7.990  14.170 -0.3132  0.5711 -2.4229
  190DOPC   C3323474   1.835   8.141  12.931 -0.8344  0.2218 -0.2550
  190DOPC   H3X23475   1.860   8.249  12.940 -1.1656  0.7216 -3.8684
  190DOPC   H3Y23476   1.926   8.080  12.946 -1.0943 -0.0361  0.3042
  190DOPC   C3423477   1.737   8.094  13.039  0.1442 -0.1911  0.1001
  190DOPC   H4X23478   1.716   7.985  13.040  0.6196 -0.2881  1.4733
  190DOPC   H4Y23479   1.641   8.143  13.014 -0.5022 -1.1690  0.5742
  190DOPC   C3523480   1.789   8.138  13.176  0.6186  0.1671 -0.3799
  190DOPC   H5X23481   1.812   8.247  13.173 -1.0430  0.7440  3.0326
  190DOPC   H5Y23482   1.885   8.086  13.196  0.6051  0.4942  0.6216
  190DOPC   C3623483   1.697   8.123  13.296 -0.2591  0.0928  0.0807
  190DOPC   H6X23484   1.594   8.133  13.256 -0.8828  2.0865  1.9532
  190DOPC   H6Y23485   1.692   8.018  13.333  3.2958 -0.2882 -0.1965
  190DOPC   C3723486   1.728   8.218  13.416 -0.4929 -0.0400  0.4927
  190DOPC   H7X23487   1.828   8.191  13.457  0.5821  0.6995 -1.5268
  190DOPC   H7Y23488   1.736   8.319  13.371 -2.3502 -1.2156 -2.8508
  190DOPC   C3823489   1.625   8.219  13.533 -0.2179  0.0746  0.2193
  190DOPC   H8X23490   1.666   8.303  13.593 -0.9981  0.6679 -0.0647
  190DOPC   H8Y23491   1.638   8.122  13.585 -2.4369 -1.2855 -1.5824
  190DOPC   C3923492   1.490   8.257  13.478 -0.8146  0.1085 -0.0136
  190DOPC   H9X23493   1.491   8.349  13.418 -1.2547 -0.8055 -1.4934
  190DOPC  C31023494   1.373   8.189  13.494 -0.3698  0.3264 -0.5688
  190DOPC  H10X23495   1.278   8.235  13.462  0.2720  1.5719 -0.7797
  190DOPC  C31123496   1.362   8.063  13.576  0.0832 -0.1023  1.7392
  190DOPC  H11X23497   1.452   7.999  13.562 -0.6706 -0.8290 -0.0923
  190DOPC  H11Y23498   1.281   8.005  13.526  0.4958  1.3758 -0.8208
  190DOPC  C31223499   1.329   8.084  13.719 -0.0177 -0.0773 -0.5208
  190DOPC  H12X23500   1.328   7.990  13.778  1.5234  0.7355  0.8866
  190DOPC  H12Y23501   1.227   8.129  13.722  0.2707  0.6157 -0.9828
  190DOPC  C31323502   1.428   8.180  13.803 -0.2402 -0.0533 -0.5555
  190DOPC  H13X23503   1.528   8.131  13.804  0.9379  2.0953  2.4732
  190DOPC  H13Y23504   1.440   8.274  13.746 -1.5872 -0.6949 -1.9652
  190DOPC  C31423505   1.381   8.228  13.938 -0.1057  0.1195 -0.0254
  190DOPC  H14X23506   1.275   8.261  13.931 -0.9670 -1.0723  4.3115
  190DOPC  H14Y23507   1.384   8.146  14.012  0.8074 -2.4104 -2.6736
  190DOPC  C31523508   1.470   8.335  14.006  0.2511 -0.4130 -0.6976
  190DOPC  H15X23509   1.565   8.296  14.050 -1.2950 -0.8491  2.5360
  190DOPC  H15Y23510   1.413   8.376  14.093 -0.2192 -0.0493 -1.1696
  190DOPC  C31623511   1.501   8.449  13.907  0.1212  0.0383 -0.2321
  190DOPC  H16X23512   1.573   8.413  13.831  2.1946  2.2685  0.5350
  190DOPC  H16Y23513   1.409   8.497  13.867 -1.6946 -2.2550  0.9707
  190DOPC  C31723514   1.579   8.563  13.968 -0.0931 -0.8286 -0.2970
  190DOPC  H17X23515   1.527   8.591  14.062  0.3973  1.5208 -0.6587
  190DOPC  H17Y23516   1.680   8.519  13.982 -0.2197 -0.7342  1.0903
  190DOPC  C31823517   1.597   8.696  13.891  0.0560 -0.4502 -0.4357
  190DOPC  H18X23518   1.635   8.773  13.961  0.7019 -0.8816 -0.3019
  190DOPC  H18Y23519   1.677   8.689  13.815  0.0935 -0.2081 -0.4196
  190DOPC  H18Z23520   1.498   8.720  13.847  0.0622  0.8595  0.1925
  191DOPC     N23521   6.278   7.267  12.539  0.0513  0.5241  0.0988
  191DOPC   C1223522   6.400   7.330  12.474 -0.3780  0.2853  0.2216
  191DOPC  H12A23523   6.479   7.340  12.547  0.1924  0.5822 -0.4215
  191DOPC  H12B23524   6.381   7.432  12.443 -1.6086  0.2813  0.8799
  191DOPC   C1323525   6.175   7.232  12.444  0.7496  0.3565  0.7296
  191DOPC  H13A23526   6.089   7.184  12.489 -0.3529  0.5799 -1.0394
  191DOPC  H13B23527   6.133   7.312  12.384 -0.3633 -2.3014 -2.2875
  191DOPC  H13C23528   6.221   7.158  12.380 -0.1289 -0.9724  1.5870
  191DOPC   C1423529   6.212   7.376  12.630 -0.3470  0.3256  0.2451
  191DOPC  H14A23530   6.109   7.347  12.644 -1.0857  0.5613 -3.7390
  191DOPC  H14B23531   6.276   7.386  12.717  0.3340  2.4170 -0.4310
  191DOPC  H14C23532   6.208   7.473  12.582  3.0712 -0.2498 -1.4868
  191DOPC   C1523533   6.310   7.144  12.614  0.7173  0.5109 -0.4252
  191DOPC  H15A23534   6.405   7.153  12.664 -1.0038 -0.7327  3.5068
  191DOPC  H15B23535   6.322   7.066  12.540  0.0634  0.6188 -0.6550
  191DOPC  H15C23536   6.234   7.112  12.684 -0.1881 -1.6383 -2.2724
  191DOPC   C1123537   6.463   7.259  12.356 -0.5129 -0.5455 -0.7218
  191DOPC  H11A23538   6.386   7.243  12.277  0.7102  0.6382 -2.2015
  191DOPC  H11B23539   6.541   7.320  12.307 -3.0806  2.9296 -0.8481
  191DOPC     P23540   6.655   7.111  12.473 -0.2650  0.1136  0.1881
  191DOPC   O1323541   6.752   7.209  12.426 -0.0154 -0.1314 -0.4694
  191DOPC   O1423542   6.694   6.975  12.442 -0.2742 -0.2122 -0.0911
  191DOPC   O1223543   6.519   7.136  12.400  0.1194 -0.0194  0.4718
  191DOPC   O1123544   6.624   7.121  12.625 -0.4451  0.2542  0.8758
  191DOPC    C123545   6.695   7.033  12.707 -0.4662 -0.1358  0.2100
  191DOPC    HA23546   6.803   7.039  12.683 -0.4920 -1.6572 -0.3917
  191DOPC    HB23547   6.659   6.930  12.685 -1.4406  0.8501 -3.6207
  191DOPC    C223548   6.686   7.062  12.856  0.2684  0.9178  0.0735
  191DOPC    HS23549   6.759   6.999  12.912 -0.2627  0.0560 -0.1831
  191DOPC   O2123550   6.554   7.052  12.905 -0.5136 -0.3245 -0.0975
  191DOPC   C2123551   6.517   6.939  12.942 -0.1073 -0.0687 -0.5257
  191DOPC   O2223552   6.584   6.835  12.919 -0.1331 -0.3511  1.1018
  191DOPC   C2223553   6.385   6.950  13.019 -0.0391  1.0346 -0.0267
  191DOPC   H2R23554   6.312   7.007  12.959 -0.1622  0.3921 -0.4956
  191DOPC   H2S23555   6.401   7.007  13.113  0.7662  0.0905  0.4401
  191DOPC    C323556   6.734   7.201  12.881 -0.0008  0.0015 -0.1720
  191DOPC    HX23557   6.651   7.270  12.857  0.4850  0.6650  0.0410
  191DOPC    HY23558   6.816   7.226  12.811  2.3656 -3.2893  1.1750
  191DOPC   O3123559   6.772   7.226  13.015  0.1430  0.6121 -0.2116
  191DOPC   C3123560   6.787   7.359  13.056  0.3292 -0.0753  0.1215
  191DOPC   O3223561   6.786   7.448  12.975  0.3413 -0.5434 -0.3755
  191DOPC   C3223562   6.798   7.369  13.212  0.2059  0.1764 -0.6330
  191DOPC   H2X23563   6.701   7.412  13.247  0.9180  1.2971  0.0332
  191DOPC   H2Y23564   6.807   7.269  13.258  0.7867  0.7366  0.5331
  191DOPC   C2323565   6.329   6.803  13.055  0.0311 -0.7333 -0.5164
  191DOPC   H3R23566   6.346   6.752  12.958  2.4951  4.2650 -3.1134
  191DOPC   H3S23567   6.223   6.819  13.085  0.0230  0.8317 -1.2719
  191DOPC   C2423568   6.413   6.721  13.163  0.4037 -0.3111  0.4608
  191DOPC   H4R23569   6.516   6.715  13.121  0.2683 -0.0646  0.0837
  191DOPC   H4S23570   6.376   6.618  13.148 -0.3545  0.1198 -0.7856
  191DOPC   C2523571   6.406   6.768  13.310 -0.1097 -0.0317 -0.0602
  191DOPC   H5R23572   6.443   6.871  13.329  0.6523  0.0389 -1.7655
  191DOPC   H5S23573   6.466   6.690  13.362  2.1291  1.4236 -0.3261
  191DOPC   C2623574   6.259   6.764  13.362 -0.3653  0.1628 -0.1045
  191DOPC   H6R23575   6.203   6.678  13.319 -0.4347 -0.1359  0.5693
  191DOPC   H6S23576   6.216   6.860  13.326  1.3029  0.8074 -0.4759
  191DOPC   C2723577   6.239   6.745  13.516  0.1220 -0.6699  0.2698
  191DOPC   H7R23578   6.291   6.651  13.544  0.4796 -0.6329 -0.2510
  191DOPC   H7S23579   6.131   6.734  13.537 -0.1469 -0.0010 -0.7186
  191DOPC   C2823580   6.300   6.850  13.602 -0.3081 -0.0233 -0.1689
  191DOPC   H8R23581   6.410   6.845  13.588 -0.4137 -0.1274 -1.0386
  191DOPC   H8S23582   6.293   6.811  13.706 -0.6093  0.1789 -0.1094
  191DOPC   C2923583   6.237   6.985  13.578 -0.1546  0.3981 -0.1719
  191DOPC   H9R23584   6.277   7.043  13.493 -0.1412 -0.0604 -0.4795
  191DOPC  C21023585   6.133   7.045  13.653  0.1113  0.3533 -0.0924
  191DOPC  H10R23586   6.080   7.134  13.615 -2.0536  0.6462  3.1965
  191DOPC  C21123587   6.052   6.980  13.768  0.5605  0.1312 -0.3830
  191DOPC  H11R23588   6.055   6.869  13.767  0.2858  0.1213 -1.4179
  191DOPC  H11S23589   5.947   7.012  13.748  1.0517  1.9372 -0.2291
  191DOPC  C21223590   6.100   7.033  13.904 -0.0854 -0.1093  0.1924
  191DOPC  H12R23591   6.017   6.989  13.963  1.6518 -0.6404  2.4113
  191DOPC  H12S23592   6.095   7.143  13.915 -0.0377 -0.1432  0.5798
  191DOPC  C21323593   6.221   6.963  13.958 -0.3445  0.4220  0.4346
  191DOPC  H13R23594   6.316   6.996  13.911  0.0115 -2.2091 -0.9014
  191DOPC  H13S23595   6.213   6.856  13.928  1.7826  0.7657 -1.6564
  191DOPC  C21423596   6.239   6.975  14.111 -0.2735  0.4750  0.5668
  191DOPC  H14R23597   6.142   6.943  14.153 -1.7716  1.6363 -1.8006
  191DOPC  H14S23598   6.257   7.082  14.134  0.5920  0.9681 -2.0438
  191DOPC  C21523599   6.344   6.878  14.172  0.1029 -0.0852 -1.0733
  191DOPC  H15R23600   6.441   6.922  14.143 -0.3333  1.4479 -0.3214
  191DOPC  H15S23601   6.336   6.774  14.132  0.5054  0.1218 -1.6936
  191DOPC  C21623602   6.331   6.902  14.324  0.8081 -0.1027 -0.4795
  191DOPC  H16R23603   6.236   6.859  14.362  0.2056  0.4467 -1.3321
  191DOPC  H16S23604   6.325   7.009  14.355 -0.6460  0.0403 -1.1493
  191DOPC  C21723605   6.447   6.836  14.409 -0.3576 -0.2610  0.4215
  191DOPC  H17R23606   6.437   6.872  14.514  0.3891  0.3279  0.2998
  191DOPC  H17S23607   6.544   6.872  14.369  0.2636 -1.6192  0.6390
  191DOPC  C21823608   6.440   6.679  14.396 -0.6293 -0.7547 -0.1161
  191DOPC  H18R23609   6.523   6.641  14.459 -0.3506  0.6329  0.3791
  191DOPC  H18S23610   6.450   6.642  14.292 -1.3625 -0.2453 -0.3775
  191DOPC  H18T23611   6.343   6.650  14.442 -1.4511 -0.9272 -1.8694
  191DOPC   C3323612   6.914   7.450  13.264  0.0195 -0.4762 -0.2834
  191DOPC   H3X23613   6.905   7.554  13.225 -1.3926 -0.2195  0.6487
  191DOPC   H3Y23614   7.013   7.418  13.224 -0.1017  0.4462 -1.3793
  191DOPC   C3423615   6.935   7.459  13.419  0.4406 -0.2511 -0.2049
  191DOPC   H4X23616   7.018   7.528  13.446  0.2961 -0.1713  0.0401
  191DOPC   H4Y23617   6.963   7.358  13.456  0.9255  0.0238  0.1881
  191DOPC   C3523618   6.807   7.506  13.487 -0.3621 -0.1223  0.3894
  191DOPC   H5X23619   6.734   7.424  13.472  0.5054 -0.5807 -1.7121
  191DOPC   H5Y23620   6.769   7.594  13.430  1.3536  0.7374  0.5023
  191DOPC   C3623621   6.810   7.552  13.636  0.8383 -0.6842 -0.2826
  191DOPC   H6X23622   6.848   7.481  13.712  1.9298  0.4334  0.2510
  191DOPC   H6Y23623   6.882   7.636  13.631 -0.2683  0.2945 -0.3410
  191DOPC   C3723624   6.683   7.616  13.683 -0.3210 -0.2536  0.9623
  191DOPC   H7X23625   6.639   7.675  13.600  1.7498 -1.1186 -0.8400
  191DOPC   H7Y23626   6.622   7.525  13.701  1.7161 -1.2606  3.2787
  191DOPC   C3823627   6.689   7.700  13.806  0.6066  1.2495  0.5762
  191DOPC   H8X23628   6.775   7.769  13.805  1.3480  0.3414 -0.8629
  191DOPC   H8Y23629   6.699   7.633  13.894  3.1316 -1.2790 -1.4632
  191DOPC   C3923630   6.572   7.801  13.818 -0.5868 -0.5401 -0.9335
  191DOPC   H9X23631   6.553   7.861  13.727 -0.7049 -0.1832 -0.6781
  191DOPC  C31023632   6.497   7.829  13.923 -0.8607  0.3224 -0.6273
  191DOPC  H10X23633   6.408   7.891  13.906  0.0313  1.0171 -3.2128
  191DOPC  C31123634   6.499   7.756  14.054  0.0416 -0.4050 -0.1221
  191DOPC  H11X23635   6.581   7.681  14.062 -0.4126 -0.9480 -0.5071
  191DOPC  H11Y23636   6.403   7.704  14.070  0.2615 -0.7576  0.0667
  191DOPC  C31223637   6.514   7.849  14.170 -0.7731 -0.6409  0.6189
  191DOPC  H12X23638   6.484   7.789  14.259  0.9985 -1.1447  0.9089
  191DOPC  H12Y23639   6.452   7.941  14.161 -0.6441 -0.5196  0.9595
  191DOPC  C31323640   6.655   7.906  14.208 -0.2964 -0.9536 -0.1288
  191DOPC  H13X23641   6.730   7.828  14.232 -1.1348 -0.8371  3.3596
  191DOPC  H13Y23642   6.692   7.956  14.116  1.2447 -3.4160 -0.9513
  191DOPC  C31423643   6.655   7.994  14.339 -0.0207 -0.5273  0.4427
  191DOPC  H14X23644   6.736   8.070  14.343  2.2653 -2.6088 -2.3282
  191DOPC  H14Y23645   6.562   8.056  14.335  1.3550  1.6170 -0.1887
  191DOPC  C31523646   6.651   7.905  14.467  0.1906  0.2108 -0.6081
  191DOPC  H15X23647   6.747   7.849  14.461  0.7468  1.2102 -1.4851
  191DOPC  H15Y23648   6.564   7.836  14.472  0.0316  0.4950  1.7248
  191DOPC  C31623649   6.640   7.980  14.595  0.2885  0.3896 -0.3307
  191DOPC  H16X23650   6.532   8.010  14.594 -0.6299 -2.6256 -0.9428
  191DOPC  H16Y23651   6.647   7.911  14.682  1.2131  0.4326 -0.3642
  191DOPC  C31723652   6.734   8.103  14.618  0.2590  1.9076  0.4842
  191DOPC  H17X23653   6.843   8.082  14.611 -0.1849 -0.4720 -0.5223
  191DOPC  H17Y23654   6.717   8.172  14.533 -0.8122 -0.8455 -1.7157
  191DOPC  C31823655   6.714   8.184  14.747 -0.0134  1.1585  0.2919
  191DOPC  H18X23656   6.614   8.226  14.767 -0.8840 -0.7750  0.2506
  191DOPC  H18Y23657   6.736   8.121  14.836 -1.3665  1.7417  1.0636
  191DOPC  H18Z23658   6.788   8.266  14.757  2.6300 -0.9137 -0.8682
  192DOPC     N23659   1.386   3.732  12.301 -0.3827 -0.0157 -0.1464
  192DOPC   C1223660   1.438   3.607  12.224  0.4776  0.2887  0.3324
  192DOPC  H12A23661   1.497   3.635  12.138  1.4018 -0.8876  0.5638
  192DOPC  H12B23662   1.352   3.553  12.186  0.8939 -0.4464  0.4134
  192DOPC   C1323663   1.316   3.695  12.429  0.2376  0.2671  0.5920
  192DOPC  H13A23664   1.231   3.632  12.407  0.0004 -0.1671  2.5619
  192DOPC  H13B23665   1.383   3.637  12.490 -0.7723 -0.5060  0.9918
  192DOPC  H13C23666   1.274   3.779  12.482  0.4349 -1.7353  4.2470
  192DOPC   C1423667   1.295   3.808  12.208 -0.1877  0.6275 -0.0066
  192DOPC  H14A23668   1.345   3.846  12.121 -0.6465 -0.2671 -0.6841
  192DOPC  H14B23669   1.217   3.744  12.168  1.3296 -0.0550 -2.0298
  192DOPC  H14C23670   1.254   3.898  12.252  0.6442  1.3487 -0.6901
  192DOPC   C1523671   1.500   3.821  12.333 -0.2413 -0.7440  0.0801
  192DOPC  H15A23672   1.467   3.908  12.387  1.8479  1.5569 -2.0539
  192DOPC  H15B23673   1.556   3.857  12.247 -1.4826 -1.7716 -1.2099
  192DOPC  H15C23674   1.571   3.770  12.397  0.2158 -2.2609 -1.5464
  192DOPC   C1123675   1.509   3.499  12.309  0.3698 -0.0277  0.6476
  192DOPC  H11A23676   1.605   3.546  12.341  2.5944 -2.5360 -1.7233
  192DOPC  H11B23677   1.461   3.462  12.402 -1.6899  2.3180  0.6123
  192DOPC     P23678   1.445   3.282  12.188 -0.0326 -0.0424  0.2716
  192DOPC   O1323679   1.511   3.173  12.117 -0.2223 -0.2097  0.6032
  192DOPC   O1423680   1.331   3.347  12.125  0.4805  0.5039  0.3192
  192DOPC   O1223681   1.551   3.389  12.231 -0.2438  0.4034 -0.2270
  192DOPC   O1123682   1.406   3.236  12.334 -0.3801  0.2258  0.1274
  192DOPC    C123683   1.267   3.221  12.359 -0.0361  0.6257 -0.7796
  192DOPC    HA23684   1.216   3.152  12.288  1.5077 -0.8449 -0.5348
  192DOPC    HB23685   1.217   3.320  12.351  0.9729  1.1922 -0.2066
  192DOPC    C223686   1.236   3.169  12.503 -0.2605  0.4415 -0.3325
  192DOPC    HS23687   1.126   3.165  12.509 -0.4576  3.5138 -0.0384
  192DOPC   O2123688   1.288   3.253  12.604 -0.1944  0.2576 -0.2221
  192DOPC   C2123689   1.223   3.361  12.632 -0.5824 -0.4189 -0.1036
  192DOPC   O2223690   1.126   3.409  12.574  0.1211 -0.6769  0.4295
  192DOPC   C2223691   1.306   3.432  12.749  0.5262 -0.2490 -0.7205
  192DOPC   H2R23692   1.375   3.506  12.704  1.5332 -0.2212  0.7940
  192DOPC   H2S23693   1.362   3.349  12.796 -0.9257 -0.9696 -0.1804
  192DOPC    C323694   1.276   3.018  12.524  0.1179 -0.8543  0.0507
  192DOPC    HX23695   1.379   3.011  12.484  0.1360 -1.6518  0.2340
  192DOPC    HY23696   1.211   2.952  12.463 -1.2840  2.1068 -1.9207
  192DOPC   O3123697   1.261   2.977  12.666  0.5028  0.2567 -0.4070
  192DOPC   C3123698   1.369   3.000  12.739 -0.2852 -0.2801  0.3790
  192DOPC   O3223699   1.467   3.063  12.702  0.4007 -0.5623 -0.2400
  192DOPC   C3223700   1.347   2.936  12.873  0.1382  0.3826 -1.2582
  192DOPC   H2X23701   1.319   3.021  12.938  0.1093 -0.1206 -0.6055
  192DOPC   H2Y23702   1.272   2.855  12.862  0.7658 -0.4553  0.2457
  192DOPC   C2323703   1.216   3.496  12.858 -0.4616 -0.9229  0.8811
  192DOPC   H3R23704   1.146   3.563  12.802  3.6455  2.3429 -0.9013
  192DOPC   H3S23705   1.266   3.569  12.926 -1.4105  0.0015  0.6161
  192DOPC   C2423706   1.134   3.398  12.937  0.2292  0.6373  0.2984
  192DOPC   H4R23707   1.081   3.318  12.881 -0.6326 -0.1059  2.0785
  192DOPC   H4S23708   1.060   3.461  12.992 -0.3353  0.0738  0.1986
  192DOPC   C2523709   1.210   3.319  13.044 -0.1785 -0.3882  0.4401
  192DOPC   H5R23710   1.240   3.387  13.126  1.5263 -0.3094 -0.2037
  192DOPC   H5S23711   1.299   3.267  13.002 -0.7899 -0.3447 -0.9705
  192DOPC   C2623712   1.117   3.217  13.121  0.7488 -0.1927  0.0948
  192DOPC   H6R23713   1.060   3.157  13.047  1.0401  0.4203 -0.6426
  192DOPC   H6S23714   1.036   3.280  13.164 -0.3124 -1.7451  0.4301
  192DOPC   C2723715   1.190   3.135  13.228 -0.6053  0.9332 -0.3745
  192DOPC   H7R23716   1.299   3.156  13.236  0.1092 -0.3709 -4.2579
  192DOPC   H7S23717   1.186   3.028  13.199  1.9862  0.7933 -0.4734
  192DOPC   C2823718   1.129   3.148  13.366 -0.1654 -0.1163 -0.4097
  192DOPC   H8R23719   1.165   3.071  13.437  1.5469 -0.8055 -1.9422
  192DOPC   H8S23720   1.020   3.134  13.349 -0.2224  1.2847 -1.4148
  192DOPC   C2923721   1.151   3.286  13.433 -0.1044  0.2670  0.4539
  192DOPC   H9R23722   1.202   3.363  13.373 -1.0103  0.1104 -0.5420
  192DOPC  C21023723   1.110   3.321  13.558  0.4909  1.2632  0.3617
  192DOPC  H10R23724   1.140   3.420  13.597  1.5383  0.8035  0.7652
  192DOPC  C21123725   1.031   3.231  13.651  0.1932 -0.0666  0.4610
  192DOPC  H11R23726   1.065   3.237  13.757  2.0055  0.0752 -0.0909
  192DOPC  H11S23727   1.054   3.127  13.619  0.9639  0.2598 -0.0733
  192DOPC  C21223728   0.878   3.245  13.645 -0.4988 -0.0226  0.8465
  192DOPC  H12R23729   0.842   3.216  13.544 -0.0294 -1.1357  0.9918
  192DOPC  H12S23730   0.847   3.351  13.663  1.9147  0.3960  3.2224
  192DOPC  C21323731   0.819   3.145  13.747  0.1532 -0.0811  0.0020
  192DOPC  H13R23732   0.855   3.040  13.735  0.0795 -0.2292  1.0216
  192DOPC  H13S23733   0.711   3.137  13.720  0.6239 -1.9108 -1.6146
  192DOPC  C21423734   0.830   3.173  13.900 -0.1173 -0.2149 -0.0868
  192DOPC  H14R23735   0.776   3.269  13.915  0.2897 -0.0335  0.2541
  192DOPC  H14S23736   0.938   3.193  13.920 -0.4814 -0.0882  2.0988
  192DOPC  C21523737   0.786   3.066  14.004 -0.2776  0.6467 -0.5322
  192DOPC  H15R23738   0.873   2.998  14.016 -0.0830  0.9717 -0.0550
  192DOPC  H15S23739   0.698   3.007  13.970 -1.7337  2.8301 -0.7575
  192DOPC  C21623740   0.751   3.125  14.142  1.0386 -0.2738  0.3311
  192DOPC  H16R23741   0.693   3.219  14.130  0.2121 -0.8893 -0.6892
  192DOPC  H16S23742   0.842   3.177  14.177  1.3137  0.6141 -1.5905
  192DOPC  C21723743   0.698   3.017  14.245  0.3373 -0.2389  0.0974
  192DOPC  H17R23744   0.589   3.003  14.225 -0.1707 -1.9443  3.3757
  192DOPC  H17S23745   0.688   3.066  14.344  0.2112  1.2743 -0.6317
  192DOPC  C21823746   0.776   2.889  14.242 -0.0428  0.0153  0.4894
  192DOPC  H18R23747   0.880   2.916  14.268 -0.6865  1.7517  1.4469
  192DOPC  H18S23748   0.759   2.846  14.140 -2.4132  1.5114  0.1683
  192DOPC  H18T23749   0.731   2.813  14.310 -2.1619  0.6737 -0.0832
  192DOPC   C3323750   1.480   2.886  12.928  0.3979 -0.0811  0.0639
  192DOPC   H3X23751   1.549   2.974  12.930 -0.9580  1.0396 -0.7527
  192DOPC   H3Y23752   1.523   2.821  12.850  0.7103 -0.1340  0.2767
  192DOPC   C3423753   1.450   2.814  13.059  0.7245 -0.5055 -0.2407
  192DOPC   H4X23754   1.394   2.719  13.050 -0.2691 -0.0238  0.5172
  192DOPC   H4Y23755   1.380   2.877  13.118  1.2684  1.5964 -1.7176
  192DOPC   C3523756   1.567   2.778  13.153 -0.4009 -0.0782 -0.4774
  192DOPC   H5X23757   1.638   2.859  13.179  1.1868 -1.8367  1.0493
  192DOPC   H5Y23758   1.624   2.699  13.099 -0.6316  1.5544 -3.2390
  192DOPC   C3623759   1.514   2.724  13.284 -0.0968  0.3981 -0.7733
  192DOPC   H6X23760   1.429   2.655  13.268 -0.1408 -0.4848  2.4839
  192DOPC   H6Y23761   1.595   2.677  13.345  0.5729  1.2495 -0.9794
  192DOPC   C3723762   1.463   2.828  13.374 -0.5117  0.3624 -0.4815
  192DOPC   H7X23763   1.529   2.916  13.366  0.7415 -0.5888 -0.8645
  192DOPC   H7Y23764   1.364   2.856  13.332  0.0327  0.0829 -2.0197
  192DOPC   C3823765   1.445   2.789  13.518 -0.6463  0.7724 -0.6300
  192DOPC   H8X23766   1.541   2.743  13.550 -1.3306  0.0400  0.4458
  192DOPC   H8Y23767   1.376   2.703  13.517  1.5339 -1.1246  1.2090
  192DOPC   C3923768   1.401   2.901  13.603  0.2592 -0.2689 -0.1472
  192DOPC   H9X23769   1.473   2.984  13.592  1.3107 -1.2678 -1.1261
  192DOPC  C31023770   1.279   2.925  13.661  0.0769 -0.8092 -0.5644
  192DOPC  H10X23771   1.240   3.021  13.699 -2.4342 -1.5164 -1.1597
  192DOPC  C31123772   1.167   2.827  13.666 -0.2662  0.9662 -0.1475
  192DOPC  H11X23773   1.195   2.730  13.622  0.6630  1.1924 -0.0796
  192DOPC  H11Y23774   1.079   2.869  13.612 -0.9834 -0.4505 -0.1109
  192DOPC  C31223775   1.123   2.784  13.803  0.0892  0.5245 -0.0303
  192DOPC  H12X23776   1.090   2.868  13.867  0.4125  0.2129  0.5524
  192DOPC  H12Y23777   1.213   2.735  13.846 -0.5745 -0.7050  0.0184
  192DOPC  C31323778   1.004   2.686  13.803 -0.8012  0.9319  0.4127
  192DOPC  H13X23779   0.902   2.718  13.772 -1.2078 -0.2764  0.4232
  192DOPC  H13Y23780   1.041   2.612  13.729 -0.5571  1.3191  0.1459
  192DOPC  C31423781   0.988   2.624  13.943  0.3544 -0.1440 -0.0375
  192DOPC  H14X23782   1.083   2.572  13.966  0.4218 -0.2504 -0.5490
  192DOPC  H14Y23783   0.973   2.715  14.006 -2.3097 -0.1498 -0.5428
  192DOPC  C31523784   0.859   2.538  13.962 -0.2754 -0.0882 -0.0434
  192DOPC  H15X23785   0.880   2.443  13.907 -0.6292 -0.4458  0.4273
  192DOPC  H15Y23786   0.768   2.592  13.927  0.0271 -0.8203 -2.1413
  192DOPC  C31623787   0.848   2.492  14.111 -0.1746  0.1137 -0.3158
  192DOPC  H16X23788   0.950   2.463  14.145  0.2679  0.6457 -1.1795
  192DOPC  H16Y23789   0.820   2.579  14.174 -0.9823  1.1247 -2.0255
  192DOPC  C31723790   0.733   2.381  14.119 -0.0447 -0.5639 -0.4946
  192DOPC  H17X23791   0.643   2.436  14.082  0.5098  0.0469 -0.9585
  192DOPC  H17Y23792   0.765   2.290  14.064  1.4755 -1.1551  1.2598
  192DOPC  C31823793   0.704   2.338  14.265  0.2006  0.3595 -0.0251
  192DOPC  H18X23794   0.700   2.429  14.328  1.6814 -0.1178  0.7966
  192DOPC  H18Y23795   0.606   2.285  14.271 -0.6332  1.8600  0.0788
  192DOPC  H18Z23796   0.785   2.278  14.310 -0.8788 -0.8157  0.3937
  193DOPC     N23797   1.304   2.016  12.010 -0.2846 -0.1290 -0.2923
  193DOPC   C1223798   1.320   1.947  12.145 -0.3275  0.1641  0.2673
  193DOPC  H12A23799   1.382   1.860  12.130  1.7839  1.7060 -0.4637
  193DOPC  H12B23800   1.223   1.915  12.179 -1.7116  2.2487 -1.4400
  193DOPC   C1323801   1.433   2.064  11.964 -0.0709 -0.7419  0.3542
  193DOPC  H13A23802   1.411   2.127  11.879 -1.6447 -2.8226 -0.8796
  193DOPC  H13B23803   1.488   2.110  12.045  1.6955 -1.6176 -0.3062
  193DOPC  H13C23804   1.503   1.985  11.941  0.6885 -0.3449  1.2189
  193DOPC   C1423805   1.212   2.134  12.017  0.3656 -0.3804  0.2633
  193DOPC  H14A23806   1.188   2.161  11.916  0.7829 -1.8026 -0.2380
  193DOPC  H14B23807   1.123   2.101  12.069  1.5865  0.6071  3.1635
  193DOPC  H14C23808   1.268   2.218  12.056  1.2755 -0.6935 -0.3377
  193DOPC   C1523809   1.246   1.924  11.917 -0.1061  0.4736  0.1174
  193DOPC  H15A23810   1.141   1.902  11.929  0.0679 -0.8040 -0.5497
  193DOPC  H15B23811   1.286   1.825  11.930 -0.5539  0.3363  0.4842
  193DOPC  H15C23812   1.268   1.942  11.813  1.0826  2.0396  0.5937
  193DOPC   C1123813   1.389   2.018  12.263 -0.1467  0.1544  0.1614
  193DOPC  H11A23814   1.335   2.115  12.272  0.5888  0.6167 -0.3900
  193DOPC  H11B23815   1.385   1.964  12.360 -1.4391  1.2130  0.7334
  193DOPC     P23816   1.601   2.163  12.315  0.0920 -0.2654  0.1639
  193DOPC   O1323817   1.590   2.292  12.246  0.1971  0.5913 -0.3313
  193DOPC   O1423818   1.739   2.120  12.353  0.4071  0.3901 -0.1100
  193DOPC   O1223819   1.529   2.042  12.238 -0.1903  0.4801  0.0254
  193DOPC   O1123820   1.520   2.165  12.447 -0.0146 -0.2545  0.2379
  193DOPC    C123821   1.551   2.266  12.538  0.0453 -0.8412 -0.3577
  193DOPC    HA23822   1.547   2.361  12.481 -0.9728  0.0073  1.0362
  193DOPC    HB23823   1.647   2.251  12.592 -0.5460  0.9715  1.3270
  193DOPC    C223824   1.437   2.279  12.652  0.5505  0.4366 -0.0525
  193DOPC    HS23825   1.432   2.380  12.698 -0.5246  0.1496  0.5005
  193DOPC   O2123826   1.460   2.186  12.758 -0.0148  0.2202  0.8362
  193DOPC   C2123827   1.544   2.215  12.850  0.7127 -0.5730  0.1261
  193DOPC   O2223828   1.603   2.319  12.862  0.2753  0.0968 -0.0181
  193DOPC   C2223829   1.550   2.096  12.952 -0.2273  0.2032  0.8097
  193DOPC   H2R23830   1.645   2.046  12.923 -1.5752 -0.4558 -3.0130
  193DOPC   H2S23831   1.464   2.029  12.930  0.4728 -0.4569  0.0363
  193DOPC    C323832   1.302   2.238  12.592 -0.1860  0.4192  0.3013
  193DOPC    HX23833   1.304   2.131  12.565  0.0366  1.3385 -3.9955
  193DOPC    HY23834   1.304   2.284  12.491  2.7999 -0.8214 -0.3365
  193DOPC   O3123835   1.189   2.275  12.681  0.4088 -0.0543  0.0670
  193DOPC   C3123836   1.148   2.397  12.666  0.3946  0.1861 -0.2413
  193DOPC   O3223837   1.199   2.486  12.602  0.0252 -0.1249 -0.0588
  193DOPC   C3223838   1.022   2.417  12.746 -0.0899 -0.0495 -0.0399
  193DOPC   H2X23839   0.941   2.418  12.670  1.3511  2.4582 -1.6780
  193DOPC   H2Y23840   0.996   2.326  12.805 -0.5476  0.6055  0.7854
  193DOPC   C2323841   1.530   2.147  13.094  0.1997  0.0817 -0.6624
  193DOPC   H3R23842   1.433   2.202  13.095 -0.7287 -1.4713 -0.0963
  193DOPC   H3S23843   1.604   2.228  13.111 -0.6085  0.6424  0.3519
  193DOPC   C2423844   1.530   2.023  13.195  0.1865 -0.9072 -0.5755
  193DOPC   H4R23845   1.626   1.967  13.190  0.0860 -1.3168  1.2622
  193DOPC   H4S23846   1.447   1.954  13.168 -0.0336 -2.1815  2.7954
  193DOPC   C2523847   1.498   2.078  13.342 -0.4205 -0.2026 -0.9262
  193DOPC   H5R23848   1.413   2.149  13.335 -0.2276  0.0292 -0.9252
  193DOPC   H5S23849   1.583   2.144  13.373  0.1037 -1.7385  1.0813
  193DOPC   C2623850   1.472   1.964  13.437 -0.3773  0.0296 -0.0621
  193DOPC   H6R23851   1.366   1.930  13.433 -0.1904 -0.8195  1.4976
  193DOPC   H6S23852   1.482   2.003  13.540  0.8958 -4.1101  1.5877
  193DOPC   C2723853   1.565   1.843  13.409  0.2521 -0.1182 -0.0677
  193DOPC   H7R23854   1.670   1.877  13.398  0.2458  0.1624  0.6550
  193DOPC   H7S23855   1.523   1.797  13.317 -0.5292  0.6697 -0.1182
  193DOPC   C2823856   1.572   1.740  13.522  0.2407  0.5295  0.7729
  193DOPC   H8R23857   1.624   1.653  13.475  0.5045  1.9135 -1.6509
  193DOPC   H8S23858   1.465   1.713  13.538  0.1339 -0.8483 -1.6987
  193DOPC   C2923859   1.643   1.789  13.647  0.6361 -0.3815  0.2429
  193DOPC   H9R23860   1.752   1.797  13.633  0.5320 -1.2140 -1.1989
  193DOPC  C21023861   1.584   1.819  13.763  0.2777 -0.6143  0.1033
  193DOPC  H10R23862   1.642   1.853  13.850 -0.0420  1.7535 -0.5603
  193DOPC  C21123863   1.439   1.810  13.790  0.0860 -0.2178 -0.7794
  193DOPC  H11R23864   1.384   1.802  13.694 -0.9750 -0.8586 -0.1442
  193DOPC  H11S23865   1.412   1.901  13.848  3.9700  1.2170 -0.9682
  193DOPC  C21223866   1.398   1.692  13.879 -0.3844  0.0969 -0.1382
  193DOPC  H12R23867   1.422   1.595  13.829  3.3987  1.1564 -0.7008
  193DOPC  H12S23868   1.287   1.696  13.877 -0.4961 -1.9056 -0.1803
  193DOPC  C21323869   1.455   1.692  14.026  0.2469 -0.2722 -0.6708
  193DOPC  H13R23870   1.452   1.797  14.063  1.2368 -0.5507  0.2842
  193DOPC  H13S23871   1.562   1.663  14.017  0.4920  0.9842 -2.3149
  193DOPC  C21423872   1.367   1.605  14.110  0.3880  0.0080 -0.1816
  193DOPC  H14R23873   1.363   1.501  14.069  2.8018  0.2257 -1.0897
  193DOPC  H14S23874   1.262   1.642  14.108 -0.4828 -2.3203 -0.7724
  193DOPC  C21523875   1.400   1.597  14.257  0.8081 -0.2786  0.4829
  193DOPC  H15R23876   1.405   1.696  14.307 -0.2369  0.3329 -0.5736
  193DOPC  H15S23877   1.493   1.536  14.260  0.5630 -0.6341  3.3019
  193DOPC  C21623878   1.293   1.517  14.336  0.3667  0.6188  0.5440
  193DOPC  H16R23879   1.283   1.415  14.293 -0.6959  1.3856 -1.1355
  193DOPC  H16S23880   1.193   1.562  14.315  1.2873  2.3628 -0.3789
  193DOPC  C21723881   1.324   1.491  14.479 -0.1866 -0.1463  0.2409
  193DOPC  H17R23882   1.364   1.576  14.539 -0.3237  0.2709 -0.2516
  193DOPC  H17S23883   1.403   1.412  14.482  0.5890  0.5900 -0.3412
  193DOPC  C21823884   1.208   1.429  14.552 -0.3766  0.2648 -0.1926
  193DOPC  H18R23885   1.140   1.508  14.591 -0.2425  0.2348  0.1050
  193DOPC  H18S23886   1.238   1.380  14.648 -0.6451  1.3242  0.4500
  193DOPC  H18T23887   1.162   1.348  14.491 -0.6132  0.2668 -0.0169
  193DOPC   C3323888   1.029   2.546  12.823  0.0059  0.2983 -0.1384
  193DOPC   H3X23889   0.934   2.560  12.879  1.5772  1.8232  2.3762
  193DOPC   H3Y23890   1.036   2.629  12.751  0.0373 -1.3579 -2.1410
  193DOPC   C3423891   1.125   2.540  12.939  0.2306 -0.1528  0.3455
  193DOPC   H4X23892   1.099   2.625  13.005  2.2597 -0.4870  1.6925
  193DOPC   H4Y23893   1.225   2.559  12.895  0.5604 -2.0550  0.1812
  193DOPC   C3523894   1.118   2.415  13.029 -0.4461 -0.0266 -0.3618
  193DOPC   H5X23895   1.172   2.326  12.991 -0.3610 -0.1809  0.1156
  193DOPC   H5Y23896   1.013   2.386  13.055 -0.0831 -0.1455  1.0482
  193DOPC   C3623897   1.169   2.443  13.171 -0.1024 -0.6219 -0.4032
  193DOPC   H6X23898   1.277   2.469  13.175 -0.4828  1.2128  4.3929
  193DOPC   H6Y23899   1.116   2.534  13.207  1.3069 -0.1414  0.5393
  193DOPC   C3723900   1.155   2.341  13.289  0.0359  0.3448  0.6602
  193DOPC   H7X23901   1.053   2.297  13.292 -0.2649  0.9616 -0.2715
  193DOPC   H7Y23902   1.224   2.256  13.267 -0.6711  0.2437 -1.3449
  193DOPC   C3823903   1.191   2.404  13.428 -0.1542  0.0420  0.8374
  193DOPC   H8X23904   1.170   2.513  13.434  2.9113  0.9637 -2.1525
  193DOPC   H8Y23905   1.300   2.420  13.420 -0.1622 -0.6610 -3.5209
  193DOPC   C3923906   1.145   2.320  13.545  0.4070 -0.4605  0.4772
  193DOPC   H9X23907   1.222   2.258  13.594  0.9739  0.2687  0.5319
  193DOPC  C31023908   1.016   2.316  13.583  0.7350  0.1215  0.0285
  193DOPC  H10X23909   0.993   2.256  13.672  2.1744  1.8340  1.6103
  193DOPC  C31123910   0.901   2.386  13.512  0.1538  0.2320 -0.5752
  193DOPC  H11X23911   0.935   2.461  13.437 -1.7141 -1.0433 -2.8378
  193DOPC  H11Y23912   0.845   2.447  13.586 -2.1224  0.6976 -2.5749
  193DOPC  C31223913   0.792   2.283  13.455 -0.5679 -0.8516  0.0202
  193DOPC  H12X23914   0.747   2.233  13.543 -2.3268  0.6239  0.0202
  193DOPC  H12Y23915   0.833   2.207  13.385 -1.8467 -2.9709  1.4557
  193DOPC  C31323916   0.678   2.352  13.376 -0.2226  0.3194 -0.7337
  193DOPC  H13X23917   0.586   2.291  13.382 -0.3557  0.4659 -1.2134
  193DOPC  H13Y23918   0.661   2.451  13.422  1.8406  0.6258 -0.5291
  193DOPC  C31423919   0.723   2.360  13.224  0.2068  0.0012 -0.4550
  193DOPC  H14X23920   0.824   2.406  13.221  0.1650  0.2024  0.8550
  193DOPC  H14Y23921   0.738   2.253  13.200  0.3912 -0.4130  1.3885
  193DOPC  C31523922   0.623   2.437  13.142 -0.3282 -0.3098 -0.4163
  193DOPC  H15X23923   0.617   2.542  13.180  1.4392  0.5524 -2.3434
  193DOPC  H15Y23924   0.521   2.396  13.157 -0.3791  0.5070  2.0515
  193DOPC  C31623925   0.655   2.448  12.994  0.2600 -0.3186  0.2024
  193DOPC  H16X23926   0.758   2.483  12.972  0.5093 -0.0455  1.7155
  193DOPC  H16Y23927   0.650   2.341  12.965  0.4475 -0.8463  2.0061
  193DOPC  C31723928   0.538   2.516  12.921 -0.0389 -0.4052  0.5380
  193DOPC  H17X23929   0.445   2.465  12.954  0.2441 -0.3549  1.4178
  193DOPC  H17Y23930   0.525   2.619  12.960 -0.4021 -0.8114  1.5271
  193DOPC  C31823931   0.552   2.496  12.770 -0.3703  0.1819 -0.5590
  193DOPC  H18X23932   0.491   2.575  12.722 -4.2812 -0.4263  2.8725
  193DOPC  H18Y23933   0.654   2.519  12.731  0.3672  0.4289  1.3785
  193DOPC  H18Z23934   0.520   2.399  12.728  0.5919  0.0555 -1.0396
  194DOPC     N23935   1.363   6.816  12.047  0.4502  0.3293 -0.1370
  194DOPC   C1223936   1.275   6.816  12.167  0.1305 -0.1031  0.7073
  194DOPC  H12A23937   1.310   6.880  12.248  1.3658 -0.4618  0.4804
  194DOPC  H12B23938   1.261   6.715  12.201  0.8743  0.1341  1.8034
  194DOPC   C1323939   1.318   6.725  11.932  0.6570  0.1219 -0.6584
  194DOPC  H13A23940   1.292   6.631  11.977  1.0307  0.0682 -0.5491
  194DOPC  H13B23941   1.226   6.755  11.884 -1.1373 -1.2090  1.7654
  194DOPC  H13C23942   1.389   6.722  11.851  1.3731  0.8516 -0.0777
  194DOPC   C1423943   1.497   6.776  12.092 -1.1107  0.1834 -0.6633
  194DOPC  H14A23944   1.568   6.765  12.012 -1.5961  0.3375 -1.1210
  194DOPC  H14B23945   1.534   6.847  12.164  0.0991 -0.2411 -0.8415
  194DOPC  H14C23946   1.492   6.687  12.154  2.0258  0.5794  0.3469
  194DOPC   C1523947   1.389   6.945  11.986 -0.4205  0.6995 -0.3089
  194DOPC  H15A23948   1.440   6.919  11.895  1.4567 -0.4188  0.9903
  194DOPC  H15B23949   1.451   7.010  12.047  1.3363 -0.5556 -0.6705
  194DOPC  H15C23950   1.297   7.001  11.976 -0.4694  0.5376 -0.7817
  194DOPC   C1123951   1.135   6.879  12.139 -0.2503 -0.6836 -0.2732
  194DOPC  H11A23952   1.094   6.816  12.057 -2.7627  3.0775 -2.2173
  194DOPC  H11B23953   1.069   6.863  12.226 -1.1718  0.4783 -0.7366
  194DOPC     P23954   1.132   7.135  12.199  0.1568  0.3547 -0.1029
  194DOPC   O1323955   1.031   7.232  12.150  0.0086 -0.1561 -0.1085
  194DOPC   O1423956   1.268   7.186  12.227  0.1019  0.0097  0.3550
  194DOPC   O1223957   1.150   7.016  12.104 -0.2423  0.1501  0.2804
  194DOPC   O1123958   1.088   7.061  12.327  1.0659  0.4796 -1.0151
  194DOPC    C123959   0.978   7.116  12.401  0.5095 -0.3557 -0.3081
  194DOPC    HA23960   0.914   7.032  12.435  0.0019 -0.4046 -1.3418
  194DOPC    HB23961   0.905   7.173  12.339  0.5649  0.1887  0.1191
  194DOPC    C223962   1.024   7.201  12.528 -0.6243  0.0474  0.1938
  194DOPC    HS23963   1.081   7.289  12.490 -0.1952  0.5503  1.9158
  194DOPC   O2123964   1.108   7.105  12.604 -0.0887 -0.1673  0.1316
  194DOPC   C2123965   1.190   7.170  12.677 -0.0954  0.0621 -0.3878
  194DOPC   O2223966   1.211   7.288  12.680  0.4042  0.3280 -0.0024
  194DOPC   C2223967   1.263   7.073  12.750 -0.4659  0.9452 -0.5448
  194DOPC   H2R23968   1.351   7.046  12.688  0.2822  0.5860  0.6415
  194DOPC   H2S23969   1.202   6.986  12.782 -1.7009  1.9936  0.0783
  194DOPC    C323970   0.908   7.259  12.615 -0.3563  0.3201  0.5840
  194DOPC    HX23971   0.848   7.172  12.649 -2.0053  1.9999  2.2049
  194DOPC    HY23972   0.835   7.320  12.558  0.3549 -0.2618 -0.9990
  194DOPC   O3123973   0.947   7.319  12.739 -0.2352 -0.1148 -0.5347
  194DOPC   C3123974   0.968   7.439  12.745  0.1721 -0.6017 -0.0277
  194DOPC   O3223975   0.971   7.514  12.648 -0.0155  0.0296  0.3709
  194DOPC   C3223976   0.996   7.471  12.888  0.7188  0.6302 -0.2560
  194DOPC   H2X23977   0.923   7.427  12.959  1.4106 -1.2365 -0.6249
  194DOPC   H2Y23978   1.095   7.427  12.910 -1.3746 -3.1552  2.9302
  194DOPC   C2323979   1.331   7.125  12.877  0.1106 -1.1485  0.2249
  194DOPC   H3R23980   1.388   7.218  12.860 -0.7027 -0.5612  0.6693
  194DOPC   H3S23981   1.409   7.056  12.916  0.1483 -1.5294 -0.4955
  194DOPC   C2423982   1.240   7.156  12.991  0.1490 -0.5318 -0.2628
  194DOPC   H4R23983   1.164   7.077  13.005  0.3040 -0.7838 -0.8224
  194DOPC   H4S23984   1.193   7.255  12.971  3.9322  1.2118 -1.6542
  194DOPC   C2523985   1.313   7.186  13.122 -0.2664 -0.2602 -0.0076
  194DOPC   H5R23986   1.382   7.270  13.099  1.9540 -1.3819  2.1700
  194DOPC   H5S23987   1.373   7.104  13.166 -0.5347  0.3478  1.5839
  194DOPC   C2623988   1.220   7.232  13.237 -0.1738 -0.0850 -0.2682
  194DOPC   H6R23989   1.134   7.166  13.265 -0.6743  1.3681  1.8278
  194DOPC   H6S23990   1.185   7.331  13.202  2.4011  1.7975  2.0763
  194DOPC   C2723991   1.301   7.255  13.370  0.0801 -0.1569  0.2901
  194DOPC   H7R23992   1.405   7.227  13.343 -0.3664 -0.6546 -1.0138
  194DOPC   H7S23993   1.262   7.189  13.450  0.3867 -1.7314 -0.7974
  194DOPC   C2823994   1.293   7.397  13.425 -0.3606 -0.0685  0.7269
  194DOPC   H8R23995   1.197   7.453  13.432  0.7865  2.0508  0.4345
  194DOPC   H8S23996   1.341   7.456  13.344 -1.4481 -0.4971 -0.2484
  194DOPC   C2923997   1.360   7.414  13.561 -0.0304  0.2495  0.2630
  194DOPC   H9R23998   1.470   7.416  13.546 -0.2579  0.3400 -1.7888
  194DOPC  C21023999   1.309   7.388  13.677 -0.6092 -0.5749  0.2192
  194DOPC  H10R24000   1.375   7.411  13.762 -0.4094  0.8817 -0.2995
  194DOPC  C21124001   1.173   7.337  13.713  0.1775 -0.3784 -0.3885
  194DOPC  H11R24002   1.183   7.259  13.791 -0.0427 -0.2540 -0.2370
  194DOPC  H11S24003   1.115   7.289  13.632 -0.2608  2.7369 -2.1005
  194DOPC  C21224004   1.096   7.456  13.779  0.7488  0.5226  0.3940
  194DOPC  H12R24005   1.077   7.544  13.714 -1.2199  1.2070  1.8314
  194DOPC  H12S24006   1.156   7.491  13.865  1.4458  1.2792 -0.3788
  194DOPC  C21324007   0.970   7.402  13.848 -0.3501 -0.4153 -0.5973
  194DOPC  H13R24008   0.996   7.316  13.914 -3.1855  0.2770  1.6219
  194DOPC  H13S24009   0.902   7.366  13.768 -1.0352 -0.9955  0.2270
  194DOPC  C21424010   0.911   7.513  13.934 -0.1950  0.0519  0.0133
  194DOPC  H14R24011   0.884   7.597  13.867  1.6678 -1.8671 -3.4467
  194DOPC  H14S24012   0.992   7.532  14.007 -1.3274  0.7028  1.1358
  194DOPC  C21524013   0.790   7.460  14.013  0.0542  0.6985  0.1878
  194DOPC  H15R24014   0.812   7.354  14.038  0.4496  0.7355 -0.0097
  194DOPC  H15S24015   0.709   7.457  13.937  1.1154  1.8026 -1.0171
  194DOPC  C21624016   0.758   7.547  14.136 -0.5879 -0.6029 -0.9036
  194DOPC  H16R24017   0.848   7.558  14.199 -1.7301  0.8480  0.5632
  194DOPC  H16S24018   0.684   7.482  14.186 -0.7667  0.0724 -0.2848
  194DOPC  C21724019   0.697   7.680  14.096 -0.0823  0.4573  0.0146
  194DOPC  H17R24020   0.613   7.661  14.026  0.2306  0.2882 -0.3213
  194DOPC  H17S24021   0.768   7.732  14.028  0.8008 -1.0792 -0.2756
  194DOPC  C21824022   0.662   7.777  14.206 -0.3725 -0.2652 -0.0310
  194DOPC  H18R24023   0.617   7.727  14.294 -2.5975  0.9014 -0.4268
  194DOPC  H18S24024   0.590   7.857  14.177 -0.1866  0.1376  0.6039
  194DOPC  H18T24025   0.753   7.832  14.240 -0.7073  1.3067 -1.5367
  194DOPC   C3324026   0.989   7.622  12.907 -0.3140 -0.3403  0.4252
  194DOPC   H3X24027   0.888   7.663  12.886 -0.0761 -1.2114 -3.0604
  194DOPC   H3Y24028   1.044   7.676  12.826  0.1476  0.0357  0.9822
  194DOPC   C3424029   1.048   7.679  13.043 -0.0847 -0.1122 -0.2560
  194DOPC   H4X24030   1.027   7.787  13.036  0.8220  0.0429 -0.7923
  194DOPC   H4Y24031   1.156   7.650  13.042  0.1975  0.4008  3.4526
  194DOPC   C3524032   0.993   7.621  13.171 -0.1342  0.6248 -0.6823
  194DOPC   H5X24033   1.007   7.511  13.169 -0.6960  0.3783  2.8168
  194DOPC   H5Y24034   0.885   7.646  13.166 -0.2740  0.1096 -0.2810
  194DOPC   C3624035   1.073   7.682  13.288  0.2898 -0.1962 -0.2821
  194DOPC   H6X24036   1.169   7.631  13.269  1.0194  2.0462 -3.3165
  194DOPC   H6Y24037   1.084   7.793  13.291 -0.2469 -0.1049 -1.3501
  194DOPC   C3724038   1.011   7.629  13.413 -0.5545 -0.0921 -0.2985
  194DOPC   H7X24039   0.980   7.524  13.393 -2.3173  0.2702  0.2838
  194DOPC   H7Y24040   1.082   7.630  13.499 -0.4382 -2.9797 -0.2830
  194DOPC   C3824041   0.891   7.714  13.444  0.2452  0.6461 -0.3337
  194DOPC   H8X24042   0.832   7.721  13.351  0.5257 -0.4034 -0.5974
  194DOPC   H8Y24043   0.916   7.818  13.473  0.9655  0.3583  0.1108
  194DOPC   C3924044   0.798   7.648  13.552 -0.0347 -0.4792 -0.0958
  194DOPC   H9X24045   0.857   7.616  13.640  0.2339 -0.6841 -0.3457
  194DOPC  C31024046   0.664   7.619  13.547 -0.5099 -0.9748 -0.6388
  194DOPC  H10X24047   0.608   7.589  13.636  0.4394 -2.7806 -0.6004
  194DOPC  C31124048   0.574   7.638  13.427  0.2125  0.2252  0.1814
  194DOPC  H11X24049   0.512   7.552  13.395  0.7359  0.7369 -2.4483
  194DOPC  H11Y24050   0.639   7.650  13.338 -0.0586  0.2224 -0.0163
  194DOPC  C31224051   0.483   7.756  13.437  0.1524 -0.4027 -0.3185
  194DOPC  H12X24052   0.424   7.761  13.343  1.5286  0.6638 -1.1726
  194DOPC  H12Y24053   0.531   7.856  13.443  0.4966 -0.6095  0.5106
  194DOPC  C31324054   0.391   7.760  13.559  0.2892  0.0140  0.7760
  194DOPC  H13X24055   0.338   7.662  13.563  0.4026 -0.0778  0.2265
  194DOPC  H13Y24056   0.449   7.774  13.652  0.7494  1.0132  0.3527
  194DOPC  C31424057   0.276   7.863  13.552  0.5681  0.4495 -0.3539
  194DOPC  H14X24058   0.324   7.961  13.531  0.3580  1.0328  1.6683
  194DOPC  H14Y24059   0.209   7.817  13.477 -0.7345  1.1558  0.3370
  194DOPC  C31524060   0.202   7.884  13.689 -0.1162  0.7780  0.1198
  194DOPC  H15X24061   0.283   7.913  13.760  2.1202  1.5102 -2.5292
  194DOPC  H15Y24062   0.146   7.799  13.732 -1.2474  2.2017  1.5808
  194DOPC  C31624063   0.095   7.998  13.679  0.4531  1.1246  0.6623
  194DOPC  H16X24064   0.152   8.088  13.649  1.1606  0.3842 -0.2818
  194DOPC  H16Y24065   0.010   7.974  13.613 -0.7645  2.2608  1.7792
  194DOPC  C31724066   0.043   8.033  13.818 -0.2363  0.7183  0.3241
  194DOPC  H17X24067  -0.018   7.953  13.865  1.1385 -0.7609 -0.3294
  194DOPC  H17Y24068   0.127   8.051  13.889  1.7630 -1.2389 -1.4329
  194DOPC  C31824069  -0.047   8.157  13.824 -0.2421  0.4064  0.4913
  194DOPC  H18X24070   0.017   8.248  13.827  0.2252  0.1420 -0.7769
  194DOPC  H18Y24071  -0.118   8.168  13.740 -1.1381 -2.4234  0.7708
  194DOPC  H18Z24072  -0.110   8.155  13.915 -0.4317 -3.1819  0.4196
  195DOPC     N24073   7.221   8.231  12.448 -0.0253 -0.1804  0.0634
  195DOPC   C1224074   7.267   8.160  12.579 -0.2244  0.0423  0.5938
  195DOPC  H12A24075   7.178   8.142  12.637 -0.1689 -0.6981  0.4544
  195DOPC  H12B24076   7.320   8.234  12.638 -1.5800 -0.1392  2.0916
  195DOPC   C1324077   7.124   8.342  12.497 -0.0730  0.3706  0.4485
  195DOPC  H13A24078   7.098   8.403  12.413  1.6885 -0.3144 -0.6532
  195DOPC  H13B24079   7.037   8.296  12.542 -1.5950  1.6413 -1.0523
  195DOPC  H13C24080   7.178   8.401  12.568 -0.3273  0.4809  0.5519
  195DOPC   C1424081   7.151   8.133  12.358 -0.0651  0.0701 -0.5499
  195DOPC  H14A24082   7.085   8.185  12.290  0.5951 -0.8518 -1.9457
  195DOPC  H14B24083   7.224   8.077  12.301 -1.0163 -2.8335  0.8430
  195DOPC  H14C24084   7.097   8.066  12.424  0.3555  0.6577  0.4135
  195DOPC   C1524085   7.335   8.304  12.379  0.1177  0.6177 -0.4951
  195DOPC  H15A24086   7.417   8.240  12.350  1.5367  2.6714 -1.2540
  195DOPC  H15B24087   7.378   8.377  12.445 -0.5408  0.4067  0.1751
  195DOPC  H15C24088   7.305   8.353  12.287 -0.6124  2.9980  0.9135
  195DOPC   C1124089   7.354   8.034  12.566 -0.7535 -0.7133 -0.4188
  195DOPC  H11A24090   7.371   7.999  12.670  1.3490 -1.1384 -0.8598
  195DOPC  H11B24091   7.295   7.958  12.511  0.4824 -1.1262 -1.2090
  195DOPC     P24092   7.596   8.134  12.550  0.0801 -0.0105  0.3786
  195DOPC   O1324093   7.642   8.221  12.438 -0.6989  0.1023  0.3108
  195DOPC   O1424094   7.693   8.038  12.602  0.0102  0.0769 -0.1257
  195DOPC   O1224095   7.471   8.048  12.495 -0.7410 -0.0403  0.0029
  195DOPC   O1124096   7.536   8.232  12.660  0.1472  0.3867 -0.2423
  195DOPC    C124097   7.629   8.286  12.755 -0.0635  0.5119  0.3720
  195DOPC    HA24098   7.630   8.396  12.742  2.7200  0.6799  1.4595
  195DOPC    HB24099   7.727   8.235  12.753 -1.0410 -1.4931 -1.5502
  195DOPC    C224100   7.578   8.266  12.900 -0.0680 -0.3131  0.0419
  195DOPC    HS24101   7.647   8.309  12.975 -0.6112 -0.6301  0.7313
  195DOPC   O2124102   7.547   8.127  12.919  0.0892  0.5058 -0.2852
  195DOPC   C2124103   7.649   8.066  12.969 -0.1666 -0.5046 -0.1465
  195DOPC   O2224104   7.737   8.121  13.028  0.2576  0.1418 -0.7510
  195DOPC   C2224105   7.653   7.920  12.944  0.5560 -0.4486 -0.7152
  195DOPC   H2R24106   7.726   7.877  13.016  1.7329  2.0305 -0.3120
  195DOPC   H2S24107   7.684   7.909  12.838  2.0040  1.8110 -0.5845
  195DOPC    C324108   7.447   8.354  12.930  0.0961 -0.3337 -1.1328
  195DOPC    HX24109   7.372   8.325  12.853 -1.2875 -2.7161  0.9446
  195DOPC    HY24110   7.467   8.463  12.924  2.0847 -0.4992  0.9722
  195DOPC   O3124111   7.421   8.322  13.068  0.3981 -0.3170 -0.4295
  195DOPC   C3124112   7.318   8.241  13.080 -0.0342  0.7834  0.2975
  195DOPC   O3224113   7.240   8.201  12.999  0.5391  0.1868 -0.3092
  195DOPC   C3224114   7.305   8.202  13.223  0.0131 -0.3907 -0.4512
  195DOPC   H2X24115   7.247   8.277  13.282  3.5975  1.6421  0.7903
  195DOPC   H2Y24116   7.252   8.104  13.220 -1.8943  0.6004 -1.9944
  195DOPC   C2324117   7.520   7.830  12.964  0.0509 -0.5912  0.7087
  195DOPC   H3R24118   7.553   7.725  12.945  1.3783 -0.3239  1.3609
  195DOPC   H3S24119   7.438   7.853  12.893  0.9866  0.0792 -0.1856
  195DOPC   C2424120   7.485   7.821  13.111  0.2896  0.3936 -0.7660
  195DOPC   H4R24121   7.390   7.767  13.130  0.1663  0.4746 -1.1641
  195DOPC   H4S24122   7.476   7.921  13.159  1.0805 -1.2268  3.2262
  195DOPC   C2524123   7.584   7.743  13.202 -0.1612 -0.7325  0.0413
  195DOPC   H5R24124   7.669   7.808  13.230  0.1991 -0.9456 -0.5288
  195DOPC   H5S24125   7.617   7.657  13.139 -1.8314  0.6208 -2.8855
  195DOPC   C2624126   7.534   7.684  13.328  0.0661 -0.2257  0.1129
  195DOPC   H6R24127   7.461   7.601  13.315 -0.3348  0.2227 -0.5585
  195DOPC   H6S24128   7.475   7.767  13.373 -2.3968 -1.6889 -0.2117
  195DOPC   C2724129   7.649   7.623  13.406 -0.3144  0.0523  0.1245
  195DOPC   H7R24130   7.731   7.685  13.450  0.1567 -0.1416 -0.4711
  195DOPC   H7S24131   7.696   7.551  13.336 -0.5065  0.1210 -0.0751
  195DOPC   C2824132   7.591   7.529  13.515 -0.1959  0.0855 -0.3147
  195DOPC   H8R24133   7.555   7.452  13.444  0.9970 -0.5323 -0.2800
  195DOPC   H8S24134   7.504   7.573  13.568 -0.4555 -0.0457 -0.6265
  195DOPC   C2924135   7.695   7.491  13.612 -0.4293 -0.4298 -0.2412
  195DOPC   H9R24136   7.701   7.544  13.708 -0.3244  1.1429 -1.0917
  195DOPC  C21024137   7.793   7.399  13.598 -0.7861 -0.0068  0.5905
  195DOPC  H10R24138   7.858   7.376  13.684 -0.8978 -0.4905  0.5467
  195DOPC  C21124139   7.832   7.336  13.470 -0.2891  0.8039 -0.1573
  195DOPC  H11R24140   7.787   7.388  13.382  0.4346  2.0844  0.2093
  195DOPC  H11S24141   7.820   7.225  13.466 -0.8790  0.8759 -0.4625
  195DOPC  C21224142   7.985   7.371  13.459  0.0684 -0.3117  0.0629
  195DOPC  H12R24143   8.031   7.314  13.542 -0.8463  0.5851  1.2173
  195DOPC  H12S24144   7.993   7.481  13.475  0.4502 -0.7305  3.2799
  195DOPC  C21324145   8.053   7.328  13.323  0.9722 -0.5087 -0.6018
  195DOPC  H13R24146   8.026   7.221  13.314  2.3400 -1.1715  2.1156
  195DOPC  H13S24147   8.164   7.328  13.327  0.9728 -0.8858 -0.5540
  195DOPC  C21424148   8.004   7.397  13.193  0.5633  0.5912 -0.2497
  195DOPC  H14R24149   7.992   7.506  13.212 -0.4596  0.2245  1.5452
  195DOPC  H14S24150   7.906   7.355  13.161  1.1556 -0.9212 -0.1324
  195DOPC  C21524151   8.106   7.372  13.081 -0.0220 -0.4399  0.2288
  195DOPC  H15R24152   8.122   7.262  13.083 -1.1213 -0.6392 -0.7683
  195DOPC  H15S24153   8.203   7.418  13.110  0.1524 -1.6203  1.5664
  195DOPC  C21624154   8.067   7.419  12.940 -0.2366  0.3419  0.6573
  195DOPC  H16R24155   7.998   7.506  12.943  0.1363  0.6106  2.2706
  195DOPC  H16S24156   8.020   7.332  12.888 -1.3292  1.3748 -0.1539
  195DOPC  C21724157   8.188   7.456  12.856  0.1954  0.3630  0.2972
  195DOPC  H17R24158   8.251   7.539  12.897  1.2105 -0.7758  1.1147
  195DOPC  H17S24159   8.158   7.495  12.756 -0.3270  0.8314  0.6354
  195DOPC  C21824160   8.293   7.343  12.845 -0.2491  0.1631 -0.4972
  195DOPC  H18R24161   8.391   7.376  12.805  0.1164  0.1451  0.3598
  195DOPC  H18S24162   8.250   7.263  12.780 -2.8102  3.2835 -2.9492
  195DOPC  H18T24163   8.321   7.292  12.940 -0.3256  1.3197  0.1559
  195DOPC   C3324164   7.441   8.181  13.298 -0.3676 -0.6494 -0.4525
  195DOPC   H3X24165   7.494   8.278  13.308  0.2874 -1.0783  0.4399
  195DOPC   H3Y24166   7.504   8.102  13.251  1.2959  1.2009 -1.4774
  195DOPC   C3424167   7.424   8.133  13.444 -0.1129  0.3449  0.0370
  195DOPC   H4X24168   7.360   8.042  13.442  0.0222  0.2561 -2.0608
  195DOPC   H4Y24169   7.381   8.205  13.517 -0.0825  0.4371 -0.0370
  195DOPC   C3524170   7.548   8.094  13.516 -0.1259 -0.6088 -0.3705
  195DOPC   H5X24171   7.613   8.183  13.532  1.0645 -1.5060 -0.1706
  195DOPC   H5Y24172   7.604   8.026  13.449 -0.4499  0.0082 -1.3003
  195DOPC   C3624173   7.539   8.030  13.652 -0.1144  0.4011 -0.0546
  195DOPC   H6X24174   7.500   8.104  13.726  2.3420  2.7005 -0.9433
  195DOPC   H6Y24175   7.466   7.945  13.651  0.2494  0.0745 -2.2749
  195DOPC   C3724176   7.671   7.988  13.707 -0.2757 -0.9052 -0.9870
  195DOPC   H7X24177   7.738   7.936  13.636  0.0474 -0.6338 -0.8817
  195DOPC   H7Y24178   7.718   8.082  13.742 -2.0678 -0.4748  0.4086
  195DOPC   C3824179   7.657   7.896  13.828 -0.0687 -0.4744 -0.5575
  195DOPC   H8X24180   7.614   7.933  13.923 -2.3380  0.0977 -1.7434
  195DOPC   H8Y24181   7.758   7.859  13.855  1.0847  0.7359 -2.8610
  195DOPC   C3924182   7.587   7.774  13.792  0.5412 -0.0992  0.2697
  195DOPC   H9X24183   7.614   7.741  13.690 -0.1021  1.6317 -0.4958
  195DOPC  C31024184   7.524   7.679  13.875 -0.1311 -0.1433  0.5086
  195DOPC  H10X24185   7.449   7.615  13.825 -0.2232  1.4832 -1.6132
  195DOPC  C31124186   7.513   7.671  14.017  0.0625 -1.0080 -0.2701
  195DOPC  H11X24187   7.407   7.677  14.052 -0.4382 -0.2344 -1.8400
  195DOPC  H11Y24188   7.555   7.767  14.055  1.1006 -1.3471 -0.5184
  195DOPC  C31224189   7.579   7.548  14.069 -0.1547 -0.4292  0.4745
  195DOPC  H12X24190   7.688   7.551  14.044  0.5949 -0.2097  3.3558
  195DOPC  H12Y24191   7.528   7.459  14.026 -1.8011  0.5414  0.3522
  195DOPC  C31324192   7.574   7.522  14.216 -0.1816  0.8817 -0.2370
  195DOPC  H13X24193   7.647   7.439  14.217 -0.5835  0.5176 -0.6914
  195DOPC  H13Y24194   7.615   7.613  14.265  1.4843  1.2266 -2.1378
  195DOPC  C31424195   7.446   7.483  14.296 -0.3924 -0.1004  0.1754
  195DOPC  H14X24196   7.476   7.471  14.402 -0.3388  0.1552  0.1899
  195DOPC  H14Y24197   7.370   7.564  14.287 -0.5719  0.1474  2.8860
  195DOPC  C31524198   7.402   7.346  14.249 -0.0803  0.4529 -0.4537
  195DOPC  H15X24199   7.395   7.343  14.138  0.5479 -0.0653 -0.4829
  195DOPC  H15Y24200   7.300   7.335  14.292  0.5743  1.2419  1.4265
  195DOPC  C31624201   7.486   7.232  14.308 -0.4603 -1.0514 -0.2562
  195DOPC  H16X24202   7.596   7.242  14.296 -0.7153  0.0973 -1.8730
  195DOPC  H16Y24203   7.469   7.246  14.417 -0.5111 -0.2980 -0.3532
  195DOPC  C31724204   7.416   7.102  14.269  0.7601 -0.0218  1.1872
  195DOPC  H17X24205   7.310   7.092  14.302 -0.0606  1.6115 -0.7337
  195DOPC  H17Y24206   7.405   7.116  14.159 -0.3085  0.3041  1.3222
  195DOPC  C31824207   7.488   6.974  14.305 -0.5490  0.8442  0.8261
  195DOPC  H18X24208   7.515   6.965  14.412  1.7598  1.0748  0.3143
  195DOPC  H18Y24209   7.418   6.892  14.278  0.1025 -0.2112  2.2520
  195DOPC  H18Z24210   7.580   6.957  14.245  0.0944 -0.3605  2.1180
  196DOPC     N24211   2.587   0.758  12.311 -0.2543 -0.2588  0.2547
  196DOPC   C1224212   2.576   0.785  12.461 -0.0672 -0.0036 -0.4641
  196DOPC  H12A24213   2.473   0.774  12.492 -0.3798  0.6600 -1.2304
  196DOPC  H12B24214   2.588   0.890  12.485  0.9368 -0.0783 -0.5942
  196DOPC   C1324215   2.721   0.804  12.256 -0.1494  0.6023 -0.4014
  196DOPC  H13A24216   2.730   0.774  12.153  0.6150 -2.3078  0.4336
  196DOPC  H13B24217   2.736   0.911  12.265 -2.4116  1.0444 -1.2557
  196DOPC  H13C24218   2.806   0.755  12.301  0.3582 -2.2899 -4.0391
  196DOPC   C1424219   2.472   0.821  12.243 -0.0773 -0.0767 -0.7859
  196DOPC  H14A24220   2.385   0.763  12.273 -0.7856  1.3031 -0.0792
  196DOPC  H14B24221   2.461   0.926  12.266 -1.9274 -0.5551  0.7896
  196DOPC  H14C24222   2.477   0.816  12.135  0.3535 -1.6463 -0.7137
  196DOPC   C1524223   2.569   0.616  12.276 -0.7731  0.1799  0.2558
  196DOPC  H15A24224   2.507   0.571  12.353  0.8289 -0.0591  1.4738
  196DOPC  H15B24225   2.666   0.570  12.292 -0.2042  1.4078  0.5346
  196DOPC  H15C24226   2.538   0.608  12.173 -2.6101 -2.5677  0.9262
  196DOPC   C1124227   2.672   0.714  12.557 -0.5096 -0.7379 -0.3475
  196DOPC  H11A24228   2.642   0.748  12.658  0.2785  0.8616 -0.6222
  196DOPC  H11B24229   2.645   0.606  12.556 -2.6736 -0.2415 -1.0204
  196DOPC     P24230   2.891   0.859  12.594 -0.1122 -0.1396  0.1666
  196DOPC   O1324231   2.802   0.984  12.607 -0.4994  0.0249 -0.1180
  196DOPC   O1424232   3.023   0.865  12.526  0.2413 -0.3725  0.4466
  196DOPC   O1224233   2.808   0.736  12.539  0.7824 -0.0979  0.0272
  196DOPC   O1124234   2.911   0.818  12.745 -0.3217 -0.0740  0.7799
  196DOPC    C124235   2.943   0.684  12.773  0.2710 -0.3117  0.0073
  196DOPC    HA24236   3.042   0.659  12.729 -0.0788 -0.9765 -0.4052
  196DOPC    HB24237   2.877   0.605  12.733 -1.1647  0.4990  0.6934
  196DOPC    C224238   2.960   0.668  12.935  0.0468  0.1798  0.3515
  196DOPC    HS24239   2.963   0.559  12.954 -2.0597  0.5109  3.3185
  196DOPC   O2124240   2.849   0.729  12.998 -0.0471  0.1948 -0.5413
  196DOPC   C2124241   2.730   0.670  12.971 -0.4718 -0.5310 -0.6674
  196DOPC   O2224242   2.702   0.559  12.930  0.0342 -0.0157 -0.3678
  196DOPC   C2224243   2.636   0.781  13.013 -0.3031 -0.1661 -0.2537
  196DOPC   H2R24244   2.648   0.865  12.942  2.1775 -0.2027  0.0461
  196DOPC   H2S24245   2.667   0.826  13.110  0.6775  0.7991 -1.0052
  196DOPC    C324246   3.098   0.719  12.992 -0.5927 -0.4275  1.0530
  196DOPC    HX24247   3.081   0.829  12.988  1.9740  0.0545  1.5364
  196DOPC    HY24248   3.185   0.681  12.934  0.5903 -0.5015  2.7919
  196DOPC   O3124249   3.114   0.671  13.119 -0.1427  0.1694 -0.4743
  196DOPC   C3124250   3.179   0.758  13.197  0.2110 -0.2387 -0.6067
  196DOPC   O3224251   3.247   0.851  13.151  0.5799  0.1839  0.3156
  196DOPC   C3224252   3.141   0.733  13.344 -0.1663 -0.4964  0.2001
  196DOPC   H2X24253   3.083   0.637  13.343 -1.0843 -0.0564 -3.3904
  196DOPC   H2Y24254   3.231   0.707  13.403  0.5173  0.1894 -0.5267
  196DOPC   C2324255   2.496   0.740  13.041 -0.3598  0.1506 -0.3969
  196DOPC   H3R24256   2.453   0.705  12.945 -1.9838 -1.4450  0.8452
  196DOPC   H3S24257   2.441   0.833  13.067  0.2319  0.2036  0.7369
  196DOPC   C2424258   2.471   0.625  13.138 -0.4488  0.2973 -0.2909
  196DOPC   H4R24259   2.507   0.658  13.238  2.7690  1.1208 -1.6029
  196DOPC   H4S24260   2.521   0.535  13.095  0.2073  1.1122 -1.2678
  196DOPC   C2524261   2.325   0.568  13.149  0.3547  0.3922  0.1891
  196DOPC   H5R24262   2.283   0.559  13.046 -1.6739  0.8812  0.9236
  196DOPC   H5S24263   2.270   0.645  13.206  1.6719  1.9169 -0.5147
  196DOPC   C2624264   2.306   0.426  13.207 -0.3537  0.3127 -0.0354
  196DOPC   H6R24265   2.366   0.356  13.144  0.9333 -0.6252  2.0920
  196DOPC   H6S24266   2.198   0.406  13.189 -0.3924 -0.0036  0.5292
  196DOPC   C2724267   2.322   0.409  13.357  0.8708 -0.1093  0.2487
  196DOPC   H7R24268   2.431   0.418  13.374  0.9557 -0.1316 -0.2666
  196DOPC   H7S24269   2.293   0.305  13.382  0.1122  0.3106  1.1889
  196DOPC   C2824270   2.241   0.496  13.456  0.1121  0.0296  0.5042
  196DOPC   H8R24271   2.259   0.603  13.431  0.3141 -0.3322 -0.9951
  196DOPC   H8S24272   2.286   0.483  13.556  0.7249  2.8521  0.6955
  196DOPC   C2924273   2.089   0.472  13.446 -0.0541 -0.4209  0.0020
  196DOPC   H9R24274   2.052   0.476  13.343 -3.2930 -0.4060  1.0473
  196DOPC  C21024275   2.005   0.439  13.548  0.1737  0.9143  0.3739
  196DOPC  H10R24276   1.898   0.427  13.526  0.6046 -0.5390 -1.1133
  196DOPC  C21124277   2.040   0.413  13.691 -0.0919 -0.5404  0.1827
  196DOPC  H11R24278   2.146   0.381  13.700  0.5325  1.5135  0.8081
  196DOPC  H11S24279   1.969   0.336  13.727 -2.4859  1.3631 -0.1775
  196DOPC  C21224280   2.009   0.541  13.770 -0.5428 -0.3070  0.5338
  196DOPC  H12R24281   1.904   0.579  13.769 -1.1495 -1.7177  2.7311
  196DOPC  H12S24282   2.082   0.618  13.739  1.1055 -2.0642 -0.1267
  196DOPC  C21324283   2.026   0.525  13.922 -0.3484 -0.1478 -0.0438
  196DOPC  H13R24284   1.991   0.620  13.968 -2.1120  0.6498 -2.7928
  196DOPC  H13S24285   2.129   0.494  13.949 -0.9395 -1.8574  0.3828
  196DOPC  C21424286   1.936   0.422  13.989  0.0115 -0.6714  0.5578
  196DOPC  H14R24287   1.973   0.327  13.944  0.4378  0.1612 -0.8975
  196DOPC  H14S24288   1.835   0.440  13.945 -0.3859  0.2945  1.8060
  196DOPC  C21524289   1.914   0.436  14.137  0.5566 -0.0174 -0.1629
  196DOPC  H15R24290   1.840   0.363  14.176 -0.3947  1.6872  1.3500
  196DOPC  H15S24291   1.888   0.541  14.161  2.5486  0.1670  1.5377
  196DOPC  C21624292   2.041   0.406  14.224 -0.0243 -0.4372  0.4085
  196DOPC  H16R24293   2.131   0.469  14.215 -0.2865  0.1446  1.6372
  196DOPC  H16S24294   2.079   0.306  14.193 -3.0698 -1.7420  0.5110
  196DOPC  C21724295   2.001   0.392  14.370 -0.5118  0.8087  0.5762
  196DOPC  H17R24296   2.079   0.325  14.413 -1.4844 -1.5253 -1.0441
  196DOPC  H17S24297   1.905   0.336  14.372 -0.0751 -0.1314 -1.4510
  196DOPC  C21824298   1.993   0.529  14.448  0.0694  0.3735  0.2919
  196DOPC  H18R24299   2.078   0.593  14.417 -0.0612 -0.1341 -1.2194
  196DOPC  H18S24300   1.994   0.521  14.559 -0.8055  0.4398  0.3085
  196DOPC  H18T24301   1.900   0.573  14.407 -0.4949 -0.6029  0.4827
  196DOPC   C3324302   3.040   0.829  13.408 -0.8885 -0.7182 -1.2859
  196DOPC   H3X24303   3.087   0.929  13.392 -0.3230 -0.8845 -0.7343
  196DOPC   H3Y24304   3.023   0.798  13.514 -0.5525  1.5710 -0.4998
  196DOPC   C3424305   2.909   0.828  13.338  0.1586 -0.0595 -0.2982
  196DOPC   H4X24306   2.880   0.723  13.317 -0.3785 -0.1284  0.7067
  196DOPC   H4Y24307   2.906   0.880  13.240 -0.4116  0.8841  0.1991
  196DOPC   C3524308   2.801   0.918  13.415  0.1596 -0.4487  0.6877
  196DOPC   H5X24309   2.719   0.933  13.343  2.2583 -0.8590 -1.9498
  196DOPC   H5Y24310   2.839   1.017  13.447 -2.1118  0.0618  2.0218
  196DOPC   C3624311   2.741   0.852  13.535  0.1787 -0.4745 -0.2977
  196DOPC   H6X24312   2.814   0.804  13.605  0.5188 -2.0709 -1.6772
  196DOPC   H6Y24313   2.692   0.930  13.597 -1.6384 -2.3025  0.7087
  196DOPC   C3724314   2.636   0.740  13.503  0.6431  0.1761 -0.2712
  196DOPC   H7X24315   2.572   0.771  13.418  2.2921  1.3345 -1.1594
  196DOPC   H7Y24316   2.684   0.644  13.475 -0.3204 -0.5559  0.5467
  196DOPC   C3824317   2.563   0.686  13.631  0.4678 -0.1170 -0.0599
  196DOPC   H8X24318   2.642   0.664  13.706 -0.5300  2.0889  1.7705
  196DOPC   H8Y24319   2.505   0.596  13.600 -1.2020  0.6536  0.6874
  196DOPC   C3924320   2.464   0.787  13.682 -0.0063  0.5124 -0.2782
  196DOPC   H9X24321   2.396   0.828  13.607 -0.1802  0.4605 -0.1492
  196DOPC  C31024322   2.446   0.821  13.813 -0.5043  0.0767  0.0647
  196DOPC  H10X24323   2.371   0.896  13.842  1.1319  1.5157  0.7222
  196DOPC  C31124324   2.520   0.758  13.928  0.1306  0.4055  1.0882
  196DOPC  H11X24325   2.584   0.843  13.960  0.1150  1.1797 -0.8392
  196DOPC  H11Y24326   2.589   0.678  13.893 -1.6695 -0.7189 -0.0467
  196DOPC  C31224327   2.428   0.682  14.018 -0.3792  1.0599  0.9246
  196DOPC  H12X24328   2.399   0.595  13.955  0.5482  1.9941 -0.8749
  196DOPC  H12Y24329   2.346   0.747  14.057 -0.0936  1.0043  1.6337
  196DOPC  C31324330   2.500   0.639  14.139  0.1098 -0.5490 -0.6977
  196DOPC  H13X24331   2.586   0.574  14.111  0.9967 -1.0799  2.7494
  196DOPC  H13Y24332   2.549   0.724  14.192  1.3394 -1.3082 -0.5685
  196DOPC  C31424333   2.411   0.550  14.230  0.0538 -0.3025 -0.1372
  196DOPC  H14X24334   2.314   0.602  14.240 -0.1155 -0.5440 -0.5306
  196DOPC  H14Y24335   2.392   0.457  14.174  0.9217  0.6836 -2.1610
  196DOPC  C31524336   2.465   0.526  14.374  0.6139  0.1025 -0.3504
  196DOPC  H15X24337   2.464   0.621  14.431  2.5785  0.5436 -0.9938
  196DOPC  H15Y24338   2.568   0.485  14.368  0.3692 -0.4574 -0.9164
  196DOPC  C31624339   2.374   0.419  14.443  0.2204  0.2516 -0.1208
  196DOPC  H16X24340   2.271   0.462  14.441 -0.0276 -0.3352 -2.4783
  196DOPC  H16Y24341   2.376   0.329  14.378  1.3110 -2.3923  3.3191
  196DOPC  C31724342   2.407   0.378  14.585 -0.1580  0.1402 -0.2099
  196DOPC  H17X24343   2.492   0.306  14.581  0.9673  1.3989  0.5002
  196DOPC  H17Y24344   2.437   0.473  14.634  0.4195  0.2188 -0.7006
  196DOPC  C31824345   2.302   0.306  14.668 -0.4154 -0.2682  0.4050
  196DOPC  H18X24346   2.280   0.202  14.635 -3.0868  0.2085  0.4604
  196DOPC  H18Y24347   2.327   0.313  14.776 -0.5688  1.8420  0.3539
  196DOPC  H18Z24348   2.201   0.351  14.659 -1.0666 -1.6195  0.6923
  197DOPC     N24349   0.812   7.571  12.148 -0.2046 -0.0451 -0.4137
  197DOPC   C1224350   0.667   7.586  12.195 -0.2330  0.7111  0.3863
  197DOPC  H12A24351   0.633   7.678  12.148 -1.7157  0.0415  0.0946
  197DOPC  H12B24352   0.668   7.597  12.302  1.0599 -0.5985  0.5417
  197DOPC   C1324353   0.884   7.470  12.230 -0.2553 -0.5018 -0.1490
  197DOPC  H13A24354   0.826   7.378  12.225 -0.4421 -0.4378  0.7232
  197DOPC  H13B24355   0.985   7.451  12.196 -0.4115  0.7199 -1.4040
  197DOPC  H13C24356   0.892   7.487  12.336 -2.9161 -2.4289  0.4857
  197DOPC   C1424357   0.884   7.702  12.156 -0.5802 -0.5963  0.0140
  197DOPC  H14A24358   0.844   7.775  12.087  1.1268  0.8073  0.4502
  197DOPC  H14B24359   0.876   7.748  12.253 -0.1677 -1.3104  0.3897
  197DOPC  H14C24360   0.987   7.694  12.127 -0.3961 -0.3458  0.5893
  197DOPC   C1524361   0.809   7.523  12.003 -0.1411  0.0534  0.2593
  197DOPC  H15A24362   0.778   7.595  11.929  2.4063 -0.7319 -1.7260
  197DOPC  H15B24363   0.743   7.438  12.002  0.0915 -0.1848  1.9388
  197DOPC  H15C24364   0.903   7.486  11.964 -0.1507 -1.3364  1.4854
  197DOPC   C1124365   0.567   7.476  12.160 -0.8420 -0.8533  0.3228
  197DOPC  H11A24366   0.463   7.495  12.195 -1.2471 -1.8241 -0.3087
  197DOPC  H11B24367   0.550   7.472  12.050  1.4664 -0.1758 -0.1147
  197DOPC     P24368   0.562   7.310  12.361 -0.1964 -0.2030  0.0991
  197DOPC   O1324369   0.664   7.217  12.409 -0.3497  0.5803 -0.5738
  197DOPC   O1424370   0.423   7.260  12.348  0.4519  0.0295 -0.1041
  197DOPC   O1224371   0.603   7.343  12.205 -0.1176 -0.9529 -0.0374
  197DOPC   O1124372   0.578   7.455  12.428 -0.1012 -0.5553 -0.3214
  197DOPC    C124373   0.472   7.524  12.494  0.3537 -0.4078  0.0049
  197DOPC    HA24374   0.375   7.478  12.464  0.1682 -0.3214  0.4676
  197DOPC    HB24375   0.466   7.630  12.460  1.5638 -0.7697 -1.4529
  197DOPC    C224376   0.500   7.521  12.647 -0.3832 -0.2677  0.1555
  197DOPC    HS24377   0.609   7.542  12.645 -0.2286 -0.9050 -2.4006
  197DOPC   O2124378   0.469   7.395  12.697  0.3727  1.1176 -0.7764
  197DOPC   C2124379   0.550   7.352  12.797  0.0543 -0.0476  0.1572
  197DOPC   O2224380   0.650   7.415  12.838  0.3832 -0.2017 -0.4984
  197DOPC   C2224381   0.504   7.220  12.855 -0.0768 -0.5298  0.0463
  197DOPC   H2R24382   0.593   7.157  12.874  1.1165  0.8369 -0.7767
  197DOPC   H2S24383   0.442   7.176  12.774  1.5487  0.1033 -1.6020
  197DOPC    C324384   0.402   7.621  12.717 -0.2070  0.1488  0.3790
  197DOPC    HX24385   0.301   7.576  12.709  0.2129 -0.7917  0.1283
  197DOPC    HY24386   0.414   7.715  12.660  1.1410  2.3913  4.0017
  197DOPC   O3124387   0.424   7.636  12.859 -0.5885 -0.3974  0.0865
  197DOPC   C3124388   0.543   7.704  12.887  0.1120 -0.0534  0.4418
  197DOPC   O3224389   0.610   7.760  12.802  0.1041 -0.3549 -0.5704
  197DOPC   C3224390   0.563   7.715  13.040 -0.5346 -0.7487 -0.2306
  197DOPC   H2X24391   0.459   7.710  13.079 -0.7541  1.6272 -0.3483
  197DOPC   H2Y24392   0.636   7.639  13.074  0.6282  1.1647  1.7916
  197DOPC   C2324393   0.430   7.251  12.985  0.1924  0.2087  0.5205
  197DOPC   H3R24394   0.328   7.277  12.949  0.5818 -1.6953 -2.2724
  197DOPC   H3S24395   0.467   7.342  13.036 -2.5475  2.1606 -0.7064
  197DOPC   C2424396   0.411   7.134  13.073  0.2387  0.4193 -0.6589
  197DOPC   H4R24397   0.514   7.112  13.108  0.7050 -0.1494 -2.3381
  197DOPC   H4S24398   0.374   7.043  13.022 -2.0242  0.5407  0.6324
  197DOPC   C2524399   0.320   7.162  13.197  0.0855 -0.3172  0.3115
  197DOPC   H5R24400   0.221   7.205  13.173  0.5357  0.7102  0.2272
  197DOPC   H5S24401   0.363   7.246  13.257 -2.7524  0.3624  1.5768
  197DOPC   C2624402   0.297   7.041  13.283  0.2747  0.5090  0.7684
  197DOPC   H6R24403   0.397   7.002  13.312 -0.2908 -1.5570  0.0975
  197DOPC   H6S24404   0.239   6.958  13.237 -0.1891  1.6083 -0.7071
  197DOPC   C2724405   0.211   7.098  13.403 -0.0512  0.5628  0.3091
  197DOPC   H7R24406   0.117   7.146  13.369  0.5817 -0.5316 -3.4229
  197DOPC   H7S24407   0.267   7.183  13.448  0.0034 -0.8054  2.9847
  197DOPC   C2824408   0.165   6.989  13.500 -0.3703  0.3437  0.0307
  197DOPC   H8R24409   0.258   6.946  13.542  1.0085  2.2839 -0.8875
  197DOPC   H8S24410   0.121   6.909  13.436  0.6569 -1.3709  1.3933
  197DOPC   C2924411   0.073   7.031  13.611 -0.0458 -0.1741 -0.0699
  197DOPC   H9R24412  -0.029   7.059  13.581  1.0392  2.2355 -1.8337
  197DOPC  C21024413   0.105   7.029  13.742  0.1100  0.0945 -0.6809
  197DOPC  H10R24414   0.021   7.039  13.812  1.1866  0.1224  0.6566
  197DOPC  C21124415   0.232   6.979  13.809  0.1595 -0.1497  0.2227
  197DOPC  H11R24416   0.278   7.068  13.856  0.0373  0.2284 -0.3578
  197DOPC  H11S24417   0.305   6.944  13.733  1.1797  1.5974  0.3535
  197DOPC  C21224418   0.223   6.862  13.908 -0.0581  0.2246  0.1414
  197DOPC  H12R24419   0.171   6.771  13.870 -0.0535 -0.0762  0.8441
  197DOPC  H12S24420   0.169   6.898  13.998  0.6593  0.5763  0.4355
  197DOPC  C21324421   0.365   6.842  13.965 -0.2018  0.8725 -0.4635
  197DOPC  H13R24422   0.395   6.939  14.009 -0.5075  0.5320  0.5108
  197DOPC  H13S24423   0.428   6.812  13.878 -1.3614  0.6840 -1.2593
  197DOPC  C21424424   0.366   6.727  14.073  0.4289 -0.1356 -0.3090
  197DOPC  H14R24425   0.351   6.628  14.025 -1.0831  0.3658 -0.9149
  197DOPC  H14S24426   0.278   6.741  14.139 -0.3108 -1.5253 -0.9717
  197DOPC  C21524427   0.498   6.731  14.157  0.3165 -0.4659 -0.1441
  197DOPC  H15R24428   0.488   6.649  14.231 -0.8831  1.7578  2.3266
  197DOPC  H15S24429   0.498   6.833  14.201  0.1171 -0.2318 -0.6791
  197DOPC  C21624430   0.624   6.717  14.066 -0.3073 -0.0236  0.2373
  197DOPC  H16R24431   0.645   6.819  14.028  2.2842  0.0640  1.7036
  197DOPC  H16S24432   0.607   6.645  13.983 -0.2812  0.9060 -0.5928
  197DOPC  C21724433   0.756   6.679  14.145  0.7241 -0.0430  0.5629
  197DOPC  H17R24434   0.827   6.666  14.061  0.0610  0.8851 -0.1595
  197DOPC  H17S24435   0.740   6.580  14.195 -1.9601 -0.1884 -0.4215
  197DOPC  C21824436   0.831   6.786  14.233  0.2864 -0.6646  0.4835
  197DOPC  H18R24437   0.790   6.810  14.333 -1.1253 -1.2542  0.0611
  197DOPC  H18S24438   0.830   6.877  14.169 -0.1943 -1.0816 -0.1129
  197DOPC  H18T24439   0.939   6.760  14.243 -0.4821 -3.8270  1.4050
  197DOPC   C3324440   0.627   7.855  13.061  0.2006  0.6743  0.5474
  197DOPC   H3X24441   0.722   7.875  13.008  1.2750  0.5311  2.3731
  197DOPC   H3Y24442   0.653   7.875  13.167 -0.0396 -0.7100  0.8894
  197DOPC   C3424443   0.527   7.966  13.039  0.2812 -1.3820  0.4334
  197DOPC   H4X24444   0.467   7.987  13.131 -0.0596  0.5363 -0.1753
  197DOPC   H4Y24445   0.450   7.936  12.965  2.9384 -1.8073 -2.3644
  197DOPC   C3524446   0.599   8.102  13.001  0.9351  0.4547 -0.6530
  197DOPC   H5X24447   0.648   8.090  12.902  2.0676 -0.7824  0.0219
  197DOPC   H5Y24448   0.665   8.132  13.085 -3.4585  0.7416  3.0640
  197DOPC   C3624449   0.492   8.213  12.965 -0.4350 -0.5067 -0.9171
  197DOPC   H6X24450   0.402   8.165  12.921 -0.4424  0.8509 -2.4745
  197DOPC   H6Y24451   0.456   8.258  13.060 -0.7411 -3.0060  0.2478
  197DOPC   C3724452   0.549   8.332  12.888 -0.4099  0.0663 -0.4874
  197DOPC   H7X24453   0.629   8.378  12.949 -0.0002  0.7327 -1.5150
  197DOPC   H7Y24454   0.601   8.296  12.797  1.7643 -0.1895  0.7790
  197DOPC   C3824455   0.442   8.435  12.855 -0.0278 -0.0909 -0.1103
  197DOPC   H8X24456   0.382   8.439  12.949 -0.2547  0.2658 -0.2655
  197DOPC   H8Y24457   0.375   8.386  12.781  1.0874  3.0690 -3.5106
  197DOPC   C3924458   0.496   8.566  12.788 -0.3652 -0.0178 -0.3017
  197DOPC   H9X24459   0.580   8.543  12.721 -1.6193  1.6263 -2.5811
  197DOPC  C31024460   0.445   8.694  12.795  0.1143 -0.6524 -0.2814
  197DOPC  H10X24461   0.480   8.769  12.722 -0.3083  0.3689  0.5408
  197DOPC  C31124462   0.331   8.734  12.881 -0.0281 -0.0704 -0.1798
  197DOPC  H11X24463   0.281   8.649  12.931 -0.3338 -0.3973 -1.0272
  197DOPC  H11Y24464   0.253   8.784  12.820 -0.6614 -1.6569 -0.7222
  197DOPC  C31224465   0.379   8.844  12.977  0.3617  0.2343  0.0550
  197DOPC  H12X24466   0.424   8.927  12.919  0.3632  0.1617 -0.0472
  197DOPC  H12Y24467   0.461   8.792  13.031  0.7721  0.5811 -0.2351
  197DOPC  C31324468   0.274   8.882  13.080  0.2995  0.2664 -0.6252
  197DOPC  H13X24469   0.183   8.918  13.027 -0.3233  0.3516  0.4784
  197DOPC  H13Y24470   0.231   8.794  13.131 -1.2020  1.0100 -0.5511
  197DOPC  C31424471   0.315   8.977  13.198 -0.1547  0.4106  0.6045
  197DOPC  H14X24472   0.423   8.958  13.215 -0.4865 -1.9124  0.4057
  197DOPC  H14Y24473   0.309   9.075  13.146 -2.0978 -0.3809 -0.7920
  197DOPC  C31524474   0.222   8.968  13.318 -0.4712  0.2031  0.4388
  197DOPC  H15X24475   0.214   8.859  13.338  1.0029 -0.0708 -0.3457
  197DOPC  H15Y24476   0.117   8.992  13.289 -0.3293  2.0679  1.3323
  197DOPC  C31624477   0.279   9.045  13.429 -0.0390  0.3730  0.2001
  197DOPC  H16X24478   0.379   9.011  13.464 -1.3044  0.0477  4.0338
  197DOPC  H16Y24479   0.274   9.153  13.404  1.0076  0.0580 -1.5033
  197DOPC  C31724480   0.191   9.019  13.546 -0.2549 -0.0010  0.0739
  197DOPC  H17X24481   0.088   9.053  13.525 -1.7419 -3.4386  1.0846
  197DOPC  H17Y24482   0.173   8.910  13.554  0.5620 -0.4623 -3.0167
  197DOPC  C31824483   0.238   9.085  13.676 -0.1546 -0.2446 -0.3491
  197DOPC  H18X24484   0.211   9.191  13.657 -0.6232 -0.1116  1.0041
  197DOPC  H18Y24485   0.181   9.051  13.765  1.2183  0.2551  0.7559
  197DOPC  H18Z24486   0.344   9.074  13.707  0.4708 -0.1765 -2.2747
  198DOPC     N24487   0.019   6.595  12.366 -0.2050  0.3290  0.0767
  198DOPC   C1224488   0.016   6.481  12.259  0.5691 -0.1461 -0.4346
  198DOPC  H12A24489   0.080   6.508  12.176 -0.7701  0.4023 -1.3325
  198DOPC  H12B24490  -0.079   6.477  12.208  0.5757 -0.6643 -0.4050
  198DOPC   C1324491   0.143   6.579  12.444 -0.6049 -0.1787 -0.5933
  198DOPC  H13A24492   0.149   6.658  12.517 -2.0421 -0.1601 -0.4700
  198DOPC  H13B24493   0.145   6.486  12.500  3.3006 -0.1916 -0.4708
  198DOPC  H13C24494   0.231   6.582  12.381 -1.6503  3.5025 -2.1264
  198DOPC   C1424495  -0.100   6.593  12.464 -0.3834 -1.0856 -0.5849
  198DOPC  H14A24496  -0.079   6.636  12.561 -0.5141 -2.4816  0.0911
  198DOPC  H14B24497  -0.194   6.633  12.430 -1.0344 -1.6370  0.4933
  198DOPC  H14C24498  -0.126   6.489  12.480 -0.1121 -1.0221  0.3780
  198DOPC   C1524499   0.040   6.728  12.304  0.1232 -0.6141 -0.0329
  198DOPC  H15A24500   0.083   6.800  12.371 -2.5089  0.9665  0.1120
  198DOPC  H15B24501  -0.054   6.770  12.272 -0.3264 -0.1654  1.7785
  198DOPC  H15C24502   0.106   6.723  12.219 -1.0078 -1.3482 -0.9119
  198DOPC   C1124503   0.047   6.339  12.317 -0.1924 -0.1934  0.0207
  198DOPC  H11A24504   0.079   6.265  12.241  0.0075  0.5513 -0.6294
  198DOPC  H11B24505   0.140   6.337  12.377 -0.2495  1.3938  0.2209
  198DOPC     P24506  -0.204   6.266  12.329 -0.1026 -0.0123  0.0178
  198DOPC   O1324507  -0.196   6.291  12.183 -0.6807 -0.0926 -0.7685
  198DOPC   O1424508  -0.305   6.349  12.399  0.0698  0.1074 -0.3253
  198DOPC   O1224509  -0.061   6.283  12.394  0.1248 -0.0474 -1.4359
  198DOPC   O1124510  -0.246   6.112  12.347  0.5023 -0.0153  0.2958
  198DOPC    C124511  -0.192   6.036  12.453  0.4277 -0.3237  0.3582
  198DOPC    HA24512  -0.082   6.042  12.471  0.4302 -1.9752  1.1340
  198DOPC    HB24513  -0.211   5.932  12.420  0.7309  0.6163 -3.1018
  198DOPC    C224514  -0.265   6.058  12.586 -0.1609 -0.0446 -0.0052
  198DOPC    HS24515  -0.371   6.052  12.555 -0.1156  0.2342 -0.2185
  198DOPC   O2124516  -0.223   6.178  12.650 -0.1220 -0.0171  0.0849
  198DOPC   C2124517  -0.320   6.242  12.712 -0.1707  0.3945  0.4440
  198DOPC   O2224518  -0.439   6.210  12.705 -0.2197  0.5848 -0.5107
  198DOPC   C2224519  -0.267   6.357  12.793  0.6253  0.1759 -0.3511
  198DOPC   H2R24520  -0.227   6.438  12.728 -0.2086  0.5297 -0.4373
  198DOPC   H2S24521  -0.191   6.310  12.859 -0.1711  1.6793  1.7489
  198DOPC    C324522  -0.244   5.935  12.682  0.6185 -0.0782  0.2322
  198DOPC    HX24523  -0.136   5.923  12.702  0.8817  0.7840 -0.5586
  198DOPC    HY24524  -0.276   5.841  12.632 -0.6201 -0.4043  1.5645
  198DOPC   O3124525  -0.313   5.945  12.812 -0.2687  0.2804  0.1131
  198DOPC   C3124526  -0.435   5.890  12.806 -0.0817 -0.3992  0.1957
  198DOPC   O3224527  -0.478   5.836  12.710 -0.3831  0.6899  0.7348
  198DOPC   C3224528  -0.506   5.904  12.935  0.3813 -0.1897 -0.6089
  198DOPC   H2X24529  -0.451   5.841  13.008  0.0676 -1.3643 -1.3745
  198DOPC   H2Y24530  -0.506   6.009  12.973  1.0672 -0.1532 -0.6966
  198DOPC   C2324531  -0.367   6.432  12.886 -0.5706 -0.1932 -0.8235
  198DOPC   H3R24532  -0.461   6.466  12.838  0.5582  1.7360 -1.7988
  198DOPC   H3S24533  -0.326   6.527  12.927 -0.3420 -0.3132 -0.7694
  198DOPC   C2424534  -0.408   6.347  13.010 -0.1251 -0.6010  0.2795
  198DOPC   H4R24535  -0.312   6.344  13.065 -0.0185 -1.0654  0.0728
  198DOPC   H4S24536  -0.421   6.240  12.982 -1.9646 -0.5523  0.8145
  198DOPC   C2524537  -0.518   6.407  13.093  0.3149  0.3658  0.1008
  198DOPC   H5R24538  -0.608   6.427  13.030  1.5051 -0.0538 -1.8210
  198DOPC   H5S24539  -0.499   6.510  13.130  1.1588 -0.3022  1.6284
  198DOPC   C2624540  -0.541   6.331  13.220  0.2411  0.4229  0.6130
  198DOPC   H6R24541  -0.443   6.309  13.269  1.0404 -0.7783 -1.3734
  198DOPC   H6S24542  -0.575   6.227  13.202  0.4099  0.6295 -1.1320
  198DOPC   C2724543  -0.631   6.395  13.319 -0.2208 -0.5662 -0.0053
  198DOPC   H7R24544  -0.731   6.407  13.273  0.5081  2.7117 -0.9428
  198DOPC   H7S24545  -0.582   6.494  13.325  1.2461 -1.0563 -2.5978
  198DOPC   C2824546  -0.626   6.324  13.461 -0.0445 -0.2336  1.1536
  198DOPC   H8R24547  -0.572   6.228  13.445 -0.7175 -0.7293  1.7967
  198DOPC   H8S24548  -0.729   6.309  13.501 -0.5742 -1.9591 -0.7223
  198DOPC   C2924549  -0.537   6.410  13.545  0.0420  0.3160 -0.8362
  198DOPC   H9R24550  -0.431   6.380  13.548 -0.5477 -2.0402 -1.3027
  198DOPC  C21024551  -0.581   6.509  13.620  0.0195  1.4027 -0.1973
  198DOPC  H10R24552  -0.509   6.571  13.675  0.2802 -0.2079  1.3770
  198DOPC  C21124553  -0.718   6.555  13.635  0.3471 -0.0250 -0.6623
  198DOPC  H11R24554  -0.771   6.531  13.540  1.5424 -3.4164 -0.5902
  198DOPC  H11S24555  -0.726   6.666  13.638 -1.6340 -0.1168 -1.1069
  198DOPC  C21224556  -0.789   6.500  13.757  0.1002  0.7513 -0.5089
  198DOPC  H12R24557  -0.791   6.389  13.755 -1.5138  0.7397 -0.0141
  198DOPC  H12S24558  -0.897   6.525  13.753 -0.1436  0.2088  1.4662
  198DOPC  C21324559  -0.732   6.567  13.879 -0.4018  0.1881 -0.0295
  198DOPC  H13R24560  -0.705   6.673  13.863  1.6918  0.1167  2.4043
  198DOPC  H13S24561  -0.636   6.524  13.914 -0.4821 -0.1694 -0.2416
  198DOPC  C21424562  -0.823   6.553  14.001 -0.0480  0.1960  0.6981
  198DOPC  H14R24563  -0.857   6.448  14.012  1.4913 -0.1453  2.5557
  198DOPC  H14S24564  -0.917   6.612  13.988 -0.1603 -0.4129 -1.7491
  198DOPC  C21524565  -0.759   6.614  14.131 -0.1958 -0.4757  0.4203
  198DOPC  H15R24566  -0.716   6.715  14.110 -1.1948 -0.0590  0.2934
  198DOPC  H15S24567  -0.672   6.553  14.164  1.6384  1.4586 -0.6057
  198DOPC  C21624568  -0.854   6.632  14.251  0.6990 -0.0226  0.0144
  198DOPC  H16R24569  -0.936   6.701  14.220 -0.9165 -1.2267  1.3730
  198DOPC  H16S24570  -0.808   6.678  14.341  0.1232 -0.9307  0.8001
  198DOPC  C21724571  -0.918   6.496  14.290  0.0681 -0.9179  0.7454
  198DOPC  H17R24572  -0.837   6.430  14.329  3.2471  2.6034  0.6827
  198DOPC  H17S24573  -0.949   6.434  14.203  1.9346 -0.4801 -0.3051
  198DOPC  C21824574  -1.019   6.503  14.403  0.2215  0.0101  0.1464
  198DOPC  H18R24575  -1.019   6.402  14.450 -1.5563 -0.4979 -0.8479
  198DOPC  H18S24576  -1.117   6.547  14.374  0.9723  1.0059 -0.9732
  198DOPC  H18T24577  -0.969   6.572  14.474  2.5852 -0.9270 -0.5302
  198DOPC   C3324578  -0.652   5.861  12.931  1.1353 -0.0453  0.9826
  198DOPC   H3X24579  -0.659   5.760  12.979 -1.9571  0.1095  1.0706
  198DOPC   H3Y24580  -0.702   5.856  12.832  0.1824  0.3452  1.4286
  198DOPC   C3424581  -0.752   5.954  13.021  0.1775  0.2427  0.6347
  198DOPC   H4X24582  -0.760   6.051  12.967 -2.1370  1.0198  2.1982
  198DOPC   H4Y24583  -0.698   5.975  13.116  0.8189 -0.4430  0.4281
  198DOPC   C3524584  -0.885   5.888  13.052  0.8160 -0.1788 -0.5646
  198DOPC   H5X24585  -0.917   5.834  12.960  1.5255 -0.9378 -0.3800
  198DOPC   H5Y24586  -0.962   5.958  13.092 -0.0964 -0.8865 -1.0287
  198DOPC   C3624587  -0.853   5.771  13.154  0.5535 -0.2224 -0.0478
  198DOPC   H6X24588  -0.749   5.775  13.191  1.0862  0.1310 -1.5175
  198DOPC   H6Y24589  -0.924   5.774  13.240 -0.1717  0.8826 -0.6490
  198DOPC   C3724590  -0.875   5.632  13.093 -0.3716  0.2179  0.0217
  198DOPC   H7X24591  -0.977   5.624  13.050 -0.2884  1.7771 -0.5257
  198DOPC   H7Y24592  -0.810   5.625  13.003 -1.1383 -3.1483 -0.4235
  198DOPC   C3824593  -0.844   5.510  13.184  0.0649 -0.0442 -0.2795
  198DOPC   H8X24594  -0.751   5.538  13.238 -0.6637  0.7457  0.5922
  198DOPC   H8Y24595  -0.831   5.417  13.124  0.5036  0.3951 -0.8774
  198DOPC   C3924596  -0.955   5.493  13.277 -0.0124 -0.5290 -0.1849
  198DOPC   H9X24597  -0.981   5.577  13.342  0.1333 -0.8771  0.3276
  198DOPC  C31024598  -1.027   5.377  13.295 -0.0289  0.1661 -0.0574
  198DOPC  H10X24599  -1.106   5.366  13.372  0.5006 -2.3502  0.2138
  198DOPC  C31124600  -1.012   5.252  13.224 -0.7860 -0.2080 -0.4440
  198DOPC  H11X24601  -0.968   5.256  13.122 -0.3975 -2.8700 -0.4579
  198DOPC  H11Y24602  -1.106   5.193  13.220 -1.4920  0.7374  1.1444
  198DOPC  C31224603  -0.904   5.176  13.304  0.4709  0.3327 -0.0469
  198DOPC  H12X24604  -0.937   5.162  13.410 -1.0251  1.8309 -0.2722
  198DOPC  H12Y24605  -0.807   5.229  13.310  0.0732  0.9788  0.8826
  198DOPC  C31324606  -0.878   5.036  13.243 -0.3204  0.1930  0.7684
  198DOPC  H13X24607  -0.968   4.973  13.261  0.0165 -0.0330  1.7378
  198DOPC  H13Y24608  -0.869   5.067  13.137 -1.4125 -0.4179  0.4836
  198DOPC  C31424609  -0.745   4.972  13.284  0.5775  0.4713 -1.3361
  198DOPC  H14X24610  -0.712   4.897  13.208  2.4617 -0.4980  0.3345
  198DOPC  H14Y24611  -0.671   5.054  13.281  0.1858  0.9851  1.0696
  198DOPC  C31524612  -0.750   4.903  13.421 -0.2339  0.9726 -0.4623
  198DOPC  H15X24613  -0.800   4.805  13.412 -0.5746  1.1794 -0.8472
  198DOPC  H15Y24614  -0.810   4.973  13.483 -1.4002  0.5974 -1.1436
  198DOPC  C31624615  -0.612   4.861  13.479 -0.3093 -0.4115 -0.6268
  198DOPC  H16X24616  -0.568   4.796  13.400  1.0221  0.7831 -0.9099
  198DOPC  H16Y24617  -0.560   4.956  13.505 -0.6821 -1.0174  2.8383
  198DOPC  C31724618  -0.611   4.773  13.601 -0.0391  0.2399  0.0305
  198DOPC  H17X24619  -0.658   4.678  13.571  0.0873  0.1300  0.1779
  198DOPC  H17Y24620  -0.510   4.727  13.614  0.6239  1.7169  0.3271
  198DOPC  C31824621  -0.678   4.833  13.722  0.7109 -0.0676  0.8212
  198DOPC  H18X24622  -0.783   4.855  13.695  1.2535  1.0895 -0.5068
  198DOPC  H18Y24623  -0.690   4.757  13.802  1.2994 -1.4716 -0.3701
  198DOPC  H18Z24624  -0.629   4.922  13.767  2.0138  0.1776 -0.9481
  199DOPC     N24625   6.279   8.100  12.264  0.0327 -0.1458  0.5117
  199DOPC   C1224626   6.408   8.078  12.344  0.1238  0.6105  0.4144
  199DOPC  H12A24627   6.463   8.169  12.362  1.1033 -0.5079  3.6164
  199DOPC  H12B24628   6.471   8.010  12.288 -0.6357  1.8420 -2.1132
  199DOPC   C1324629   6.198   8.211  12.325 -0.3387  0.4204  0.6915
  199DOPC  H13A24630   6.150   8.193  12.420 -1.6263  0.5251  0.0815
  199DOPC  H13B24631   6.257   8.301  12.336  1.4050 -0.3908 -1.3273
  199DOPC  H13C24632   6.109   8.238  12.270  0.9896  1.6377 -0.9724
  199DOPC   C1424633   6.198   7.976  12.256 -0.6568  0.4578 -0.1157
  199DOPC  H14A24634   6.156   7.957  12.354  1.3938  2.1458  1.1890
  199DOPC  H14B24635   6.121   7.972  12.181 -0.0264  1.5345 -0.8368
  199DOPC  H14C24636   6.271   7.898  12.243  0.8351  1.6769  0.6783
  199DOPC   C1524637   6.320   8.123  12.123  0.3337 -0.4547  0.1037
  199DOPC  H15A24638   6.385   8.043  12.090  0.2682  0.2251 -1.8029
  199DOPC  H15B24639   6.371   8.218  12.116 -0.2142 -0.0864  0.9850
  199DOPC  H15C24640   6.231   8.128  12.062 -0.4059 -1.9391  1.0178
  199DOPC   C1124641   6.387   8.024  12.489 -0.0271  0.7411  1.2037
  199DOPC  H11A24642   6.481   8.032  12.548 -0.2933  2.0882  1.4818
  199DOPC  H11B24643   6.312   8.090  12.537 -1.6787  0.0324 -0.2872
  199DOPC     P24644   6.407   7.760  12.514 -0.2487 -0.1046 -0.2154
  199DOPC   O1324645   6.557   7.787  12.520 -0.3066 -0.0853 -0.1815
  199DOPC   O1424646   6.359   7.647  12.427  0.0026 -0.1429 -0.3992
  199DOPC   O1224647   6.328   7.893  12.489 -0.4463  0.1484  0.3744
  199DOPC   O1124648   6.361   7.719  12.655  0.0880  0.6522 -0.1954
  199DOPC    C124649   6.239   7.775  12.705  0.4488  0.4468 -0.3767
  199DOPC    HA24650   6.175   7.699  12.756 -1.1264  1.8152 -0.2274
  199DOPC    HB24651   6.166   7.803  12.626 -1.2296 -2.3819  0.0265
  199DOPC    C224652   6.251   7.895  12.801 -0.5064 -0.7132 -0.0850
  199DOPC    HS24653   6.312   7.969  12.745 -1.2505  0.9095  1.1721
  199DOPC   O2124654   6.311   7.857  12.923  0.2583  0.1655  0.2322
  199DOPC   C2124655   6.378   7.944  12.985 -0.6959  0.2472 -0.1764
  199DOPC   O2224656   6.402   8.055  12.943 -0.5269  0.2123 -0.1350
  199DOPC   C2224657   6.426   7.891  13.116 -0.0139  0.1549 -0.1246
  199DOPC   H2R24658   6.436   7.781  13.099 -2.3804 -0.4972  2.0078
  199DOPC   H2S24659   6.337   7.907  13.180 -0.1547  0.5048 -0.4073
  199DOPC    C324660   6.114   7.955  12.831 -0.0310 -0.4617 -0.0822
  199DOPC    HX24661   6.048   7.878  12.877 -1.4658  0.0098 -1.2484
  199DOPC    HY24662   6.056   7.981  12.739 -0.5444 -0.0463  0.3534
  199DOPC   O3124663   6.112   8.067  12.920  0.8066  0.2758  0.1644
  199DOPC   C3124664   6.127   8.182  12.873 -0.4691  0.3568 -0.5673
  199DOPC   O3224665   6.159   8.215  12.761  0.3843  0.1085  0.1734
  199DOPC   C3224666   6.094   8.280  12.993  0.1905  0.5272 -0.0174
  199DOPC   H2X24667   5.983   8.291  12.992 -0.0580 -1.5811 -0.7201
  199DOPC   H2Y24668   6.111   8.232  13.092  2.7336  1.3999  0.0467
  199DOPC   C2324669   6.550   7.955  13.165 -0.6343 -0.3262  0.1545
  199DOPC   H3R24670   6.620   7.956  13.079 -1.3985 -1.4923 -0.5168
  199DOPC   H3S24671   6.602   7.883  13.232  0.2572 -1.3100 -1.5106
  199DOPC   C2424672   6.534   8.091  13.233  0.7206  0.1987 -0.3308
  199DOPC   H4R24673   6.493   8.162  13.159  2.1501  1.4092 -0.0070
  199DOPC   H4S24674   6.635   8.133  13.254  0.2227  1.1126  0.2830
  199DOPC   C2524675   6.444   8.096  13.362  0.2973 -0.1434  0.7617
  199DOPC   H5R24676   6.490   8.028  13.437  0.0482 -0.8127  0.3210
  199DOPC   H5S24677   6.341   8.062  13.339 -0.3462  2.0718  0.1946
  199DOPC   C2624678   6.448   8.236  13.420  0.7349 -0.6928  0.4831
  199DOPC   H6R24679   6.397   8.302  13.347  1.8176 -2.0705 -1.6150
  199DOPC   H6S24680   6.556   8.265  13.419  0.7858 -0.8493 -0.7034
  199DOPC   C2724681   6.386   8.270  13.556  0.1961 -0.1881  0.1736
  199DOPC   H7R24682   6.287   8.219  13.550  0.1835  0.0348 -2.4797
  199DOPC   H7S24683   6.371   8.378  13.577  1.6380 -0.0995  0.8719
  199DOPC   C2824684   6.458   8.201  13.674 -0.4701  0.4649  0.5902
  199DOPC   H8R24685   6.481   8.098  13.638  1.6104  1.4056 -1.0338
  199DOPC   H8S24686   6.382   8.194  13.754 -2.7683  0.2204 -1.4987
  199DOPC   C2924687   6.597   8.244  13.713 -0.1106 -0.2591 -0.3528
  199DOPC   H9R24688   6.659   8.283  13.631 -1.0021  1.6454 -0.1605
  199DOPC  C21024689   6.636   8.272  13.833 -0.3076 -0.6416 -0.0309
  199DOPC  H10R24690   6.739   8.306  13.852 -0.1141 -1.6281  0.7884
  199DOPC  C21124691   6.556   8.265  13.957  0.2351  0.8280 -0.9017
  199DOPC  H11R24692   6.590   8.178  14.017  2.4015  1.7663 -0.6682
  199DOPC  H11S24693   6.447   8.253  13.943  0.4057 -1.9807 -0.3761
  199DOPC  C21224694   6.574   8.391  14.055 -0.0769  0.7739  0.2383
  199DOPC  H12R24695   6.528   8.480  14.008  0.3913 -0.4352 -2.7393
  199DOPC  H12S24696   6.683   8.403  14.070  0.1583  0.1463 -0.8627
  199DOPC  C21324697   6.495   8.365  14.183 -0.0316  0.3830 -0.1714
  199DOPC  H13R24698   6.480   8.258  14.207  0.8089  0.3007  0.0020
  199DOPC  H13S24699   6.403   8.427  14.176  0.4949  1.0680 -1.5209
  199DOPC  C21424700   6.566   8.425  14.300  0.5369 -0.0579  0.2521
  199DOPC  H14R24701   6.607   8.523  14.268 -0.1972  1.7075  4.1717
  199DOPC  H14S24702   6.648   8.359  14.337 -0.2619  0.7561  3.8785
  199DOPC  C21524703   6.479   8.454  14.428  0.0102 -0.0340  0.5896
  199DOPC  H15R24704   6.434   8.361  14.468 -1.3341  0.7889  1.0819
  199DOPC  H15S24705   6.397   8.523  14.397  1.5724  1.1347 -1.1571
  199DOPC  C21624706   6.555   8.543  14.530 -0.1342 -0.2761  0.4216
  199DOPC  H16R24707   6.588   8.643  14.495  0.0473 -0.1091  1.0568
  199DOPC  H16S24708   6.648   8.494  14.567 -0.7326  0.4042  3.0722
  199DOPC  C21724709   6.456   8.554  14.649  0.2839 -0.2331 -0.2186
  199DOPC  H17R24710   6.402   8.458  14.664 -1.9742  0.4348 -3.1785
  199DOPC  H17S24711   6.379   8.631  14.627  0.7333  0.3994  0.3450
  199DOPC  C21824712   6.530   8.598  14.772 -0.2313 -0.1227 -0.3104
  199DOPC  H18R24713   6.469   8.606  14.865  1.7660  0.5726  0.9933
  199DOPC  H18S24714   6.572   8.697  14.744 -1.1874  0.9044  1.6645
  199DOPC  H18T24715   6.604   8.521  14.801  1.6403  0.8901 -2.1220
  199DOPC   C3324716   6.169   8.411  12.985  0.4338  0.2072 -0.5419
  199DOPC   H3X24717   6.142   8.469  13.076  0.5429 -1.2684  0.4580
  199DOPC   H3Y24718   6.147   8.463  12.889  1.0528 -0.1712 -0.8910
  199DOPC   C3424719   6.318   8.386  12.997 -0.1888  0.0270  0.0775
  199DOPC   H4X24720   6.355   8.310  12.925 -0.9873  0.2426 -0.5744
  199DOPC   H4Y24721   6.339   8.344  13.098  0.1844 -1.6607 -0.6782
  199DOPC   C3524722   6.415   8.510  12.983  0.2845  0.1849  0.3846
  199DOPC   H5X24723   6.410   8.529  12.874 -0.0437 -0.0583  0.3535
  199DOPC   H5Y24724   6.518   8.487  13.018 -0.5684 -1.7394  1.8663
  199DOPC   C3624725   6.375   8.636  13.067  0.5268 -0.2919 -0.2163
  199DOPC   H6X24726   6.266   8.639  13.091  0.7839  1.8220  0.9790
  199DOPC   H6Y24727   6.415   8.631  13.171 -1.0610 -0.8130  0.4093
  199DOPC   C3724728   6.412   8.774  13.003  0.5675  0.3333  0.0132
  199DOPC   H7X24729   6.507   8.770  12.946  0.5509 -0.1291  0.0172
  199DOPC   H7Y24730   6.336   8.781  12.922 -0.8277 -0.1415  1.2352
  199DOPC   C3824731   6.397   8.892  13.100 -0.0600 -0.1310 -0.0367
  199DOPC   H8X24732   6.460   8.973  13.057  2.5471 -1.2276  1.4920
  199DOPC   H8Y24733   6.460   8.854  13.183  0.7496  0.7993 -0.2003
  199DOPC   C3924734   6.255   8.923  13.144  0.3070  0.3294  0.2665
  199DOPC   H9X24735   6.176   8.932  13.068  0.2387 -1.3154  0.1026
  199DOPC  C31024736   6.217   8.949  13.272 -0.1114  0.3662  0.0193
  199DOPC  H10X24737   6.112   8.938  13.303  0.2618  0.1746  1.2566
  199DOPC  C31124738   6.310   8.960  13.391 -0.0736 -0.2254 -0.7551
  199DOPC  H11X24739   6.345   9.066  13.388 -2.1725  0.4958 -1.8275
  199DOPC  H11Y24740   6.401   8.898  13.381  1.2026  1.3162  0.6867
  199DOPC  C31224741   6.249   8.926  13.524  0.7017  0.3164 -0.4027
  199DOPC  H12X24742   6.334   8.937  13.595  1.7035  0.3505 -1.5645
  199DOPC  H12Y24743   6.223   8.819  13.510 -0.2081  0.4314  0.3407
  199DOPC  C31324744   6.139   9.025  13.575 -0.0784  0.0615 -0.2681
  199DOPC  H13X24745   6.183   9.122  13.542 -1.4479  0.4865 -0.9169
  199DOPC  H13Y24746   6.043   9.007  13.522  0.4270  1.2114 -1.6288
  199DOPC  C31424747   6.113   9.014  13.723 -0.5830 -0.0767 -0.2862
  199DOPC  H14X24748   6.066   8.918  13.752 -0.8289  0.2118  0.2932
  199DOPC  H14Y24749   6.208   9.031  13.777  0.0843 -1.8508 -0.8691
  199DOPC  C31524750   6.012   9.118  13.762 -0.1203  0.4227  0.1091
  199DOPC  H15X24751   5.915   9.101  13.712 -0.2176 -1.2120  0.7899
  199DOPC  H15Y24752   6.051   9.219  13.736  1.7321  0.4331  2.5077
  199DOPC  C31624753   5.981   9.104  13.913 -0.5985 -0.5772  0.0447
  199DOPC  H16X24754   5.926   9.010  13.930  0.0272 -1.5732 -2.8401
  199DOPC  H16Y24755   6.080   9.100  13.965 -0.3058  0.9846 -0.3389
  199DOPC  C31724756   5.890   9.224  13.951 -0.1064  0.6500  0.0134
  199DOPC  H17X24757   5.952   9.315  13.945 -0.0681  0.7447  1.5242
  199DOPC  H17Y24758   5.817   9.242  13.869  0.6398  0.3625 -0.7291
  199DOPC  C31824759   5.842   9.223  14.092  0.2999 -0.7890  0.0638
  199DOPC  H18X24760   5.774   9.136  14.109  1.3088 -1.3509  1.4065
  199DOPC  H18Y24761   5.928   9.217  14.161 -0.8684  1.6711  1.8631
  199DOPC  H18Z24762   5.792   9.315  14.127  1.1168 -0.8279  1.3891
  200DOPC     N24763   1.769   1.698  12.275  0.0485  0.3719 -0.2830
  200DOPC   C1224764   1.671   1.606  12.204  0.5188 -0.7745  0.4466
  200DOPC  H12A24765   1.635   1.654  12.114 -0.6070 -0.2564  1.1442
  200DOPC  H12B24766   1.591   1.589  12.275 -1.0946  1.4407 -0.7153
  200DOPC   C1324767   1.820   1.624  12.397  0.1905  0.5488  0.5548
  200DOPC  H13A24768   1.888   1.546  12.366 -1.8498 -2.3746  2.8920
  200DOPC  H13B24769   1.877   1.696  12.454  4.4292  0.0974 -2.6036
  200DOPC  H13C24770   1.735   1.575  12.442 -1.1190  0.0092 -2.2630
  200DOPC   C1424771   1.689   1.812  12.331  0.2991 -1.3010 -0.5457
  200DOPC  H14A24772   1.644   1.879  12.259  1.5327  0.1965  0.0134
  200DOPC  H14B24773   1.626   1.791  12.416  1.1509 -0.1578  0.3998
  200DOPC  H14C24774   1.755   1.882  12.379  0.0633 -0.2797 -1.6615
  200DOPC   C1524775   1.878   1.740  12.185  0.3976 -0.0999  0.1747
  200DOPC  H15A24776   1.845   1.820  12.119  3.1480  3.6886  2.9854
  200DOPC  H15B24777   1.921   1.657  12.132  0.5413 -0.7743  1.3310
  200DOPC  H15C24778   1.948   1.785  12.253 -1.1432  1.4243  0.8388
  200DOPC   C1124779   1.726   1.464  12.164 -0.0593 -0.3346 -0.0818
  200DOPC  H11A24780   1.649   1.429  12.092 -1.0464  0.8861  0.3467
  200DOPC  H11B24781   1.821   1.478  12.108  0.5829  1.7407  1.4029
  200DOPC     P24782   1.621   1.325  12.366  0.2485  0.1884 -0.0131
  200DOPC   O1324783   1.616   1.181  12.374 -0.6901 -0.2889 -0.4227
  200DOPC   O1424784   1.501   1.394  12.320 -0.1431  0.0292  0.2024
  200DOPC   O1224785   1.746   1.368  12.269 -0.0162 -0.2307 -0.1075
  200DOPC   O1124786   1.658   1.396  12.496 -0.0419  0.3307 -0.0296
  200DOPC    C124787   1.757   1.355  12.585  0.8332  0.2244 -0.5879
  200DOPC    HA24788   1.840   1.429  12.585  1.1701 -0.1507 -0.4266
  200DOPC    HB24789   1.784   1.250  12.559 -0.0046 -1.0434  3.0403
  200DOPC    C224790   1.706   1.357  12.733  0.1734  0.0553  0.1722
  200DOPC    HS24791   1.630   1.277  12.747  0.0353  0.6383  3.4022
  200DOPC   O2124792   1.657   1.488  12.767 -0.0000 -0.1930 -0.1458
  200DOPC   C2124793   1.526   1.508  12.730  0.0204 -0.1717  0.4392
  200DOPC   O2224794   1.453   1.420  12.690 -0.4650  0.1365 -0.1765
  200DOPC   C2224795   1.490   1.648  12.750  0.0889  0.6784 -0.3525
  200DOPC   H2R24796   1.391   1.668  12.702  0.8033  2.9570 -1.0229
  200DOPC   H2S24797   1.566   1.715  12.706  1.2983  0.7426  1.7286
  200DOPC    C324798   1.821   1.327  12.837  0.2269  0.8435  0.2010
  200DOPC    HX24799   1.798   1.354  12.942 -1.1265  0.2164  0.0870
  200DOPC    HY24800   1.906   1.391  12.806  0.7364 -0.4706 -1.2672
  200DOPC   O3124801   1.860   1.191  12.828  0.3903  0.3246  0.1687
  200DOPC   C3124802   1.977   1.157  12.889  0.0144 -0.7896 -0.0427
  200DOPC   O3224803   2.042   1.235  12.956 -0.7524  0.1185  0.0110
  200DOPC   C3224804   1.996   1.010  12.883 -0.8945  1.1970 -0.2523
  200DOPC   H2X24805   2.000   0.974  12.778  0.1563 -0.9799  0.4687
  200DOPC   H2Y24806   2.098   0.985  12.919 -2.3122 -2.2845  1.8089
  200DOPC   C2324807   1.488   1.683  12.901 -0.7324 -0.0726  0.0613
  200DOPC   H3R24808   1.477   1.793  12.904 -0.5025 -0.0163 -0.8889
  200DOPC   H3S24809   1.587   1.651  12.941 -0.3108 -0.8001 -1.5025
  200DOPC   C2424810   1.384   1.603  12.985  0.2683 -0.1389 -0.8744
  200DOPC   H4R24811   1.396   1.493  12.979  1.1729 -0.1534  0.5758
  200DOPC   H4S24812   1.285   1.635  12.945 -0.9352 -0.7436  1.4261
  200DOPC   C2524813   1.360   1.631  13.140  0.0192 -0.0834 -0.0733
  200DOPC   H5R24814   1.342   1.739  13.160  0.8425 -0.3581  2.4941
  200DOPC   H5S24815   1.462   1.615  13.182 -0.6647 -3.1544  0.6396
  200DOPC   C2624816   1.249   1.544  13.205  0.8129  0.3923 -0.5164
  200DOPC   H6R24817   1.273   1.443  13.166 -0.3280 -0.8233  1.7237
  200DOPC   H6S24818   1.147   1.574  13.173  0.6400  0.0146 -0.3276
  200DOPC   C2724819   1.265   1.554  13.357  0.3279  0.1408 -0.4200
  200DOPC   H7R24820   1.237   1.657  13.390 -0.1478 -0.4232  0.9966
  200DOPC   H7S24821   1.368   1.529  13.390 -0.4333 -1.8986  0.5809
  200DOPC   C2824822   1.184   1.434  13.423 -0.1635 -0.0066 -0.1131
  200DOPC   H8R24823   1.203   1.339  13.369  1.8665 -1.2456  2.5189
  200DOPC   H8S24824   1.075   1.448  13.410 -0.5025 -1.7385  0.5024
  200DOPC   C2924825   1.210   1.427  13.570  0.3061 -0.3883 -0.5737
  200DOPC   H9R24826   1.197   1.525  13.619 -1.8406 -0.5781 -0.6404
  200DOPC  C21024827   1.247   1.317  13.637 -0.0471 -0.7817  0.0282
  200DOPC  H10R24828   1.261   1.334  13.745 -1.5613  0.8083  0.0092
  200DOPC  C21124829   1.266   1.169  13.592  0.0093 -0.4309 -0.2844
  200DOPC  H11R24830   1.321   1.115  13.672 -1.1603  1.3183  1.8146
  200DOPC  H11S24831   1.324   1.170  13.497  2.4202 -1.2475  1.0840
  200DOPC  C21224832   1.136   1.091  13.569 -0.4595  0.3212  0.2685
  200DOPC  H12R24833   1.056   1.153  13.524 -0.7372 -0.7844 -0.8103
  200DOPC  H12S24834   1.099   1.044  13.663 -0.2786 -1.6015 -0.5681
  200DOPC  C21324835   1.147   0.974  13.471 -0.3651 -0.5692 -0.0147
  200DOPC  H13R24836   1.221   0.899  13.506  0.9186 -1.3739 -3.9896
  200DOPC  H13S24837   1.189   1.005  13.373  0.4345  0.8039  0.7379
  200DOPC  C21424838   1.012   0.895  13.467 -0.5148 -0.5933  0.5759
  200DOPC  H14R24839   0.926   0.953  13.427 -0.7927 -0.6168  1.1376
  200DOPC  H14S24840   0.980   0.874  13.571 -0.4177 -2.1270  0.3306
  200DOPC  C21524841   1.014   0.764  13.382  0.3464 -0.0045  0.4333
  200DOPC  H15R24842   1.096   0.693  13.407  0.0126 -1.2661 -1.8021
  200DOPC  H15S24843   1.026   0.801  13.278 -3.1343 -0.5363 -0.2949
  200DOPC  C21624844   0.882   0.678  13.385  0.0347 -0.5079  0.4973
  200DOPC  H16R24845   0.878   0.635  13.487 -2.2580 -1.2877  0.1407
  200DOPC  H16S24846   0.885   0.603  13.304 -1.1367  1.0853 -1.0954
  200DOPC  C21724847   0.750   0.756  13.368  0.5677  0.3072  0.2295
  200DOPC  H17R24848   0.785   0.839  13.304  1.2906  0.3082  0.6167
  200DOPC  H17S24849   0.715   0.771  13.473 -0.5557 -0.1016 -0.0632
  200DOPC  C21824850   0.645   0.659  13.306 -0.9768  0.4120  0.5738
  200DOPC  H18R24851   0.702   0.581  13.250 -0.4148  1.4763 -0.3863
  200DOPC  H18S24852   0.571   0.710  13.240 -0.9568 -0.0162  0.2098
  200DOPC  H18T24853   0.592   0.607  13.389 -0.0588  0.2327  1.0528
  200DOPC   C3324854   1.888   0.943  12.956 -0.0298 -0.0032 -0.5222
  200DOPC   H3X24855   1.786   0.973  12.925 -0.0094  1.8025  0.9745
  200DOPC   H3Y24856   1.894   0.960  13.066 -0.2887 -0.1963 -0.4766
  200DOPC   C3424857   1.904   0.794  12.951 -0.1635  0.1981  0.1769
  200DOPC   H4X24858   2.013   0.776  12.962  0.3302  2.1899 -1.0139
  200DOPC   H4Y24859   1.897   0.760  12.845  1.7577  1.3952 -0.3716
  200DOPC   C3524860   1.824   0.710  13.046 -0.4712 -0.7317 -0.6033
  200DOPC   H5X24861   1.719   0.746  13.040  0.7607  3.0814 -2.0249
  200DOPC   H5Y24862   1.859   0.735  13.148  2.2238 -0.3365 -1.5600
  200DOPC   C3624863   1.854   0.563  13.020 -0.3071 -0.2681 -0.0213
  200DOPC   H6X24864   1.808   0.530  12.924 -0.7297 -0.2645  0.1781
  200DOPC   H6Y24865   1.962   0.537  13.020 -0.3111 -0.2855 -0.1596
  200DOPC   C3724866   1.789   0.478  13.128 -0.6367 -0.4876  0.2687
  200DOPC   H7X24867   1.856   0.493  13.216  1.6783 -3.1716 -0.8871
  200DOPC   H7Y24868   1.689   0.520  13.150  0.9656  3.6925  0.6016
  200DOPC   C3824869   1.794   0.324  13.103  0.1709 -0.2059 -0.4783
  200DOPC   H8X24870   1.751   0.305  13.002 -1.5749  1.9697 -0.2211
  200DOPC   H8Y24871   1.725   0.277  13.177  1.4417 -2.2259 -0.5264
  200DOPC   C3924872   1.926   0.246  13.119 -0.4331 -0.6853  0.3127
  200DOPC   H9X24873   1.990   0.262  13.031 -0.3214  0.4109  0.5887
  200DOPC  C31024874   1.973   0.171  13.220 -0.2407 -0.5106  0.1216
  200DOPC  H10X24875   2.073   0.125  13.214 -0.9093 -2.1702  1.0442
  200DOPC  C31124876   1.902   0.145  13.352 -0.0594  0.8788  0.4932
  200DOPC  H11X24877   1.837   0.056  13.339 -1.1165  1.4229  1.7595
  200DOPC  H11Y24878   1.832   0.226  13.381 -1.0651  0.3194 -0.3149
  200DOPC  C31224879   1.990   0.104  13.469  0.1351  0.3897  0.3084
  200DOPC  H12X24880   2.056   0.191  13.488  1.3276 -0.2272 -0.8131
  200DOPC  H12Y24881   2.053   0.016  13.444  0.9980  0.5922  1.6656
  200DOPC  C31324882   1.904   0.076  13.601  0.3422 -0.2361  0.0559
  200DOPC  H13X24883   1.871   0.178  13.627 -0.4702 -0.0888 -1.4304
  200DOPC  H13Y24884   1.819   0.012  13.568 -0.1816  0.2164  0.5201
  200DOPC  C31424885   1.989   0.012  13.718 -0.2632 -0.4853  0.3219
  200DOPC  H14X24886   2.059  -0.069  13.691 -0.9055 -1.0969  0.4826
  200DOPC  H14Y24887   2.056   0.089  13.762 -0.4746  0.6483 -1.2357
  200DOPC  C31524888   1.912  -0.054  13.833  0.7178 -0.1025 -0.2006
  200DOPC  H15X24889   1.849  -0.134  13.788  1.7866 -0.6591 -0.7460
  200DOPC  H15Y24890   1.855   0.028  13.882 -0.3139 -0.6691 -0.4199
  200DOPC  C31624891   2.014  -0.124  13.922 -0.2161  0.1381  0.3740
  200DOPC  H16X24892   2.057  -0.204  13.857  0.7356 -0.2473  1.4516
  200DOPC  H16Y24893   2.091  -0.054  13.959  0.3857 -0.3985  0.1717
  200DOPC  C31724894   1.943  -0.201  14.040  0.3270 -0.1003  0.0450
  200DOPC  H17X24895   1.914  -0.125  14.117  0.4563  0.9961 -0.9554
  200DOPC  H17Y24896   1.854  -0.259  14.010  0.6089 -1.5649  1.8525
  200DOPC  C31824897   2.035  -0.284  14.126 -0.0008  0.4744 -0.5115
  200DOPC  H18X24898   1.999  -0.308  14.228  0.5485 -0.0312 -0.4321
  200DOPC  H18Y24899   2.055  -0.377  14.067  1.5728 -0.3527  1.2014
  200DOPC  H18Z24900   2.139  -0.246  14.137  0.2211 -0.5105  1.1297
  201SOD    SOD24901   4.377   3.221  17.336 -0.0899  0.3430  0.3100
  202SOD    SOD24902   4.713   4.398  12.438  0.3278 -0.2083  0.1907
  203SOD    SOD24903   0.381   0.186  15.916 -0.2245  0.1405 -0.6355
  204SOD    SOD24904   1.092   0.624  12.241  0.4808 -0.0256 -0.2660
  205SOD    SOD24905   0.782   1.659  16.559  0.2938  0.2393  0.0854
  206SOD    SOD24906   5.251   4.740  10.971  0.1444 -0.3862  0.1263
  207SOD    SOD24907   1.068   1.864  11.183  0.2575 -0.6973 -0.0916
  208SOD    SOD24908   3.942   4.784  16.924 -0.3852 -0.0690  0.2973
  209SOD    SOD24909   6.869   4.652  12.086 -0.1667 -0.1667  0.1807
  210SOD    SOD24910   7.897   6.555  16.598 -0.5897  0.1003 -0.2580
  211SOD    SOD24911   2.266   6.116  16.202 -0.6239 -0.2990  0.2923
  212SOD    SOD24912   0.506   2.285  17.027  0.4075 -0.0916 -0.1462
  213SOD    SOD24913   3.936   1.268  11.318  0.3118  0.5160  0.2206
  214SOD    SOD24914   1.593   1.174  17.193 -0.6750  0.6522  0.3789
  215SOD    SOD24915   6.516   8.119  15.713  0.2815  0.9021  0.1190
  216SOD    SOD24916   2.355   3.671  16.771  0.1139  0.7067 -0.2631
  217SOD    SOD24917   2.943   1.524  11.217 -0.3877 -0.0151 -0.2762
  218SOD    SOD24918   4.766   2.374  16.260  0.2156  0.1540 -0.0760
  219SOD    SOD24919   0.412   5.940  16.876  0.0145  0.1102  0.3563
  220SOD    SOD24920   3.925   2.351  11.221  0.3936  0.1028 -0.0314
  221SOD    SOD24921   4.323   3.640  11.225  0.0629  0.3540  0.0412
  222SOD    SOD24922   2.304   2.159  15.985 -0.5086  0.2526  0.0118
  223SOD    SOD24923   6.863   0.352  11.857 -0.2877 -0.0185  0.1163
  224SOD    SOD24924   8.181   0.429  11.170 -0.1168 -0.4442 -0.5486
  225SOD    SOD24925   1.984   2.700  12.011  0.3358  0.3231  0.1557
  226SOD    SOD24926   0.634   5.299  17.004 -0.2398  0.0588  0.1482
  227CLA    CLA24927   1.114   6.461  11.610 -0.2458 -0.5786 -0.0047
  228CLA    CLA24928   4.065   7.255  12.253 -0.0191  0.2085 -0.1411
  229CLA    CLA24929   4.762   3.693  11.454  0.4910 -0.1402  0.2278
  230CLA    CLA24930   3.872   2.119  16.529 -0.4767  0.0375 -0.4281
  231CLA    CLA24931   4.158   7.288  17.512  0.0092  0.1027 -0.0997
  232CLA    CLA24932   0.353   6.664  16.990 -0.1325  0.1188 -0.5390
  233CLA    CLA24933   7.426   6.707  17.100 -0.6392  0.1204  0.2200
  234CLA    CLA24934   0.199   2.991  16.126 -0.3137  0.1691  0.5583
  235CLA    CLA24935   7.006   0.559  11.759  0.0130  0.1637 -0.0202
  236CLA    CLA24936   6.968   8.003  16.554  0.4199 -0.2031 -0.0428
  237CLA    CLA24937   3.203   7.220  17.251  0.2491 -0.5406  0.1443
  238CLA    CLA24938   1.162   1.588  12.097 -0.0908 -0.3379 -0.0031
  239CLA    CLA24939   7.976   3.707  11.471 -0.4011 -0.0250 -0.0285
  240CLA    CLA24940   2.427   8.401  16.487 -0.0627 -0.5646  0.3074
  241CLA    CLA24941   3.929   5.223  11.674  0.4889 -0.0177 -0.2946
  242CLA    CLA24942   7.899   6.540  17.061 -0.1221 -0.1232  0.1206
  243CLA    CLA24943   5.539   1.502  11.084 -0.4465  0.1192  0.4754
  244CLA    CLA24944   4.397   3.130  11.025 -0.0009  0.3801 -0.3951
  245CLA    CLA24945   5.325   4.843  11.200  0.6758  0.3220 -0.0433
  246CLA    CLA24946   1.773   2.144  16.041 -0.0956  0.1553 -0.2911
  247CLA    CLA24947   0.893   1.430  11.188  0.0466 -0.1314 -0.0524
  248CLA    CLA24948   5.721   2.812  11.597 -0.1774  0.2021 -0.3514
  249CLA    CLA24949   1.063   0.455  10.789  0.4330 -0.1185  0.0814
  250CLA    CLA24950   3.384   7.635  16.329 -0.1150  0.0553 -0.2390
  251CLA    CLA24951   0.935   5.569  16.479  0.2242  0.2295  0.2680
  252CLA    CLA24952   5.348   6.717  11.890  0.2253  0.2846  0.0966
  253TIP3   OH224953   4.150   1.656  17.208 -0.0570  0.3384  0.0183
  253TIP3    H124954   4.228   1.656  17.153  1.5699  1.3830  2.1569
  253TIP3    H224955   4.149   1.569  17.248  0.9359  0.8094  1.1282
  254TIP3   OH224956   7.973   2.174  16.099  0.3835 -0.4548  0.1396
  254TIP3    H124957   7.907   2.196  16.033  0.4254 -0.9442 -0.0714
  254TIP3    H224958   8.057   2.187  16.055  0.6068  3.0964  1.2716
  255TIP3   OH224959   7.363   2.587  17.053 -0.2309  0.5212  0.0662
  255TIP3    H124960   7.390   2.605  17.143  0.7098  0.9126 -0.2890
  255TIP3    H224961   7.432   2.623  16.999 -1.6739  1.9551 -0.8963
  256TIP3   OH224962   4.289   7.624  16.990 -0.1372  0.0944  0.1558
  256TIP3    H124963   4.229   7.699  16.998  1.6294  1.6707 -0.5878
  256TIP3    H224964   4.252   7.558  17.049 -1.1121  2.0047  1.8402
  257TIP3   OH224965   7.692   4.996  16.653  0.1562  0.1709  0.1740
  257TIP3    H124966   7.670   5.024  16.564 -0.9157  1.4951  0.8139
  257TIP3    H224967   7.617   4.943  16.680  0.3844 -0.0591  0.3446
  258TIP3   OH224968   4.233   5.406  16.477  0.1382 -0.1351  0.3265
  258TIP3    H124969   4.196   5.492  16.454  1.4206  0.6013  0.8817
  258TIP3    H224970   4.159   5.346  16.471 -1.0491  1.1954  0.9388
  259TIP3   OH224971   1.655   7.306  17.694 -0.1585  0.5195  0.4559
  259TIP3    H124972   1.654   7.214  17.666  2.7352  0.6892 -0.5296
  259TIP3    H224973   1.658   7.355  17.612  0.5659  1.3901  0.9907
  260TIP3   OH224974   1.657   3.184  16.734  0.3546 -0.2824  0.0055
  260TIP3    H124975   1.683   3.132  16.658  0.4287  1.1398 -0.9907
  260TIP3    H224976   1.591   3.132  16.778  0.1206 -1.0318 -1.1943
  261TIP3   OH224977   3.435   7.671  17.050 -0.3418  0.6695  0.1432
  261TIP3    H124978   3.522   7.663  17.088 -1.4443  0.3426  2.8041
  261TIP3    H224979   3.378   7.696  17.123 -2.5769  0.4779 -1.3988
  262TIP3   OH224980   8.175   7.293  17.296 -0.0106 -0.2466 -0.3301
  262TIP3    H124981   8.258   7.252  17.323 -0.2009 -0.5933 -0.2580
  262TIP3    H224982   8.187   7.386  17.314 -0.1516 -0.4625  1.0455
  263TIP3   OH224983   5.749   7.860  18.370 -0.1193 -0.3676  0.0034
  263TIP3    H124984   5.748   7.946  18.328 -0.6831  0.3877  1.5077
  263TIP3    H224985   5.670   7.858  18.424 -0.6742 -2.2544 -0.7743
  264TIP3   OH224986   4.098   5.427  17.186  0.8318  0.2777  0.0222
  264TIP3    H124987   4.089   5.499  17.250 -3.1385 -0.4514  0.5454
  264TIP3    H224988   4.074   5.467  17.103 -1.9171 -0.3807  0.3961
  265TIP3   OH224989   3.152   6.641  17.702 -0.1871 -0.7417  0.4667
  265TIP3    H124990   3.160   6.735  17.721 -1.1908 -0.4828 -0.2820
  265TIP3    H224991   3.234   6.618  17.659 -0.3256  0.0359 -0.2413
  266TIP3   OH224992   6.433   6.098  16.342 -0.5743  0.3693  0.2612
  266TIP3    H124993   6.419   6.080  16.249  1.7070  1.5451 -0.3870
  266TIP3    H224994   6.421   6.193  16.350  0.7192  0.5118  0.8146
  267TIP3   OH224995   4.721   0.845  17.681  0.3683  0.0777 -0.0100
  267TIP3    H124996   4.694   0.768  17.731 -0.3255  0.3986  0.1175
  267TIP3    H224997   4.670   0.841  17.600  1.4941 -0.4462 -0.7150
  268TIP3   OH224998   6.039   5.931  16.310  0.2270  0.1605  0.3240
  268TIP3    H124999   5.957   5.947  16.356 -0.2119  0.7320 -0.6347
  268TIP3    H225000   6.037   5.990  16.235  2.6363  2.0431  1.5792
  269TIP3   OH225001   6.209   5.245  16.736  0.1475  0.2188  0.4672
  269TIP3    H125002   6.236   5.322  16.686  2.4558 -1.3144 -0.8276
  269TIP3    H225003   6.225   5.269  16.827  0.0882  1.5294  0.1538
  270TIP3   OH225004   4.919   3.636  16.891  0.6115 -0.0633  1.0205
  270TIP3    H125005   5.007   3.621  16.858  0.9464  1.6945  0.9988
  270TIP3    H225006   4.863   3.580  16.838  1.5016  0.2965 -0.3464
  271TIP3   OH225007   8.063   5.054  16.978  0.5124 -0.2151 -0.2299
  271TIP3    H125008   7.981   5.077  16.933  0.4120  0.2378  0.1699
  271TIP3    H225009   8.077   5.126  17.039 -0.6800 -1.9612  2.2783
  272TIP3   OH225010   6.470   1.004  17.168 -0.3426 -0.0025  0.1410
  272TIP3    H125011   6.395   1.063  17.161 -0.8144 -0.7092 -1.2258
  272TIP3    H225012   6.446   0.929  17.114  1.8705  0.3019 -1.3764
  273TIP3   OH225013   6.954   1.300  16.125 -0.0110 -0.1782  0.5719
  273TIP3    H125014   7.004   1.329  16.202 -0.1727  1.2978  0.1439
  273TIP3    H225015   6.942   1.379  16.073 -4.4340  0.0189  1.5108
  274TIP3   OH225016   8.117   2.684  17.039 -0.0168 -0.2067  0.2338
  274TIP3    H125017   8.073   2.726  17.113  0.3773  0.2537  0.2103
  274TIP3    H225018   8.102   2.591  17.052 -0.4774 -0.0885  0.5607
  275TIP3   OH225019   5.610   6.877  15.904  0.3045  0.0846  0.4231
  275TIP3    H125020   5.517   6.858  15.891  0.1594  1.1538 -0.2516
  275TIP3    H225021   5.610   6.958  15.956  0.8717 -0.2659  0.9813
  276TIP3   OH225022   0.732   1.218  16.213  0.1334  0.0772  0.5899
  276TIP3    H125023   0.778   1.199  16.131  1.3377 -0.2115  1.3057
  276TIP3    H225024   0.794   1.193  16.281 -0.1778  1.8836  1.5922
  277TIP3   OH225025   6.569   4.703  17.259  0.0902  0.2717  0.2240
  277TIP3    H125026   6.600   4.793  17.248 -0.5914  0.4039 -0.7290
  277TIP3    H225027   6.495   4.695  17.198  0.2110 -0.9670  0.2075
  278TIP3   OH225028   1.224   2.344  17.581  0.1452 -0.0927 -0.0300
  278TIP3    H125029   1.205   2.394  17.660  2.5090  0.3787  0.3317
  278TIP3    H225030   1.319   2.354  17.569  0.3208 -2.5125 -1.3064
  279TIP3   OH225031   1.368   3.322  16.431 -0.7921 -0.3297  0.4415
  279TIP3    H125032   1.279   3.342  16.403 -0.3341  0.1873 -0.6765
  279TIP3    H225033   1.418   3.314  16.350  0.6084  1.4214  1.0875
  280TIP3   OH225034   1.061   5.742  15.894  0.0718  0.6813  0.0607
  280TIP3    H125035   1.036   5.832  15.874 -1.9468  0.6053  1.8349
  280TIP3    H225036   0.983   5.690  15.874  0.0529 -0.1733  2.1004
  281TIP3   OH225037   5.224   4.134  15.510 -0.0909 -0.1920  0.0580
  281TIP3    H125038   5.136   4.103  15.489  0.1385 -1.4695  0.8373
  281TIP3    H225039   5.281   4.085  15.450  0.1316  0.2377 -0.0844
  282TIP3   OH225040   3.862   1.924  17.796  0.3709  0.0331 -0.2503
  282TIP3    H125041   3.939   1.971  17.765  0.7140 -0.0346  0.4728
  282TIP3    H225042   3.814   1.988  17.849  1.5776 -0.7781  1.9344
  283TIP3   OH225043   7.611   4.991  16.041  0.1454  0.2554  0.6265
  283TIP3    H125044   7.705   4.987  16.020  0.3222  3.5819  0.1693
  283TIP3    H225045   7.571   5.031  15.964 -1.6557 -0.8189  0.9470
  284TIP3   OH225046   4.467   4.070  10.765 -0.1354  0.1620  0.2897
  284TIP3    H125047   4.524   4.129  10.814 -0.1251  0.6068 -0.2535
  284TIP3    H225048   4.388   4.121  10.747 -0.3441 -0.1617  0.2673
  285TIP3   OH225049   6.180   5.503  11.807  0.5644 -0.0911 -0.2444
  285TIP3    H125050   6.163   5.409  11.813  1.5756 -0.2954 -0.5443
  285TIP3    H225051   6.246   5.520  11.873  0.7818  0.3161 -0.5659
  286TIP3   OH225052   6.160   0.271  11.208  0.1500 -0.2053  0.1725
  286TIP3    H125053   6.186   0.363  11.197  0.0207  0.0892  1.9037
  286TIP3    H225054   6.136   0.265  11.301 -1.6089 -1.5553 -0.3141
  287TIP3   OH225055   3.705   1.682  10.647 -0.0197 -0.2813  0.3577
  287TIP3    H125056   3.740   1.760  10.603 -2.5492  0.4297 -0.6148
  287TIP3    H225057   3.657   1.635  10.578 -1.5118 -0.7719  1.6563
  288TIP3   OH225058   7.991   7.003  11.708  0.7372 -0.1623 -0.1900
  288TIP3    H125059   8.024   6.944  11.776 -0.2331 -0.1701  0.2930
  288TIP3    H225060   7.968   7.083  11.755  1.7661  0.5034 -0.7955
  289TIP3   OH225061   2.632   5.203  12.734 -0.2495 -0.3643 -0.2776
  289TIP3    H125062   2.713   5.169  12.694 -1.5512 -2.7621 -1.0508
  289TIP3    H225063   2.600   5.267  12.670  1.0725  0.7542  0.1161
  290TIP3   OH225064   7.339   5.842  10.483  0.1379  0.5144 -0.0068
  290TIP3    H125065   7.431   5.866  10.487 -0.0309  1.4617 -1.2615
  290TIP3    H225066   7.337   5.765  10.426  0.1112  0.7542 -0.3311
  291TIP3   OH225067   1.768   2.616  12.089 -0.0035  0.6362  0.4202
  291TIP3    H125068   1.747   2.663  12.170  0.1088 -0.6801  1.2503
  291TIP3    H225069   1.695   2.635  12.031 -1.0460  0.1044  1.5108
  292TIP3   OH225070   8.426   0.426  10.339  0.3288 -0.3625  0.0284
  292TIP3    H125071   8.496   0.466  10.392  0.0116  0.5048 -0.1888
  292TIP3    H225072   8.438   0.463  10.251 -1.3385  1.0704  0.3351
  293TIP3   OH225073   5.684   4.708  12.022  0.3269 -0.4414  0.2072
  293TIP3    H125074   5.768   4.687  12.062  1.0181  0.9472 -0.4677
  293TIP3    H225075   5.628   4.736  12.094  1.4813  1.7939  0.3058
  294TIP3   OH225076   6.936   3.160  10.971  0.4589  0.1889 -0.0744
  294TIP3    H125077   6.899   3.113  10.896 -0.7253  0.6058  0.2301
  294TIP3    H225078   6.871   3.149  11.040  0.0272  2.4201 -0.0559
  295TIP3   OH225079   5.392   0.701  11.298 -0.0800 -0.1427  0.2402
  295TIP3    H125080   5.308   0.735  11.267  0.0722 -1.7789 -2.1959
  295TIP3    H225081   5.369   0.625  11.352 -0.1899 -0.3293 -0.0683
  296TIP3   OH225082   2.604   8.248  12.632 -0.4543 -0.2279 -0.0460
  296TIP3    H125083   2.684   8.269  12.584 -0.6324 -2.7634 -1.6291
  296TIP3    H225084   2.540   8.313  12.603  0.1045 -0.2791 -1.4384
  297TIP3   OH225085   1.341   1.182  12.593 -0.2819  0.3095 -0.3946
  297TIP3    H125086   1.259   1.222  12.624 -0.1206  0.5184 -0.2397
  297TIP3    H225087   1.409   1.242  12.621  0.0291 -0.3956  0.4325
  298TIP3   OH225088   3.341   2.311  10.336 -0.0204  0.0666  0.6015
  298TIP3    H125089   3.271   2.326  10.399 -0.2608  1.4356  0.0491
  298TIP3    H225090   3.411   2.370  10.364  0.7314 -0.9121  0.8461
  299TIP3   OH225091   7.906   7.955  11.526  0.1429 -0.3657  0.5791
  299TIP3    H125092   7.840   7.932  11.460  0.2500  0.1210  0.2918
  299TIP3    H225093   7.990   7.948  11.481  0.4326 -2.4171  1.3486
  300TIP3   OH225094   7.882   5.992  11.439 -0.1719  0.0684  0.9711
  300TIP3    H125095   7.926   6.056  11.496 -0.1542  0.7036  0.2550
  300TIP3    H225096   7.795   6.029  11.423  0.4651  0.8522 -0.9386
  301TIP3   OH225097   3.887   1.501  11.359  0.5082 -0.0370 -0.1398
  301TIP3    H125098   3.977   1.528  11.343 -0.3704  2.0824 -1.9886
  301TIP3    H225099   3.843   1.581  11.388 -0.9192 -0.8990  0.1740
  302TIP3   OH225100   0.579   0.187  11.931  0.1663 -0.1278 -0.0110
  302TIP3    H125101   0.512   0.175  11.999 -0.4622  0.6844 -0.4658
  302TIP3    H225102   0.617   0.273  11.949 -0.0110  0.0978 -0.6835
  303TIP3   OH225103   4.397   4.670  12.169 -0.4968 -0.2899 -0.5266
  303TIP3    H125104   4.365   4.614  12.098  1.3386 -2.3402  0.1570
  303TIP3    H225105   4.334   4.656  12.240  0.1537 -1.8825 -0.2233
  304TIP3   OH225106   1.561   4.456  11.109  0.0369 -0.6224 -0.3001
  304TIP3    H125107   1.567   4.455  11.205  0.3753 -1.2280 -0.3255
  304TIP3    H225108   1.581   4.547  11.085 -2.0761  0.0738  0.3236
  305TIP3   OH225109   8.397   0.755  10.462 -0.1079  0.2584 -0.5617
  305TIP3    H125110   8.312   0.743  10.419 -0.0792 -0.6729 -0.3780
  305TIP3    H225111   8.393   0.699  10.539  0.5835  0.3993 -0.4214
  306TIP3   OH225112   6.826   2.750  11.728 -0.5084 -0.2545 -0.0862
  306TIP3    H125113   6.782   2.825  11.767  0.3788 -0.3040  1.0624
  306TIP3    H225114   6.883   2.716  11.798  0.7476 -0.6633 -1.2576
  307TIP3   OH225115   5.378   2.593  10.459  0.1513  0.2767  0.3314
  307TIP3    H125116   5.329   2.581  10.540  0.4024  0.7272  0.5554
  307TIP3    H225117   5.464   2.556  10.477  0.4212  0.9644  0.5003
  308TIP3   OH225118   3.073   5.391  11.217 -0.1287 -0.1287 -0.1367
  308TIP3    H125119   3.110   5.396  11.305 -0.5602  0.1524  0.0331
  308TIP3    H225120   3.062   5.482  11.190 -0.4812 -0.2074 -0.2702
  309TIP3   OH225121   0.861   5.511  11.954  0.1556  0.0048  0.4452
  309TIP3    H125122   0.909   5.475  12.029  0.0922 -0.3582  0.3155
  309TIP3    H225123   0.832   5.597  11.983  0.7078  0.1422  0.5975
  310TIP3   OH225124   5.986   4.238  11.414  0.0375  0.0012  0.4733
  310TIP3    H125125   6.069   4.229  11.368  0.1902 -1.5101  0.9561
  310TIP3    H225126   5.919   4.226  11.347  0.2102  0.8229  0.1515
  311TIP3   OH225127   2.705   8.236  10.316  0.1317 -0.4460 -0.1375
  311TIP3    H125128   2.788   8.191  10.300 -0.4414 -1.8640  0.7063
  311TIP3    H225129   2.717   8.323  10.278  1.6651 -0.9406 -0.8595
  312TIP3   OH225130   0.755   0.978  10.450  0.3707 -0.1521  0.2497
  312TIP3    H125131   0.783   1.067  10.469 -1.2917 -0.1090  2.9768
  312TIP3    H225132   0.687   0.959  10.515  1.2646 -3.7247  0.3535
  313TIP3   OH225133   0.429   1.146  10.935  0.5287 -0.0516 -0.4306
  313TIP3    H125134   0.493   1.162  11.004 -0.3201 -3.0083  1.1994
  313TIP3    H225135   0.345   1.139  10.981 -0.3053 -0.5636 -1.9617
  314TIP3   OH225136   1.408   7.316  12.041  0.3040 -0.0848  0.0962
  314TIP3    H125137   1.492   7.271  12.039  0.6034  0.4755 -1.3410
  314TIP3    H225138   1.357   7.270  12.108  1.8955 -0.1415  1.3076
  315TIP3   OH225139   5.128   1.967  11.404 -0.0776 -0.3064 -0.3198
  315TIP3    H125140   5.076   2.047  11.397  0.2454 -0.0315  0.3029
  315TIP3    H225141   5.063   1.898  11.420 -0.5295 -0.4798 -2.6122
  316TIP3   OH225142   7.614   0.053  12.440  0.2104 -0.0337 -0.0884
  316TIP3    H125143   7.628  -0.041  12.444 -1.0887 -0.2223  0.7142
  316TIP3    H225144   7.692   0.090  12.483  0.9613 -0.6955 -0.8453
  317TIP3   OH225145   7.737   5.705  11.783  0.1867 -0.6583 -0.2772
  317TIP3    H125146   7.756   5.677  11.693  0.0606 -1.6874  0.0038
  317TIP3    H225147   7.667   5.769  11.773  0.8121 -0.0729 -0.9830
  318TIP3   OH225148   1.497   5.402  10.672  0.3668 -0.1539 -0.7213
  318TIP3    H125149   1.494   5.461  10.596 -0.1752  0.8464  0.0474
  318TIP3    H225150   1.406   5.378  10.686  0.3588  0.3364  0.1092
  319TIP3   OH225151   8.062   6.574  12.228  0.5086 -0.4582 -0.1391
  319TIP3    H125152   7.979   6.616  12.254  1.0301  0.0738  0.7314
  319TIP3    H225153   8.080   6.512  12.299  1.2058 -0.0521  0.0514
  320TIP3   OH225154   3.333   4.971  11.393 -0.3675 -0.0056  0.1730
  320TIP3    H125155   3.397   5.040  11.411 -0.5566  0.0195  0.7874
  320TIP3    H225156   3.249   5.009  11.420 -0.4282 -0.5855  0.8346
  321TIP3   OH225157   3.713   0.243  11.199  0.8643 -0.1497 -0.4600
  321TIP3    H125158   3.784   0.214  11.143  1.6165 -1.1869  0.9774
  321TIP3    H225159   3.676   0.162  11.235 -1.2917  0.3304 -1.4283
  322TIP3   OH225160   1.064   0.463  11.609 -0.4449 -0.0187  0.5481
  322TIP3    H125161   1.021   0.494  11.529 -0.0218  0.2041  0.4028
  322TIP3    H225162   1.156   0.455  11.585 -0.7477 -3.3041 -0.0168
  323TIP3   OH225163   6.929   3.797  17.552  0.0659  0.3721 -0.4362
  323TIP3    H125164   6.839   3.781  17.524  0.1986  0.8307 -1.1449
  323TIP3    H225165   6.921   3.843  17.636 -0.3528 -3.3407  1.8005
  324TIP3   OH225166   0.849   5.419  17.046  0.3288  0.4732  0.1832
  324TIP3    H125167   0.883   5.455  16.964  0.2623  0.5162  0.1744
  324TIP3    H225168   0.916   5.438  17.111  1.0859 -0.8969 -0.1571
  325TIP3   OH225169   7.163   7.786  17.608 -0.7289  0.0102  0.0920
  325TIP3    H125170   7.148   7.842  17.684  2.2843 -2.4767  2.8130
  325TIP3    H225171   7.249   7.747  17.624 -0.6252 -1.8488 -3.9177
  326TIP3   OH225172   7.422   7.664  17.603 -0.1634 -0.1900 -0.3810
  326TIP3    H125173   7.468   7.639  17.523  0.8097 -1.0436  0.4221
  326TIP3    H225174   7.472   7.738  17.637  1.0001 -1.4412  0.7655
  327TIP3   OH225175   6.628   3.713  16.156  0.1926  0.6995  0.3416
  327TIP3    H125176   6.658   3.641  16.100  0.8381  0.8936  0.4261
  327TIP3    H225177   6.672   3.699  16.240 -0.0434  0.9292  0.5070
  328TIP3   OH225178   5.269   4.158  16.227 -0.2367  0.1265  0.6468
  328TIP3    H125179   5.217   4.218  16.281  2.2991  2.7804  0.4077
  328TIP3    H225180   5.232   4.165  16.140 -0.6711  0.4667  0.8546
  329TIP3   OH225181   3.854   2.009  15.836  0.2927 -0.4142  0.4600
  329TIP3    H125182   3.862   1.934  15.776 -2.0064  1.0114 -1.8241
  329TIP3    H225183   3.877   2.085  15.783 -1.7342  0.9128  1.3859
  330TIP3   OH225184   0.759   0.978  16.380 -0.5923 -0.1594 -0.2146
  330TIP3    H125185   0.728   0.893  16.350 -1.6161 -0.6565  1.9841
  330TIP3    H225186   0.682   1.018  16.422  0.5295  0.6642  1.1796
  331TIP3   OH225187   1.900   5.967  17.358 -0.4516  0.3447  0.1746
  331TIP3    H125188   1.842   6.033  17.322  0.4346  1.1669  0.2176
  331TIP3    H225189   1.952   6.014  17.424  0.7265 -0.1906 -0.3396
  332TIP3   OH225190   7.000   1.731  15.813 -0.0231 -0.0932  0.1290
  332TIP3    H125191   6.941   1.805  15.804 -0.0869 -0.1003  0.4803
  332TIP3    H225192   6.981   1.675  15.738  1.1667  1.0449 -1.0637
  333TIP3   OH225193   6.099   4.263  17.673 -0.4658  0.3051  0.4307
  333TIP3    H125194   6.162   4.289  17.606 -1.1638  0.2518 -0.2522
  333TIP3    H225195   6.152   4.223  17.742  0.3412  1.1098  0.2896
  334TIP3   OH225196   7.937   4.434  17.883  0.1975  0.2220  0.1625
  334TIP3    H125197   7.847   4.402  17.893  0.3738 -0.8594 -1.3712
  334TIP3    H225198   7.930   4.504  17.818  0.4924 -0.1239 -0.2518
  335TIP3   OH225199   0.642   1.760  16.174 -0.1753  0.0327  0.2895
  335TIP3    H125200   0.678   1.782  16.088  0.0955  0.0706  0.4120
  335TIP3    H225201   0.642   1.665  16.176  0.2814  0.0352  0.4407
  336TIP3   OH225202   7.402   8.272  17.670 -0.3811 -0.1545  0.4876
  336TIP3    H125203   7.412   8.260  17.576 -1.7357 -0.8371  0.4036
  336TIP3    H225204   7.479   8.323  17.696  0.3347 -0.4830 -0.8743
  337TIP3   OH225205   6.308   7.673  16.860  0.2541 -0.3715 -0.2189
  337TIP3    H125206   6.375   7.605  16.855  0.7707  0.1761 -1.1659
  337TIP3    H225207   6.235   7.639  16.808  0.2696 -0.4600 -0.1822
  338TIP3   OH225208   5.032   5.360  17.363 -0.1845  0.1197 -0.3636
  338TIP3    H125209   5.107   5.357  17.423 -0.5053 -1.6207  0.0205
  338TIP3    H225210   5.039   5.278  17.313 -2.6396 -0.8439  0.7140
  339TIP3   OH225211   0.042   2.756  17.896 -0.0493  0.2476  0.3132
  339TIP3    H125212   0.037   2.768  17.991 -1.2310 -0.6138  0.3791
  339TIP3    H225213  -0.019   2.684  17.878  0.5732  0.0338 -1.0322
  340TIP3   OH225214   3.578   3.477  15.372  0.3708 -0.0246 -0.5658
  340TIP3    H125215   3.599   3.432  15.290 -1.0432 -0.7058 -0.5982
  340TIP3    H225216   3.663   3.497  15.412  1.0833  0.3939 -2.2205
  341TIP3   OH225217   3.538   2.275  15.346  0.1276 -0.2960 -0.1570
  341TIP3    H125218   3.452   2.234  15.334  0.7133 -1.7840  0.4684
  341TIP3    H225219   3.601   2.205  15.327  1.1650  0.1326  1.5022
  342TIP3   OH225220   7.459   1.925  16.694  0.5862 -0.2318 -0.4759
  342TIP3    H125221   7.422   1.897  16.778 -0.5391 -0.6756 -1.1132
  342TIP3    H225222   7.410   2.004  16.671  1.7487  0.6204 -0.1246
  343TIP3   OH225223   3.654   5.377  17.272 -0.6519  0.3980  0.0249
  343TIP3    H125224   3.708   5.413  17.201 -1.1571  0.0072 -0.5752
  343TIP3    H225225   3.698   5.404  17.352  1.0218 -0.7571 -0.4403
  344TIP3   OH225226   1.997   0.026  17.283 -0.0668 -0.3447 -0.3675
  344TIP3    H125227   1.943  -0.052  17.269 -0.2722 -0.8061  2.3115
  344TIP3    H225228   2.067  -0.004  17.341  0.3794  1.2728 -0.0216
  345TIP3   OH225229   3.508   1.475  16.596 -0.2059 -0.6878 -0.3068
  345TIP3    H125230   3.524   1.539  16.528 -0.0591 -2.0507 -1.6101
  345TIP3    H225231   3.572   1.495  16.665  0.2842  0.1233 -0.9921
  346TIP3   OH225232   5.187   7.186  16.305 -0.0461 -0.5137 -0.7053
  346TIP3    H125233   5.189   7.140  16.221  0.7071 -0.1076 -0.9239
  346TIP3    H225234   5.094   7.198  16.324 -0.2411 -1.3657 -1.0577
  347TIP3   OH225235   0.364   2.755  16.364 -0.4086 -0.1721  0.6530
  347TIP3    H125236   0.383   2.688  16.300 -0.5305 -0.2536  0.7020
  347TIP3    H225237   0.429   2.823  16.348  0.4735 -0.8254  1.3894
  348TIP3   OH225238   5.780   4.623  15.983  0.5038 -0.4756  0.2115
  348TIP3    H125239   5.765   4.643  16.076  0.0011 -0.9719  0.2457
  348TIP3    H225240   5.696   4.643  15.941  1.0934  0.9061 -0.3479
  349TIP3   OH225241   5.333   7.108  16.557 -0.3367 -0.3496 -0.0371
  349TIP3    H125242   5.280   7.134  16.481 -1.0462 -1.1273  0.1645
  349TIP3    H225243   5.410   7.065  16.519  0.6074  1.5265 -0.3579
  350TIP3   OH225244   0.046   8.067  16.942 -0.3377  0.1810  0.3431
  350TIP3    H125245   0.141   8.068  16.933 -0.2579  1.7046  0.8973
  350TIP3    H225246   0.021   8.160  16.936 -1.6789 -0.1031  1.1180
  351TIP3   OH225247   3.617   0.708  17.920 -0.5254 -0.7592  0.0495
  351TIP3    H125248   3.673   0.651  17.868 -0.3088 -1.1660  0.7170
  351TIP3    H225249   3.530   0.667  17.913 -0.4980 -0.8117  0.0075
  352TIP3   OH225250   2.937   3.578  16.982  0.4358 -0.0619  0.5637
  352TIP3    H125251   2.977   3.620  17.058  1.6592 -0.2856  0.0642
  352TIP3    H225252   2.888   3.648  16.939 -0.4585  0.0151  1.6636
  353TIP3   OH225253   3.739   4.311  16.986 -0.5631  0.4927 -0.4867
  353TIP3    H125254   3.683   4.233  16.988 -0.6645  0.5383 -1.4146
  353TIP3    H225255   3.678   4.384  17.002 -0.1448  0.2702  2.9635
  354TIP3   OH225256   5.876   0.260  18.150  0.3507 -0.5639 -0.1439
  354TIP3    H125257   5.850   0.211  18.071 -0.2620  1.3072 -1.1515
  354TIP3    H225258   5.863   0.197  18.222 -0.4347 -1.8729 -1.3668
  355TIP3   OH225259   0.695   7.824  16.510  0.2267 -0.7075  0.4997
  355TIP3    H125260   0.766   7.767  16.480 -0.7853 -1.9566  0.3924
  355TIP3    H225261   0.716   7.910  16.473  0.6092 -1.5172 -1.2807
  356TIP3   OH225262   7.167   1.061  16.772 -0.3604 -0.3732 -0.9040
  356TIP3    H125263   7.160   1.023  16.860  0.1802  0.7599 -0.3536
  356TIP3    H225264   7.146   0.988  16.714  0.1647 -1.3963  0.1282
  357TIP3   OH225265   2.244   7.755  17.529  0.6159 -0.3701  0.0300
  357TIP3    H125266   2.199   7.672  17.514  0.0367 -0.0913  0.2065
  357TIP3    H225267   2.202   7.816  17.469  0.8668 -0.1403  0.0852
  358TIP3   OH225268   1.190   5.940  16.850  0.0313  0.5860  0.4071
  358TIP3    H125269   1.145   5.900  16.924 -0.7465 -2.6539 -1.6310
  358TIP3    H225270   1.124   5.996  16.809  0.9891  3.9452  3.0057
  359TIP3   OH225271   2.714   2.832  17.646 -0.0702 -0.0615  0.4744
  359TIP3    H125272   2.731   2.770  17.717  1.5471 -0.3077 -0.0688
  359TIP3    H225273   2.780   2.810  17.580 -2.3935 -0.8142 -1.7752
  360TIP3   OH225274   4.923   5.192  17.647  0.1485  0.3833  0.5293
  360TIP3    H125275   4.849   5.157  17.697  1.0965 -0.2266  1.5787
  360TIP3    H225276   4.883   5.247  17.580 -1.3018 -0.8496  0.3169
  361TIP3   OH225277   2.394   6.809  16.699 -0.0989 -0.0306 -0.1743
  361TIP3    H125278   2.363   6.802  16.608 -0.0199  0.3300 -0.2267
  361TIP3    H225279   2.370   6.897  16.726 -1.3196 -0.5737  0.5958
  362TIP3   OH225280   0.569   0.310  15.338 -0.1340  0.4104 -0.7217
  362TIP3    H125281   0.482   0.342  15.316 -0.0237  1.3301  0.0792
  362TIP3    H225282   0.629   0.368  15.290  0.0503  0.7483 -0.0976
  363TIP3   OH225283   8.407   4.182  16.644  0.0287  0.0710 -0.2807
  363TIP3    H125284   8.469   4.141  16.583  0.8023  1.3636 -0.3984
  363TIP3    H225285   8.392   4.115  16.711 -0.0853 -1.0204 -1.3463
  364TIP3   OH225286   1.284   6.147  16.602 -0.4559  0.0697 -0.3498
  364TIP3    H125287   1.232   6.209  16.551 -1.1916 -0.0757  0.2119
  364TIP3    H225288   1.269   6.063  16.558  0.2159  0.2041 -0.8635
  365TIP3   OH225289   4.997   1.483  16.058  0.0933 -0.1255  0.2279
  365TIP3    H125290   4.978   1.444  15.973  1.3163  0.0868 -0.1753
  365TIP3    H225291   5.008   1.577  16.039 -1.4748  0.2303  0.9501
  366TIP3   OH225292   4.938   8.151  15.663  0.1893  0.6841  0.1755
  366TIP3    H125293   4.861   8.116  15.707  0.4467 -0.4534 -0.2334
  366TIP3    H225294   4.904   8.187  15.581  0.1143 -0.1262 -0.1644
  367TIP3   OH225295   4.650   0.624  17.817  0.3174  0.6791 -0.7325
  367TIP3    H125296   4.717   0.615  17.885 -1.1449  1.7087  0.9631
  367TIP3    H225297   4.662   0.548  17.761  2.4403  0.4787 -0.0951
  368TIP3   OH225298   3.524   1.193  17.819  0.0091 -0.5995  0.0693
  368TIP3    H125299   3.518   1.266  17.758  1.2004 -1.4843 -1.1638
  368TIP3    H225300   3.526   1.235  17.906  2.1500  0.9649 -0.6476
  369TIP3   OH225301   4.790   0.452  16.810  0.4907  0.0003 -0.1725
  369TIP3    H125302   4.717   0.470  16.869  0.1758  2.7943 -1.2442
  369TIP3    H225303   4.764   0.372  16.764 -0.3793 -0.8432  1.6909
  370TIP3   OH225304   3.721   6.806  15.688  0.1086  0.0630  0.0277
  370TIP3    H125305   3.641   6.754  15.683 -0.0135  0.2367  0.1541
  370TIP3    H225306   3.728   6.831  15.780 -0.8932  1.8902 -0.3339
  371TIP3   OH225307   7.801   6.121  16.431  0.7437 -0.1783 -0.3384
  371TIP3    H125308   7.709   6.116  16.457  0.6339 -0.9511 -0.8451
  371TIP3    H225309   7.799   6.104  16.336  1.3246  0.6429 -0.5095
  372TIP3   OH225310   1.812   2.441  16.190  0.2040  0.4278  0.1151
  372TIP3    H125311   1.892   2.468  16.235  0.4768 -2.4592  1.6004
  372TIP3    H225312   1.839   2.364  16.139 -1.6631 -0.8527  0.9536
  373TIP3   OH225313   1.773   7.353  16.235 -0.5987  0.1059 -0.5626
  373TIP3    H125314   1.745   7.318  16.319 -0.3554  0.0432 -0.5075
  373TIP3    H225315   1.819   7.434  16.256 -1.0107  0.3736 -0.6768
  374TIP3   OH225316   4.456   4.855  16.678 -0.4345  0.0747 -0.0770
  374TIP3    H125317   4.449   4.810  16.594 -2.0403 -2.0684  1.1080
  374TIP3    H225318   4.409   4.937  16.664 -0.8112 -0.3090 -1.2378
  375TIP3   OH225319   5.516   1.265  17.992  0.4985  0.7674 -0.1996
  375TIP3    H125320   5.449   1.316  17.946  0.3047  1.9543  1.3351
  375TIP3    H225321   5.596   1.319  17.986  1.3471 -0.5701 -1.8956
  376TIP3   OH225322   1.111   4.844  17.389  0.3421 -0.1426  0.0099
  376TIP3    H125323   1.200   4.874  17.406 -0.5105  0.1655  5.4830
  376TIP3    H225324   1.057   4.922  17.400 -0.8511 -0.9287 -0.0740
  377TIP3   OH225325   7.537   1.845  15.475  0.4159 -0.2018  0.2970
  377TIP3    H125326   7.554   1.920  15.418 -2.2150 -0.6002 -1.1547
  377TIP3    H225327   7.579   1.772  15.430  2.5183  0.2244  1.4402
  378TIP3   OH225328   2.236   2.387  15.982  0.0711  0.0518  0.0087
  378TIP3    H125329   2.199   2.443  16.050 -0.5478 -0.3917  0.0474
  378TIP3    H225330   2.294   2.445  15.932 -1.5950  1.0957 -0.7934
  379TIP3   OH225331   7.842   7.889  17.856 -0.2698 -0.1375 -0.0754
  379TIP3    H125332   7.837   7.983  17.870 -1.3445 -0.1644 -0.1840
  379TIP3    H225333   7.930   7.865  17.884 -0.3435  0.7299  0.9593
  380TIP3   OH225334   0.971   1.801  16.911 -0.0870 -0.6869  0.3842
  380TIP3    H125335   0.979   1.706  16.918 -1.0669 -0.8948 -0.9548
  380TIP3    H225336   0.905   1.824  16.977  0.6193 -0.8331  1.1617
  381TIP3   OH225337   8.287   3.540  16.142 -0.0347  0.3094 -0.4892
  381TIP3    H125338   8.195   3.513  16.136 -0.2310  1.1688 -1.7251
  381TIP3    H225339   8.325   3.514  16.058  0.7892  0.2143 -0.0943
  382TIP3   OH225340   7.040   3.649  17.146  0.2908  0.4554 -0.0426
  382TIP3    H125341   7.111   3.699  17.187  0.1591 -0.7674  1.8150
  382TIP3    H225342   7.082   3.602  17.074  0.8363  1.6129 -0.5018
  383TIP3   OH225343   8.104   5.916  15.777  0.9158  0.2593 -0.6337
  383TIP3    H125344   8.035   5.982  15.772  1.2126  0.6264 -0.0379
  383TIP3    H225345   8.169   5.944  15.713  2.1417  1.8768  1.2077
  384TIP3   OH225346   3.404   2.988  16.252  0.3899 -0.4592  0.0144
  384TIP3    H125347   3.496   2.999  16.228 -0.3137  2.4120 -1.9165
  384TIP3    H225348   3.365   2.942  16.177 -0.2248  0.7937 -0.4570
  385TIP3   OH225349   6.958   3.077  15.900 -0.0870  0.1829 -0.5331
  385TIP3    H125350   6.923   3.165  15.917 -0.8326 -0.1876 -0.1098
  385TIP3    H225351   6.902   3.041  15.832 -2.5655 -1.5493  2.1784
  386TIP3   OH225352   7.828   6.796  16.603 -0.3326  0.2812 -0.0924
  386TIP3    H125353   7.751   6.806  16.548  0.8446  1.5283 -1.6287
  386TIP3    H225354   7.851   6.886  16.629  0.7154 -0.0494  0.1643
  387TIP3   OH225355   0.997   4.623  17.517  0.1770 -0.2562 -0.7399
  387TIP3    H125356   1.016   4.704  17.470  0.4452  1.3602  1.9784
  387TIP3    H225357   1.077   4.571  17.509  0.2691  0.0208 -1.8736
  388TIP3   OH225358   3.944   3.267  17.539  0.6268 -0.4758  0.1724
  388TIP3    H125359   4.012   3.207  17.507 -0.7181 -3.0396  1.7985
  388TIP3    H225360   3.863   3.233  17.502 -0.2031  0.2748  1.2532
  389TIP3   OH225361   0.836   4.689  17.760 -0.3393 -0.0806 -0.1112
  389TIP3    H125362   0.751   4.645  17.755 -0.3708  0.0956 -1.2153
  389TIP3    H225363   0.891   4.643  17.697  0.4004 -0.1999  0.6088
  390TIP3   OH225364   8.158   2.888  16.839 -0.3090  0.5274  0.5264
  390TIP3    H125365   8.180   2.825  16.770 -0.0976  2.0068 -0.7905
  390TIP3    H225366   8.131   2.833  16.913  1.1090 -1.1518 -0.1331
  391TIP3   OH225367   1.581   3.874  16.698 -0.6238 -0.4164 -0.0623
  391TIP3    H125368   1.667   3.891  16.659 -0.3754  0.8980  0.9564
  391TIP3    H225369   1.518   3.907  16.634 -0.4557 -2.2895 -1.2585
  392TIP3   OH225370   1.938   4.656  17.183 -0.1252 -0.1828 -0.1998
  392TIP3    H125371   1.887   4.576  17.170 -0.8396  0.4723 -1.6869
  392TIP3    H225372   1.897   4.720  17.126 -0.2362  1.5881  1.7314
  393TIP3   OH225373   0.566   4.706  17.730 -0.5265 -0.3075 -0.0232
  393TIP3    H125374   0.583   4.614  17.711  1.9846  0.0295  0.2293
  393TIP3    H225375   0.576   4.750  17.645  3.2049  0.2524  0.5408
  394TIP3   OH225376   0.540   0.307  17.819 -0.3443 -0.2139 -0.4543
  394TIP3    H125377   0.559   0.383  17.874 -0.8431  0.9300 -1.8039
  394TIP3    H225378   0.625   0.282  17.782 -0.2012 -0.2158 -0.1260
  395TIP3   OH225379   0.646   6.873  16.231 -0.1257  0.0353  0.3604
  395TIP3    H125380   0.567   6.926  16.224  0.8369  1.3996 -0.7085
  395TIP3    H225381   0.665   6.846  16.141 -0.4180 -1.9448  0.8327
  396TIP3   OH225382   4.618   6.578  15.790  0.4209  0.2271  0.0627
  396TIP3    H125383   4.565   6.499  15.785 -0.1379  0.6290 -0.4929
  396TIP3    H225384   4.577   6.631  15.858  0.3455  0.3652 -0.0900
  397TIP3   OH225385   2.584   1.206  16.082 -0.4631 -0.0758  0.0920
  397TIP3    H125386   2.654   1.231  16.142  1.2642 -0.2989 -1.7248
  397TIP3    H225387   2.555   1.120  16.113  1.4466 -0.8868 -0.2417
  398TIP3   OH225388   7.431   4.050  15.914 -0.4183 -0.2785 -0.2596
  398TIP3    H125389   7.427   4.081  16.004 -0.6544  1.5097 -0.8566
  398TIP3    H225390   7.524   4.042  15.896 -0.3620 -2.1990  0.6067
  399TIP3   OH225391   3.537   1.967  17.600  0.1286 -0.6046  0.6640
  399TIP3    H125392   3.460   2.006  17.558  0.3647  0.1528  0.9138
  399TIP3    H225393   3.611   2.000  17.549  0.2510 -2.2806 -0.3229
  400TIP3   OH225394   7.936   2.471  15.652  0.1140 -0.3769 -0.0870
  400TIP3    H125395   7.943   2.416  15.574  0.4907  0.5675 -0.7381
  400TIP3    H225396   8.005   2.537  15.641 -0.6068  0.4896  0.4516
  401TIP3   OH225397   7.960   4.984  17.817 -0.3891  0.2121  0.2979
  401TIP3    H125398   7.950   5.017  17.727 -1.1386 -0.1372  0.2465
  401TIP3    H225399   7.872   4.989  17.854 -0.2682 -0.5452  0.7013
  402TIP3   OH225400   1.313   5.832  15.680  0.1874 -0.0834 -0.5293
  402TIP3    H125401   1.250   5.790  15.622 -0.0392 -1.5240  0.6998
  402TIP3    H225402   1.269   5.912  15.708 -0.4175 -0.2571 -0.9517
  403TIP3   OH225403   7.174   0.214  16.933 -0.1516  0.0462  0.4001
  403TIP3    H125404   7.200   0.286  16.877  0.5036  0.4619  1.2287
  403TIP3    H225405   7.187   0.136  16.879  0.1218  0.4644 -0.1475
  404TIP3   OH225406   2.326   2.190  16.217  0.2734  0.4458  0.0219
  404TIP3    H125407   2.278   2.234  16.287 -0.4974 -1.1548  0.5608
  404TIP3    H225408   2.335   2.099  16.248 -0.0350 -0.2969 -1.9255
  405TIP3   OH225409   1.457   3.113  17.235  0.2467  0.2065  0.0700
  405TIP3    H125410   1.391   3.044  17.230 -0.0384  0.3134  1.7343
  405TIP3    H225411   1.432   3.176  17.168 -0.7374 -0.2599 -0.0135
  406TIP3   OH225412   3.319   6.281  16.065  0.2275 -0.1279 -0.2163
  406TIP3    H125413   3.244   6.253  16.012  1.3217 -0.6621 -1.5396
  406TIP3    H225414   3.346   6.364  16.027  0.3413  0.0357  0.2176
  407TIP3   OH225415   3.345   6.097  16.270 -0.1104 -0.4921 -0.2310
  407TIP3    H125416   3.347   6.149  16.189  0.7533  0.2936  0.2723
  407TIP3    H225417   3.271   6.132  16.319  1.5331  1.6121  0.9198
  408TIP3   OH225418   2.743   1.090  16.268  0.1596 -0.0975 -0.8555
  408TIP3    H125419   2.745   1.042  16.185  1.0278  1.4067 -1.7525
  408TIP3    H225420   2.814   1.154  16.261 -1.1453  1.5460  0.1147
  409TIP3   OH225421   6.797   8.247  16.998 -0.1393  0.0072  0.5810
  409TIP3    H125422   6.772   8.184  16.931 -2.8244 -0.6289  2.0197
  409TIP3    H225423   6.857   8.199  17.056  0.1522 -0.2486  0.0702
  410TIP3   OH225424   4.196   4.464  16.701 -0.1710 -0.5805 -0.0192
  410TIP3    H125425   4.214   4.512  16.620 -0.0447 -0.0342  0.3233
  410TIP3    H225426   4.281   4.433  16.730  0.0661  0.8161  0.8682
  411TIP3   OH225427   4.857   2.886  16.372  0.2647 -0.0244  0.2012
  411TIP3    H125428   4.899   2.853  16.451  0.0794  0.2056  0.3959
  411TIP3    H225429   4.768   2.853  16.376  1.1252 -3.0604 -1.6835
  412TIP3   OH225430   7.206   0.747  17.283  1.0830  0.0410 -0.0137
  412TIP3    H125431   7.272   0.678  17.281  1.5720  0.3955  1.9430
  412TIP3    H225432   7.209   0.785  17.195  3.0300 -0.3919 -0.1935
  413TIP3   OH225433   5.062   5.692  17.354 -0.5111  0.1013 -0.1315
  413TIP3    H125434   5.130   5.626  17.364 -0.4929 -0.3499 -2.5829
  413TIP3    H225435   5.109   5.774  17.339 -0.4781 -0.0314 -0.8093
  414TIP3   OH225436   1.323   4.403  16.886 -0.1708 -0.1539  0.0002
  414TIP3    H125437   1.407   4.374  16.921  0.1989 -0.9340 -1.4355
  414TIP3    H225438   1.342   4.485  16.841 -0.2305 -0.1662 -0.0486
  415TIP3   OH225439   4.287   4.937  17.777 -0.3887  0.4597 -0.0570
  415TIP3    H125440   4.332   5.009  17.733 -0.8178  0.3896 -0.6156
  415TIP3    H225441   4.355   4.872  17.791  0.1122  1.1718  0.9038
  416TIP3   OH225442   3.130   7.173  17.636  0.0889  0.4918  0.1898
  416TIP3    H125443   3.166   7.088  17.662 -0.0384 -0.1084 -1.4557
  416TIP3    H225444   3.178   7.196  17.556 -3.2739 -0.5431 -2.3623
  417TIP3   OH225445   7.592   6.338  17.024  0.3399  0.1506 -0.9026
  417TIP3    H125446   7.571   6.310  17.114  1.3903  1.0522 -0.3525
  417TIP3    H225447   7.518   6.392  16.998 -0.7892 -1.5032 -1.2489
  418TIP3   OH225448   6.537   1.453  16.803  0.6660  0.0951  0.4409
  418TIP3    H125449   6.534   1.505  16.883 -0.5568  2.3127 -0.9320
  418TIP3    H225450   6.451   1.412  16.798  1.4075 -1.6326  1.1887
  419TIP3   OH225451   7.106   4.139  16.768  0.1801  0.2023  0.9325
  419TIP3    H125452   7.139   4.071  16.710  1.5692  0.1920  1.6877
  419TIP3    H225453   7.107   4.218  16.715 -3.1963 -0.5930 -0.5467
  420TIP3   OH225454   3.924   2.833  17.200  0.1235  0.4709  0.0416
  420TIP3    H125455   3.848   2.837  17.258 -1.2812 -1.1646 -1.5894
  420TIP3    H225456   3.955   2.743  17.207  0.5872  0.5447 -0.9644
  421TIP3   OH225457   5.757   7.132  17.876 -0.4268  0.5288  0.2410
  421TIP3    H125458   5.775   7.066  17.810  1.0493  1.0077  0.1275
  421TIP3    H225459   5.730   7.082  17.953  1.7926 -0.3408  0.5270
  422TIP3   OH225460   3.853   0.469  16.658  0.3695 -0.4013 -0.3347
  422TIP3    H125461   3.767   0.431  16.677  1.2669 -3.0123 -1.0890
  422TIP3    H225462   3.844   0.562  16.681 -2.7128 -0.5149 -0.6874
  423TIP3   OH225463   3.998   0.435  17.744  0.3548 -0.0526  0.2886
  423TIP3    H125464   4.089   0.461  17.729  0.5915 -0.7986  0.3844
  423TIP3    H225465   3.956   0.514  17.777  0.3259  1.0581 -2.1706
  424TIP3   OH225466   6.967   5.166  17.181  0.1961  0.0848  0.0434
  424TIP3    H125467   6.935   5.095  17.125  0.8144 -0.1307 -0.0483
  424TIP3    H225468   6.912   5.240  17.160  1.3817  0.4513 -1.9963
  425TIP3   OH225469   0.063   3.339  17.198  0.3082  0.2677  0.1214
  425TIP3    H125470   0.113   3.380  17.269  1.6847  0.4009 -0.8887
  425TIP3    H225471   0.098   3.250  17.192  0.9101  0.5641 -1.0183
  426TIP3   OH225472   5.150   4.503  17.077 -0.4161 -0.2952 -0.2796
  426TIP3    H125473   5.128   4.491  17.169  0.4070  0.1614 -0.0141
  426TIP3    H225474   5.236   4.462  17.067 -1.2589 -1.9228 -1.2600
  427TIP3   OH225475   2.670   1.155  16.557  0.0512  0.0755 -0.5958
  427TIP3    H125476   2.621   1.073  16.556  0.0055  0.1041 -0.7178
  427TIP3    H225477   2.692   1.170  16.465  2.9706 -1.5678 -0.3065
  428TIP3   OH225478   1.164   1.613  14.883 -0.3786 -0.3445 -0.2275
  428TIP3    H125479   1.165   1.517  14.880  0.8523 -0.3277 -2.5095
  428TIP3    H225480   1.252   1.636  14.913 -0.5814  0.0808  0.0498
  429TIP3   OH225481   6.522   6.705  17.601 -0.4249 -0.6302  0.1802
  429TIP3    H125482   6.436   6.663  17.611 -0.0073 -1.1214  2.1367
  429TIP3    H225483   6.585   6.640  17.630  0.5619  0.0147 -0.4509
  430TIP3   OH225484   7.553   4.758  17.817  0.8177 -0.3325 -0.0800
  430TIP3    H125485   7.567   4.805  17.899 -0.8631 -1.2891  0.8220
  430TIP3    H225486   7.496   4.815  17.765  0.0312 -0.6751  0.3824
  431TIP3   OH225487   6.213   0.491  18.000  0.0230 -1.0600 -0.0213
  431TIP3    H125488   6.225   0.552  17.928  0.6111  0.0602  0.9856
  431TIP3    H225489   6.160   0.539  18.064  1.8421 -0.9178  1.4961
  432TIP3   OH225490   3.903   7.377  16.080  0.0067 -0.0930  0.1672
  432TIP3    H125491   3.943   7.358  15.995  1.2868 -1.2832  0.9995
  432TIP3    H225492   3.943   7.460  16.108  2.6582 -1.6208  1.3329
  433TIP3   OH225493   6.852   3.859  15.897  0.3224  0.2971  0.3129
  433TIP3    H125494   6.764   3.827  15.875  0.0388  0.5313  1.0837
  433TIP3    H225495   6.860   3.941  15.848 -0.6095  1.2189  1.6516
  434TIP3   OH225496   4.397   5.382  15.724  0.3185  0.4337  0.4139
  434TIP3    H125497   4.314   5.405  15.766 -0.9416 -1.7394 -0.7118
  434TIP3    H225498   4.418   5.457  15.668 -0.3980  1.3791  1.3845
  435TIP3   OH225499   6.187   6.478  16.286 -0.2477  0.8663 -0.2647
  435TIP3    H125500   6.210   6.533  16.211 -0.8129  2.3480  0.6110
  435TIP3    H225501   6.119   6.420  16.253  2.0305 -1.0541 -1.8753
  436TIP3   OH225502   5.748   0.692  17.661  0.3930 -0.3599  0.0053
  436TIP3    H125503   5.708   0.758  17.604 -0.1732  0.8238  1.7027
  436TIP3    H225504   5.837   0.724  17.676  0.1489 -0.0047  0.7518
  437TIP3   OH225505   1.211   5.389  17.667  0.0229  0.4694  0.3841
  437TIP3    H125506   1.151   5.453  17.707 -0.4324 -0.0100  0.4884
  437TIP3    H225507   1.277   5.373  17.735  1.0524  1.9832 -0.2027
  438TIP3   OH225508   3.468   6.990  15.835 -0.0898 -0.9295 -0.4746
  438TIP3    H125509   3.389   6.953  15.875 -0.5852 -0.5024 -1.0252
  438TIP3    H225510   3.538   6.971  15.897 -1.2453  2.1290  2.0419
  439TIP3   OH225511   8.039   6.577  16.393  0.0089 -0.4489 -0.0345
  439TIP3    H125512   8.129   6.545  16.396  0.3648  0.5378  0.1115
  439TIP3    H225513   8.000   6.533  16.317  0.5592 -0.9957 -0.0066
  440TIP3   OH225514   1.876   0.738  15.921  0.0514  0.2486  0.3565
  440TIP3    H125515   1.878   0.643  15.919 -0.5927  0.2374 -0.3989
  440TIP3    H225516   1.964   0.764  15.894  0.1411 -0.1275  0.2791
  441TIP3   OH225517   2.570   3.125  16.605 -0.3335  0.2333 -0.3415
  441TIP3    H125518   2.508   3.056  16.628  0.5270 -0.6441 -0.5615
  441TIP3    H225519   2.617   3.090  16.528  0.9554  0.5289  0.2822
  442TIP3   OH225520   2.124   0.905  16.190 -0.2139  0.0256  0.3510
  442TIP3    H125521   2.123   0.962  16.114  0.4681  0.0944  0.3857
  442TIP3    H225522   2.100   0.962  16.264  3.2242  1.0450  0.8683
  443TIP3   OH225523   6.846   1.034  16.277 -0.4525  0.4085  0.2552
  443TIP3    H125524   6.756   1.062  16.257 -0.9310 -1.1922  0.0329
  443TIP3    H225525   6.888   1.024  16.192 -1.2048 -2.3057  0.1009
  444TIP3   OH225526   7.404   4.786  17.412 -0.3046 -0.0209 -0.3615
  444TIP3    H125527   7.375   4.797  17.321 -0.5649  2.3966 -0.0413
  444TIP3    H225528   7.499   4.775  17.405 -0.3213  0.1427 -0.9165
  445TIP3   OH225529   1.201   1.635  16.763  0.4963  0.1325  0.3823
  445TIP3    H125530   1.219   1.553  16.716 -0.1537 -0.2329  0.7616
  445TIP3    H225531   1.204   1.702  16.695  0.3139 -0.2966 -0.0574
  446TIP3   OH225532   7.176   5.235  17.365 -0.1594  0.2587  0.2713
  446TIP3    H125533   7.106   5.260  17.305  0.4334  0.5284 -0.3151
  446TIP3    H225534   7.239   5.186  17.312 -0.1553 -0.4413  0.9078
  447TIP3   OH225535   7.555   2.548  15.577  0.4098  0.1685  0.2133
  447TIP3    H125536   7.524   2.512  15.493 -0.5761 -2.1039  1.4504
  447TIP3    H225537   7.633   2.598  15.555 -1.0590  1.5382 -2.3481
  448TIP3   OH225538   1.601   5.983  16.795  0.8320 -0.9638 -0.1062
  448TIP3    H125539   1.602   6.060  16.852 -0.9845 -1.6897  0.9626
  448TIP3    H225540   1.661   6.006  16.723 -1.0058  2.2305 -0.8116
  449TIP3   OH225541   8.146   2.027  15.725  0.0541 -0.2476  0.5347
  449TIP3    H125542   8.170   1.937  15.707 -0.5099 -0.5096  1.0727
  449TIP3    H225543   8.132   2.066  15.639  2.0034 -0.1797  0.2062
  450TIP3   OH225544   5.006   7.889  17.082  0.1861  0.0124 -0.0009
  450TIP3    H125545   4.992   7.961  17.143 -1.9984 -1.4833  1.4387
  450TIP3    H225546   4.941   7.903  17.013 -0.8197 -0.9100  0.7075
  451TIP3   OH225547   7.553   7.138  17.069  0.0666  0.0329  0.4272
  451TIP3    H125548   7.622   7.198  17.040 -0.1049 -0.0494 -0.1654
  451TIP3    H225549   7.587   7.099  17.149  0.7038  0.0054  0.1450
  452TIP3   OH225550   2.264   1.394  17.217  0.3864  0.0189 -0.0123
  452TIP3    H125551   2.174   1.378  17.191 -0.3213  1.4720  1.3780
  452TIP3    H225552   2.258   1.462  17.285  2.4235 -0.7088  0.9751
  453TIP3   OH225553   4.593   6.504  16.664  0.7028  0.4726  0.3841
  453TIP3    H125554   4.600   6.582  16.608  1.0022  0.1010 -0.0976
  453TIP3    H225555   4.646   6.438  16.621 -1.0945 -0.6254 -0.2667
  454TIP3   OH225556   7.952   2.812  17.221 -0.1924 -0.3654  0.0706
  454TIP3    H125557   7.896   2.886  17.201 -2.2470 -1.9949 -0.6525
  454TIP3    H225558   7.988   2.831  17.308 -2.6361  0.3976  1.0125
  455TIP3   OH225559   0.673   8.182  16.523 -1.2659  0.3245 -0.0957
  455TIP3    H125560   0.741   8.126  16.487  1.6714  2.7312  1.2418
  455TIP3    H225561   0.603   8.181  16.458 -0.4447 -3.0469 -1.0908
  456TIP3   OH225562   4.156   3.273  17.338  0.4504  0.1412  0.0913
  456TIP3    H125563   4.110   3.336  17.394  1.8730 -0.7191  2.3656
  456TIP3    H225564   4.091   3.204  17.321  0.3707 -0.3206  2.0047
  457TIP3   OH225565   4.908   4.847  16.832  0.4676 -0.3556  0.0293
  457TIP3    H125566   4.919   4.757  16.863  1.6086 -0.8562 -1.6496
  457TIP3    H225567   4.858   4.839  16.751  0.4064  0.5540 -0.0363
  458TIP3   OH225568   7.937   2.018  17.708 -0.2685 -0.2894 -0.3514
  458TIP3    H125569   7.967   1.959  17.778  0.0889  0.5782  0.2476
  458TIP3    H225570   7.875   1.966  17.658 -0.6493 -0.9004  0.7122
  459TIP3   OH225571   6.470   8.325  16.391  0.1776 -0.4433  1.0024
  459TIP3    H125572   6.532   8.391  16.422  2.0137 -2.1593  1.1988
  459TIP3    H225573   6.476   8.254  16.456  0.8370 -2.2377 -0.8796
  460TIP3   OH225574   1.752   3.420  16.088 -0.0085 -0.2904 -0.1595
  460TIP3    H125575   1.701   3.345  16.119 -0.3885 -0.3747 -0.9786
  460TIP3    H225576   1.819   3.382  16.031 -0.2296 -0.0002 -0.6124
  461TIP3   OH225577   0.006   5.662  16.326  0.4114  0.2810  0.3682
  461TIP3    H125578   0.062   5.676  16.249  2.0865  2.7898  1.9038
  461TIP3    H225579   0.067   5.637  16.395 -0.9866 -1.2333  1.1156
  462TIP3   OH225580   1.432   5.387  17.288  0.1160 -0.0324 -0.3453
  462TIP3    H125581   1.493   5.336  17.341 -1.6730 -1.5971  0.3429
  462TIP3    H225582   1.410   5.463  17.342  1.2792  0.4568 -0.5324
  463TIP3   OH225583   2.600   6.146  17.202  0.1151 -0.1364 -0.1683
  463TIP3    H125584   2.531   6.139  17.136 -0.1116  2.3533 -0.2739
  463TIP3    H225585   2.560   6.195  17.273  1.8239  1.6130 -0.3512
  464TIP3   OH225586   2.033   2.627  17.034  0.0294  0.2533 -0.3223
  464TIP3    H125587   1.948   2.666  17.014  1.4511  2.2179 -3.3437
  464TIP3    H225588   2.065   2.677  17.109  0.3321  2.7529 -1.9913
  465TIP3   OH225589   1.725   1.723  17.103 -0.4542 -0.4450 -0.1231
  465TIP3    H125590   1.669   1.757  17.032  0.8876  0.9667 -0.5587
  465TIP3    H225591   1.762   1.801  17.143 -0.6899 -1.2549  1.7739
  466TIP3   OH225592   2.755   2.717  15.844  0.0508  0.5985 -0.0304
  466TIP3    H125593   2.669   2.708  15.803 -0.3893  1.4444  0.6898
  466TIP3    H225594   2.791   2.797  15.807  0.6308  0.1429 -0.4810
  467TIP3   OH225595   1.862   4.775  16.962  0.5217  0.6112 -0.3508
  467TIP3    H125596   1.931   4.759  16.898  1.6820 -0.2525  1.0744
  467TIP3    H225597   1.871   4.868  16.983 -0.0154  0.9639 -1.5621
  468TIP3   OH225598   2.853   6.383  16.130 -0.5710 -0.0722  0.2544
  468TIP3    H125599   2.936   6.417  16.162 -0.6151  0.1007  0.1833
  468TIP3    H225600   2.874   6.295  16.098 -0.3201  0.1457 -0.1910
  469TIP3   OH225601   4.838   3.477  15.814 -0.2302  0.4629  0.4651
  469TIP3    H125602   4.811   3.549  15.870 -2.9608  0.7137 -0.9829
  469TIP3    H225603   4.756   3.431  15.794  1.0894 -1.5278 -0.7000
  470TIP3   OH225604   2.376   3.820  16.126  0.5337  0.2551  0.6853
  470TIP3    H125605   2.468   3.821  16.156  0.7199 -1.2120  0.2646
  470TIP3    H225606   2.345   3.732  16.149 -1.3479  1.3016  2.4469
  471TIP3   OH225607   5.403   1.857  17.551 -0.2304  0.6534  0.6476
  471TIP3    H125608   5.379   1.810  17.471 -1.4710  0.1214  1.3126
  471TIP3    H225609   5.431   1.943  17.520 -2.4867  1.1401 -0.2642
  472TIP3   OH225610   2.696   3.649  17.885  0.1156  0.6616 -1.0404
  472TIP3    H125611   2.726   3.573  17.935  1.6379  0.2088 -2.5536
  472TIP3    H225612   2.609   3.624  17.853 -0.6604  0.7499  0.8453
  473TIP3   OH225613   6.344   3.697  16.505  0.6829  0.4231 -0.0610
  473TIP3    H125614   6.345   3.623  16.445 -0.5793 -0.3973  0.8865
  473TIP3    H225615   6.301   3.767  16.456 -1.6674 -0.6715  0.2902
  474TIP3   OH225616   7.510   8.377  16.600 -0.2287  0.5134 -0.4928
  474TIP3    H125617   7.434   8.365  16.543  0.5231  1.0076 -1.6426
  474TIP3    H225618   7.585   8.372  16.541  0.5241  2.3673  0.2109
  475TIP3   OH225619   0.033   1.810  16.922  0.1203 -0.5447 -0.4083
  475TIP3    H125620   0.090   1.734  16.908  0.4001 -0.2933 -0.6479
  475TIP3    H225621   0.068   1.877  16.864 -1.0531 -0.7054 -1.3412
  476TIP3   OH225622   1.545   6.205  17.889  0.4037  0.7732 -0.4406
  476TIP3    H125623   1.509   6.212  17.800 -0.3490  0.2575 -0.1846
  476TIP3    H225624   1.484   6.148  17.935  2.1272 -1.0102 -0.2658
  477TIP3   OH225625   3.995   5.796  16.749 -0.0820  0.6742  0.1426
  477TIP3    H125626   4.000   5.842  16.665  1.6909 -0.6819 -0.5664
  477TIP3    H225627   4.078   5.817  16.793  0.1712 -0.7102  0.3854
  478TIP3   OH225628   0.681   4.723  16.173 -0.1691 -0.2349  0.3318
  478TIP3    H125629   0.698   4.796  16.113 -1.7839  0.8035  1.0655
  478TIP3    H225630   0.586   4.721  16.183  0.0139 -0.2360  2.9581
  479TIP3   OH225631   6.469   1.206  17.435 -0.3156  0.5407 -0.5562
  479TIP3    H125632   6.504   1.142  17.497 -0.7916 -0.1574 -0.9926
  479TIP3    H225633   6.518   1.190  17.354  0.3192  1.4625 -0.3670
  480TIP3   OH225634   7.354   7.182  17.646  0.0050  0.5605 -0.2856
  480TIP3    H125635   7.354   7.276  17.625  0.7924  0.4241 -0.9481
  480TIP3    H225636   7.342   7.179  17.741  1.1505  1.3752 -0.0952
  481TIP3   OH225637   3.776   1.949  16.949 -0.4615  0.7647  0.2386
  481TIP3    H125638   3.776   1.989  17.035 -0.9158 -0.7231  0.9579
  481TIP3    H225639   3.728   1.867  16.960 -0.8189  0.7058 -1.5027
  482TIP3   OH225640   0.446   7.548  15.731  0.2356  0.3170  0.2581
  482TIP3    H125641   0.380   7.491  15.691 -0.6942  0.7699  1.0926
  482TIP3    H225642   0.508   7.487  15.771 -0.1712 -0.1264  0.2318
  483TIP3   OH225643   7.279   6.185  17.655  0.2893 -0.1308 -0.7760
  483TIP3    H125644   7.190   6.197  17.689  0.2726  1.0369 -1.1924
  483TIP3    H225645   7.293   6.261  17.598  1.0958 -0.9417 -1.6917
  484TIP3   OH225646   7.679   4.763  17.431  0.2074  0.2586 -0.2102
  484TIP3    H125647   7.768   4.797  17.441  0.7997 -1.4555  0.6818
  484TIP3    H225648   7.688   4.689  17.371 -0.8141  0.7543 -1.0006
  485TIP3   OH225649   7.562   6.316  16.728  0.2301 -0.2144 -0.5391
  485TIP3    H125650   7.496   6.374  16.764 -0.3129 -0.4463 -1.1571
  485TIP3    H225651   7.644   6.365  16.736 -0.3627  1.0907 -2.0281
  486TIP3   OH225652   4.993   6.328  17.169 -0.6944 -0.1694 -0.2499
  486TIP3    H125653   4.902   6.338  17.196 -0.1210  2.5178  1.0137
  486TIP3    H225654   5.042   6.322  17.251  0.4929  1.1447 -0.8319
  487TIP3   OH225655   2.466   1.311  17.015 -0.2428 -0.2991  0.3946
  487TIP3    H125656   2.532   1.380  17.018  0.2301 -0.7379  0.1260
  487TIP3    H225657   2.395   1.345  17.070 -1.3564  1.7780 -2.0828
  488TIP3   OH225658   5.870   6.227  17.523  0.0646 -0.9572 -0.2961
  488TIP3    H125659   5.911   6.292  17.579 -0.3387 -1.1584  0.2383
  488TIP3    H225660   5.909   6.144  17.550  0.5745 -0.9476 -0.9712
  489TIP3   OH225661   7.453   8.043  17.249 -0.2603 -0.3714  0.0950
  489TIP3    H125662   7.487   7.990  17.321  0.9129 -0.4028 -0.4540
  489TIP3    H225663   7.374   7.998  17.220 -0.6975 -0.4035  1.2937
  490TIP3   OH225664   5.698   6.861  16.790  0.1525 -0.2627  1.0146
  490TIP3    H125665   5.707   6.796  16.860  0.2800  0.3778  1.6022
  490TIP3    H225666   5.705   6.810  16.709 -1.1492 -1.1956  1.4424
  491TIP3   OH225667   4.552   5.072  17.089 -0.2933 -0.3863  0.1646
  491TIP3    H125668   4.617   5.108  17.150 -0.5768  1.4002 -0.5263
  491TIP3    H225669   4.578   5.106  17.003 -0.7579 -1.6475 -0.4991
  492TIP3   OH225670   7.107   4.385  16.948 -0.3330 -0.1603 -0.1810
  492TIP3    H125671   7.124   4.311  16.890  0.1260 -1.2681  1.3138
  492TIP3    H225672   7.040   4.436  16.902 -0.8686 -1.6384 -1.1141
  493TIP3   OH225673   6.288   1.009  17.853  0.1352 -0.0337 -0.4436
  493TIP3    H125674   6.260   0.969  17.771  0.0550  2.5259 -1.7793
  493TIP3    H225675   6.305   1.100  17.830 -0.4939  0.9453  2.5324
  494TIP3   OH225676   6.935   3.354  16.946  0.4707  0.4399 -0.0297
  494TIP3    H125677   6.936   3.299  16.867  0.3898 -0.6256  0.6973
  494TIP3    H225678   7.027   3.377  16.961  0.3892  1.5659 -1.0307
  495TIP3   OH225679   5.790   5.549  16.087  0.3853 -0.4547 -0.3519
  495TIP3    H125680   5.717   5.489  16.105  0.5023 -0.1553  1.2371
  495TIP3    H225681   5.868   5.495  16.094  0.3464 -1.0839 -3.3520
  496TIP3   OH225682   4.142   1.537  16.119 -0.1177 -0.9059 -0.6436
  496TIP3    H125683   4.101   1.454  16.094 -0.3790 -0.7122 -0.8623
  496TIP3    H225684   4.236   1.519  16.115 -0.1650 -1.0993 -1.0252
  497TIP3   OH225685   7.833   1.397  16.811  0.2869  0.4530  0.4955
  497TIP3    H125686   7.851   1.469  16.750 -2.7219 -0.0316 -1.1505
  497TIP3    H225687   7.894   1.328  16.785  1.2573  1.3623  0.2353
  498TIP3   OH225688   3.093   1.993  15.976  0.2872  0.0870  0.2538
  498TIP3    H125689   3.063   2.072  16.021  0.7143  0.6420 -0.4151
  498TIP3    H225690   3.117   1.933  16.046  0.3816  0.7175  0.7682
  499TIP3   OH225691   3.985   7.955  15.586  0.0373 -0.5831  0.0678
  499TIP3    H125692   4.058   8.011  15.612  0.1129 -1.1588  1.1562
  499TIP3    H225693   3.944   8.001  15.513  0.5043  0.5525  0.5000
  500TIP3   OH225694   5.782   5.433  16.683 -0.2186 -0.0198  0.0012
  500TIP3    H125695   5.760   5.448  16.591  2.2506  2.4800 -0.3062
  500TIP3    H225696   5.776   5.520  16.723 -0.2473 -0.8860  1.9926
  501TIP3   OH225697   4.380   0.658  15.889 -0.3521  0.2282 -0.5247
  501TIP3    H125698   4.374   0.604  15.810  1.5159  0.7208 -1.0607
  501TIP3    H225699   4.369   0.748  15.857  0.5210  0.4407 -0.2621
  502TIP3   OH225700   4.535   7.749  16.663 -0.5854  0.0799  0.1319
  502TIP3    H125701   4.457   7.797  16.691 -1.5982 -1.4786  0.1624
  502TIP3    H225702   4.560   7.698  16.740  0.4320  0.4923  0.0907
  503TIP3   OH225703   3.504   5.860  17.503 -0.1568 -0.0580  0.3945
  503TIP3    H125704   3.566   5.931  17.485 -1.2253  1.4710  2.3467
  503TIP3    H225705   3.482   5.871  17.596 -1.8522 -1.7502  0.2339
  504TIP3   OH225706   4.324   2.022  16.472  0.1802  0.3798 -0.3022
  504TIP3    H125707   4.267   2.044  16.546  3.0931  0.0938  2.2383
  504TIP3    H225708   4.283   1.947  16.430 -2.1430  1.2569  0.2719
  505TIP3   OH225709   0.398   1.345  16.460  0.2894 -0.6868  0.2939
  505TIP3    H125710   0.407   1.301  16.376 -0.6352 -1.4267  0.5648
  505TIP3    H225711   0.391   1.274  16.524  2.3326 -0.1414  1.1773
  506TIP3   OH225712   6.986   7.714  17.887 -0.3412 -0.1622  0.0771
  506TIP3    H125713   6.908   7.664  17.910  0.7355 -0.9392  2.3623
  506TIP3    H225714   7.044   7.651  17.845 -0.1302 -0.1178  0.2961
  507TIP3   OH225715   7.006   8.448  16.404 -0.2257  0.5115  0.5598
  507TIP3    H125716   7.069   8.492  16.347 -0.6818 -1.4801 -1.6365
  507TIP3    H225717   7.061   8.402  16.468  0.5245  0.1141 -0.3267
  508TIP3   OH225718   6.014   2.003  17.089  0.4873 -0.3361  0.0216
  508TIP3    H125719   5.938   2.047  17.051 -0.3246  0.5359  2.4555
  508TIP3    H225720   6.036   1.934  17.026 -2.0539 -0.3404 -0.9740
  509TIP3   OH225721   5.186   0.393  17.027 -0.5257  0.0703  0.4172
  509TIP3    H125722   5.162   0.303  17.005 -0.5161  0.2930 -0.5514
  509TIP3    H225723   5.265   0.384  17.081 -0.2293 -0.4833 -0.0937
  510TIP3   OH225724   7.043   2.906  17.043  0.2981 -0.1107  0.0682
  510TIP3    H125725   7.067   2.823  17.003 -0.7038 -0.3704 -0.0196
  510TIP3    H225726   7.116   2.927  17.102  0.5909 -1.0060  0.0272
  511TIP3   OH225727   0.877   6.634  16.519  0.0304  0.0135 -0.7243
  511TIP3    H125728   0.784   6.654  16.509 -0.6765 -1.1488  2.3602
  511TIP3    H225729   0.920   6.719  16.516 -1.5623  0.9601  0.9857
  512TIP3   OH225730   5.336   8.033  15.411  0.1459 -0.1077  0.9500
  512TIP3    H125731   5.400   8.068  15.473  1.7696 -1.9154  0.4002
  512TIP3    H225732   5.361   7.941  15.401 -1.8645 -0.5786 -0.1790
  513TIP3   OH225733   1.001   1.107  16.706  0.2963  0.0112 -0.2171
  513TIP3    H125734   1.013   1.106  16.801 -0.5596  1.7077 -0.0489
  513TIP3    H225735   1.014   1.017  16.679  2.4018 -0.1932  1.2638
  514TIP3   OH225736   6.393   3.493  16.029 -0.8900  0.0963 -0.4435
  514TIP3    H125737   6.482   3.458  16.021 -0.5553  0.6214  0.8345
  514TIP3    H225738   6.341   3.440  15.967  0.1169 -0.8471 -0.5166
  515TIP3   OH225739   2.071   5.448  17.517 -0.0765  0.4025 -0.1734
  515TIP3    H125740   2.017   5.428  17.441  0.2786 -0.2677 -0.2563
  515TIP3    H225741   2.156   5.473  17.480  0.6025 -1.4774  0.0214
  516TIP3   OH225742   2.491   3.690  16.370  0.0861 -0.1785  0.7238
  516TIP3    H125743   2.427   3.759  16.389  0.2579  0.6236 -1.3703
  516TIP3    H225744   2.560   3.734  16.319  1.6518 -1.3147  1.7572
  517TIP3   OH225745   6.923   0.654  16.635 -0.3069 -0.7759 -0.2931
  517TIP3    H125746   6.910   0.747  16.617 -1.3454 -0.8950 -0.2490
  517TIP3    H225747   6.990   0.652  16.703  0.7664 -0.1448 -1.3023
  518TIP3   OH225748   5.311   3.331  17.658  0.8944  0.0565 -0.3866
  518TIP3    H125749   5.259   3.384  17.719  0.2779 -1.0982  0.1136
  518TIP3    H225750   5.346   3.395  17.596  0.6644  1.1288  0.5521
  519TIP3   OH225751   4.012   3.810  16.679 -0.0710 -0.0659  0.2031
  519TIP3    H125752   4.064   3.856  16.745  0.0084 -0.5201  0.4616
  519TIP3    H225753   4.074   3.787  16.611 -0.3072  1.1788 -0.4707
  520TIP3   OH225754   4.769   7.898  17.775 -0.2758 -0.7611  0.3411
  520TIP3    H125755   4.741   7.823  17.827 -1.7980  0.3177  1.1545
  520TIP3    H225756   4.697   7.912  17.713  0.4423 -0.5717 -0.4619
  521TIP3   OH225757   1.325   6.192  16.890 -0.0234 -0.7580 -0.6074
  521TIP3    H125758   1.366   6.177  16.804  2.4801 -0.4128  0.4216
  521TIP3    H225759   1.269   6.115  16.904  0.4576 -1.4025 -2.0348
  522TIP3   OH225760   6.863   1.456  17.773  0.1781  0.6814  0.2376
  522TIP3    H125761   6.930   1.394  17.746 -0.3621  0.5509 -0.8626
  522TIP3    H225762   6.875   1.531  17.714  0.2596  1.2544  0.9687
  523TIP3   OH225763   7.296   3.278  17.571 -0.5734  0.2633 -0.1177
  523TIP3    H125764   7.364   3.281  17.638 -0.2591 -0.6396 -0.3764
  523TIP3    H225765   7.214   3.293  17.618 -0.2551  0.7219  0.2928
  524TIP3   OH225766   3.437   2.455  16.157  0.3485 -0.2758  0.6169
  524TIP3    H125767   3.342   2.464  16.169  0.2674  0.4858 -0.4028
  524TIP3    H225768   3.467   2.544  16.137  1.0906 -0.7053 -0.2398
  525TIP3   OH225769   1.595   0.517  16.656 -0.3904  0.0448 -0.0537
  525TIP3    H125770   1.533   0.528  16.729 -0.1444 -0.5418  0.2442
  525TIP3    H225771   1.592   0.424  16.636  0.4482 -0.0022  0.0111
  526TIP3   OH225772   7.365   7.972  16.478  0.1507 -0.1922  0.0329
  526TIP3    H125773   7.308   7.966  16.402 -0.5265 -0.5377  0.5585
  526TIP3    H225774   7.336   7.901  16.535 -0.5808  1.1806  1.4374
  527TIP3   OH225775   4.402   3.107  16.922  0.1208 -0.0800  0.5725
  527TIP3    H125776   4.427   3.190  16.881  1.2749  0.4338  2.2292
  527TIP3    H225777   4.409   3.043  16.852 -1.6159  1.2969 -0.9898
  528TIP3   OH225778   1.478   3.389  16.762 -0.0997 -0.3111  0.4829
  528TIP3    H125779   1.464   3.469  16.712  0.1647  0.2725  1.3161
  528TIP3    H225780   1.549   3.344  16.717  0.2727  0.3080  0.4430
  529TIP3   OH225781   3.063   6.219  16.359  0.0858 -0.4439 -0.2487
  529TIP3    H125782   3.020   6.198  16.275 -2.2067  3.1746 -0.1884
  529TIP3    H225783   2.999   6.193  16.425  0.9218 -1.1798  0.2882
  530TIP3   OH225784   7.669   6.618  17.266 -0.0858 -0.1141 -0.2346
  530TIP3    H125785   7.591   6.636  17.214 -0.0008  0.7890 -0.0715
  530TIP3    H225786   7.741   6.617  17.203 -0.0182  0.7193 -0.1901
  531TIP3   OH225787   2.515   5.204  16.312  0.4027 -0.0648  0.0117
  531TIP3    H125788   2.592   5.199  16.255  0.0726  0.2070 -0.4689
  531TIP3    H225789   2.551   5.217  16.400  0.9205 -0.5512 -0.1230
  532TIP3   OH225790   3.959   1.917  17.439  0.2006 -0.0675 -0.1149
  532TIP3    H125791   3.914   1.832  17.433 -0.8530  0.2183  2.5310
  532TIP3    H225792   4.024   1.915  17.368 -0.4784 -2.6475 -0.7593
  533TIP3   OH225793   6.482   7.826  16.500  0.2423  0.0371 -0.5258
  533TIP3    H125794   6.497   7.912  16.538 -0.2051  0.1906 -0.6850
  533TIP3    H225795   6.521   7.764  16.562 -2.3122  0.1166  1.3393
  534TIP3   OH225796   0.692   5.661  16.677 -0.5124 -0.0441 -0.3688
  534TIP3    H125797   0.754   5.667  16.605  0.3073  0.6551  0.3645
  534TIP3    H225798   0.610   5.633  16.637 -0.5013  1.7996 -1.8278
  535TIP3   OH225799   7.942   2.963  16.463  0.2596 -0.6670 -0.3106
  535TIP3    H125800   8.035   2.953  16.478  0.1917 -0.5785  0.1649
  535TIP3    H225801   7.913   2.879  16.429  0.3119 -1.0394  0.5479
  536TIP3   OH225802   0.173   0.588  15.978 -0.1305 -0.1395 -0.3847
  536TIP3    H125803   0.231   0.561  15.907  0.5457  0.4161 -0.0565
  536TIP3    H225804   0.103   0.637  15.934 -0.4577 -0.9702 -0.8007
  537TIP3   OH225805   1.961   0.044  17.675  0.0469 -0.4794  0.2655
  537TIP3    H125806   1.930   0.124  17.719 -0.3341  0.0306 -0.8976
  537TIP3    H225807   2.056   0.050  17.681  0.0084 -0.3334  0.8584
  538TIP3   OH225808   6.988   6.130  15.860  0.2529 -0.0146  0.1732
  538TIP3    H125809   6.960   6.207  15.810 -2.4761 -0.3371  1.0654
  538TIP3    H225810   6.994   6.060  15.795  1.9298  0.6894 -0.5000
  539TIP3   OH225811   3.018   1.260  17.578 -0.3691  0.0063  0.0816
  539TIP3    H125812   2.923   1.251  17.575 -0.5895  2.0253 -1.2336
  539TIP3    H225813   3.038   1.322  17.508  2.1885 -2.2286 -1.3915
  540TIP3   OH225814   1.595   2.779  16.701  0.4276 -0.1627  0.2058
  540TIP3    H125815   1.594   2.845  16.632  1.4329  0.3772  0.6764
  540TIP3    H225816   1.512   2.733  16.693  0.6993 -0.4058 -1.6469
  541TIP3   OH225817   0.015   6.257  16.042 -0.0776  0.1103  1.1725
  541TIP3    H125818   0.084   6.194  16.024  1.0307  1.3195  1.0716
  541TIP3    H225819   0.006   6.308  15.961 -0.1455  0.8156  1.6080
  542TIP3   OH225820   0.519   7.724  17.374 -0.3086  0.5856  0.1579
  542TIP3    H125821   0.576   7.793  17.407 -1.6734  1.0597  1.6751
  542TIP3    H225822   0.578   7.650  17.356  0.6849  0.5700  2.9872
  543TIP3   OH225823   3.985   5.192  17.205 -0.1218 -0.3047 -0.2553
  543TIP3    H125824   3.982   5.157  17.294 -0.0640  0.7278  0.1791
  543TIP3    H225825   4.022   5.280  17.216  0.5914 -0.4390 -1.3981
  544TIP3   OH225826   4.620   7.982  16.531  0.0381 -0.0095 -0.1214
  544TIP3    H125827   4.621   7.895  16.569 -0.5472  0.6207  1.3986
  544TIP3    H225828   4.621   8.042  16.605 -0.2435  1.2822 -1.1078
  545TIP3   OH225829   7.779   0.828  15.991 -0.4076  0.4715 -0.2801
  545TIP3    H125830   7.735   0.910  15.969  0.2062  0.4227 -1.7867
  545TIP3    H225831   7.873   0.848  15.983 -0.2213 -0.1063  0.3477
  546TIP3   OH225832   8.104   0.962  16.283  0.3448  0.1898  0.2686
  546TIP3    H125833   8.011   0.953  16.304  0.8156  0.9678  3.1584
  546TIP3    H225834   8.142   0.878  16.305  0.1518 -0.7483 -2.6192
  547TIP3   OH225835   5.603   7.649  17.733  0.2157  0.0331  0.2814
  547TIP3    H125836   5.617   7.568  17.783 -0.6315  0.7733  1.7986
  547TIP3    H225837   5.528   7.630  17.677  0.2424 -0.3521  0.3744
  548TIP3   OH225838   6.385   8.293  17.682  0.3836 -0.1312  0.6807
  548TIP3    H125839   6.422   8.300  17.594  0.0464 -1.8033  0.3861
  548TIP3    H225840   6.376   8.384  17.711 -0.3220  0.4917 -1.3368
  549TIP3   OH225841   2.216   5.815  16.689  0.3293  0.4087 -0.6070
  549TIP3    H125842   2.187   5.751  16.624 -0.7343  0.9219 -0.6407
  549TIP3    H225843   2.141   5.873  16.702  0.6873  0.6028  0.7268
  550TIP3   OH225844   6.628   6.396  17.654 -0.2125 -0.1127 -0.3736
  550TIP3    H125845   6.686   6.392  17.730 -0.6018  3.0321  0.2065
  550TIP3    H225846   6.686   6.389  17.579  0.4044 -1.2060  0.1762
  551TIP3   OH225847   1.233   3.212  15.995  0.2234 -0.2051 -0.2223
  551TIP3    H125848   1.309   3.182  15.946  0.6853 -1.4071  1.1616
  551TIP3    H225849   1.175   3.136  15.998  0.1639 -0.1282  0.9869
  552TIP3   OH225850   7.380   2.095  16.327 -0.3163  0.0599 -0.0457
  552TIP3    H125851   7.352   2.101  16.235 -0.9374 -0.2836  0.1174
  552TIP3    H225852   7.422   2.009  16.334 -1.0539 -0.2892  0.1949
  553TIP3   OH225853   5.168   1.693  16.943  0.5380  0.3046 -1.0387
  553TIP3    H125854   5.104   1.628  16.973  0.6164  0.3552 -0.7595
  553TIP3    H225855   5.251   1.663  16.979  0.1562  2.1648  1.7282
  554TIP3   OH225856   3.233   6.596  17.369 -0.3673 -1.0124 -0.1032
  554TIP3    H125857   3.185   6.608  17.287  0.1317  0.7780 -0.1789
  554TIP3    H225858   3.211   6.507  17.397 -0.8007 -1.5488 -2.0017
  555TIP3   OH225859   3.907   7.259  16.588  0.3610 -0.1743  1.0416
  555TIP3    H125860   3.833   7.318  16.602  0.7977  0.1310  2.1721
  555TIP3    H225861   3.980   7.317  16.567  0.0133 -0.5482 -1.5291
  556TIP3   OH225862   7.625   0.586  16.209 -0.0779  0.0258 -0.1977
  556TIP3    H125863   7.542   0.631  16.224 -0.5514 -1.0885  0.7165
  556TIP3    H225864   7.671   0.592  16.293 -0.0693 -0.9790 -0.1101
  557TIP3   OH225865   6.192   0.860  15.713  0.2399 -0.4473 -0.2039
  557TIP3    H125866   6.240   0.943  15.715 -2.0584  1.0258 -1.1083
  557TIP3    H225867   6.259   0.793  15.711  2.2327  1.4465 -0.8576
  558TIP3   OH225868   6.708   5.847  17.129  0.3731  0.5617  0.1365
  558TIP3    H125869   6.661   5.832  17.212  2.0554 -0.8915  0.8808
  558TIP3    H225870   6.649   5.811  17.063  0.4466 -1.4355  1.0708
  559TIP3   OH225871   8.250   4.751  16.792 -0.3225 -0.0534  0.6127
  559TIP3    H125872   8.287   4.663  16.806  0.9783  0.5770  1.3737
  559TIP3    H225873   8.246   4.789  16.880 -0.4014  0.8273  0.2317
  560TIP3   OH225874   3.263   2.310  15.448 -0.5871 -0.0906  0.4079
  560TIP3    H125875   3.181   2.304  15.496 -0.3609  0.1367  0.8338
  560TIP3    H225876   3.290   2.402  15.459  0.0029 -0.2952  0.7551
  561TIP3   OH225877   5.403   8.312  16.341 -0.4978  0.4104  0.2908
  561TIP3    H125878   5.486   8.313  16.390 -0.1490 -0.7910 -0.2266
  561TIP3    H225879   5.413   8.240  16.279 -2.2380 -0.2817  0.7498
  562TIP3   OH225880   6.089   7.088  16.047 -0.1487 -0.2990  0.3325
  562TIP3    H125881   6.033   7.123  16.116  2.0033  0.4811  1.7966
  562TIP3    H225882   6.042   7.107  15.966 -2.1880 -0.1283  1.4964
  563TIP3   OH225883   0.002   2.014  16.442  0.0848  0.0872  0.3285
  563TIP3    H125884  -0.047   2.035  16.522 -0.0763  0.9413  0.0177
  563TIP3    H225885   0.045   2.097  16.418  2.1723 -0.7556  0.9163
  564TIP3   OH225886   4.387   1.187  16.721 -0.4400  0.6137 -0.8262
  564TIP3    H125887   4.476   1.157  16.737 -0.9586 -1.1262 -0.9818
  564TIP3    H225888   4.351   1.204  16.808 -0.6911 -1.0201 -0.5767
  565TIP3   OH225889   0.899   1.674  17.246 -0.1329 -0.2672  0.0003
  565TIP3    H125890   0.903   1.725  17.327  2.0605  1.0029 -0.8484
  565TIP3    H225891   0.886   1.584  17.276 -0.2882  0.2833  1.7098
  566TIP3   OH225892   1.816   4.195  15.931 -0.2977  0.0731  0.5399
  566TIP3    H125893   1.736   4.152  15.963 -0.1171  1.0547  2.4735
  566TIP3    H225894   1.826   4.271  15.989  1.1519  0.8855 -0.7248
  567TIP3   OH225895   5.520   0.674  16.779  0.1763 -0.1135  0.4643
  567TIP3    H125896   5.426   0.692  16.784  0.1520  0.4031 -1.1312
  567TIP3    H225897   5.536   0.611  16.849 -1.7623 -1.8179 -0.5184
  568TIP3   OH225898   0.762   6.151  16.878 -0.1489  0.1798 -0.1239
  568TIP3    H125899   0.739   6.188  16.964  0.4522  1.2777 -0.4193
  568TIP3    H225900   0.680   6.149  16.830 -0.0116  2.3318 -0.5278
  569TIP3   OH225901   6.821   6.389  17.826  0.0377  0.0193 -0.0928
  569TIP3    H125902   6.886   6.318  17.828 -0.2052 -0.1836  0.9806
  569TIP3    H225903   6.873   6.468  17.811  0.4182 -0.2651 -0.2900
  570TIP3   OH225904   4.203   0.526  17.576  0.2062  0.0371 -0.0162
  570TIP3    H125905   4.193   0.544  17.482 -3.3267 -0.8017  0.0348
  570TIP3    H225906   4.195   0.612  17.618 -1.1410  0.1238 -0.4049
  571TIP3   OH225907   8.243   3.821  17.547 -0.3371 -0.2564 -0.2532
  571TIP3    H125908   8.240   3.831  17.452  0.8860 -1.3307 -0.4322
  571TIP3    H225909   8.214   3.731  17.563  1.5342 -0.8342  0.1824
  572TIP3   OH225910   3.574   2.898  16.535  0.0692  0.3938 -0.4052
  572TIP3    H125911   3.506   2.893  16.602 -0.4511  1.3714 -0.8339
  572TIP3    H225912   3.560   2.982  16.492  1.8623  0.8392 -0.2040
  573TIP3   OH225913   0.299   3.844  17.826 -0.1896 -0.4286 -0.5090
  573TIP3    H125914   0.313   3.843  17.731  4.0723  0.6872 -0.0783
  573TIP3    H225915   0.356   3.775  17.860  0.0127  0.5873  1.3472
  574TIP3   OH225916   1.568   3.189  16.086 -0.1675  0.2595  0.2000
  574TIP3    H125917   1.554   3.116  16.145  0.9107 -0.5874 -0.5568
  574TIP3    H225918   1.553   3.153  15.999  1.2216  0.6837 -0.2490
  575TIP3   OH225919   4.469   7.441  16.581  0.2938  0.5280  0.2743
  575TIP3    H125920   4.476   7.526  16.536  0.3020  0.2126 -0.3274
  575TIP3    H225921   4.474   7.463  16.674  1.1109  1.1148  0.1076
  576TIP3   OH225922   8.093   3.264  17.421 -0.1318 -0.0888 -0.0285
  576TIP3    H125923   8.019   3.284  17.479 -1.2429  0.9123 -1.7070
  576TIP3    H225924   8.159   3.328  17.445 -0.6528  0.4482  0.0037
  577TIP3   OH225925   2.226   0.767  16.494 -0.0819  0.0535  0.3284
  577TIP3    H125926   2.321   0.775  16.495 -0.0923  0.1740  1.3153
  577TIP3    H225927   2.194   0.857  16.491 -0.1505  0.2091  2.9988
  578TIP3   OH225928   0.368   6.319  15.906  0.5408  0.1259  0.1489
  578TIP3    H125929   0.296   6.381  15.917  0.7339  0.5080 -0.6802
  578TIP3    H225930   0.438   6.370  15.865  1.2473 -0.2726  0.8467
  579TIP3   OH225931   2.487   1.582  17.658 -0.0157 -0.1176 -0.5020
  579TIP3    H125932   2.517   1.610  17.745 -1.8862 -0.0161  0.1620
  579TIP3    H225933   2.518   1.650  17.599  0.1223  0.5274  0.2941
  580TIP3   OH225934   4.881   7.230  16.340  0.5172 -0.3045  0.1172
  580TIP3    H125935   4.867   7.219  16.434  1.1181 -0.9230  0.1392
  580TIP3    H225936   4.861   7.323  16.323 -1.0653 -0.5392  0.5728
  581TIP3   OH225937   5.405   2.508  17.255 -0.1040 -0.5682 -0.5454
  581TIP3    H125938   5.413   2.424  17.301  1.2533 -0.0690  0.1801
  581TIP3    H225939   5.493   2.527  17.223 -0.4295  0.4976 -0.8644
  582TIP3   OH225940   3.719   0.545  17.387 -0.4733 -0.0338  0.3140
  582TIP3    H125941   3.702   0.599  17.464 -0.5215 -0.7817  0.8371
  582TIP3    H225942   3.711   0.606  17.313 -0.4569  0.6856  0.8898
  583TIP3   OH225943   1.926   6.505  17.485  0.3867  0.5170  0.3775
  583TIP3    H125944   1.917   6.570  17.555  0.0282  1.0519 -0.1565
  583TIP3    H225945   1.898   6.422  17.526 -1.4570  1.1073  0.4284
  584TIP3   OH225946   3.323   5.483  16.852  0.1932  0.2678  0.1327
  584TIP3    H125947   3.282   5.536  16.783  0.2342 -0.9957 -0.9042
  584TIP3    H225948   3.264   5.408  16.862  0.9506 -0.3019  0.4151
  585TIP3   OH225949   3.720   4.576  15.836  0.7099  0.0560  0.6418
  585TIP3    H125950   3.739   4.496  15.884  2.1843  0.4562  0.7795
  585TIP3    H225951   3.725   4.551  15.743 -0.0171 -0.2560  0.6822
  586TIP3   OH225952   0.927   2.929  17.215 -0.2832  0.4406 -0.4265
  586TIP3    H125953   0.927   3.002  17.277  0.7560 -0.3316  0.5321
  586TIP3    H225954   0.843   2.936  17.170  0.1755  2.7399 -1.0244
  587TIP3   OH225955   1.660   5.620  16.970  0.5997 -0.3468 -0.0521
  587TIP3    H125956   1.727   5.553  16.987  2.2993  1.2401 -0.1581
  587TIP3    H225957   1.654   5.625  16.875  0.5670 -0.2388 -0.0440
  588TIP3   OH225958   1.405   6.439  17.379  0.3935  0.7491 -0.0427
  588TIP3    H125959   1.494   6.468  17.359  0.3957  0.6689 -0.1488
  588TIP3    H225960   1.378   6.389  17.303  1.0268 -0.9982  0.8354
  589TIP3   OH225961   6.178   0.168  15.968 -0.2107 -0.5350 -0.0887
  589TIP3    H125962   6.206   0.114  15.894 -0.6266 -1.6198  0.5184
  589TIP3    H225963   6.156   0.252  15.929 -0.2290 -1.0171 -1.1736
  590TIP3   OH225964   5.646   7.770  16.181 -0.0028 -0.1292 -0.2756
  590TIP3    H125965   5.692   7.821  16.248 -0.1883  0.3839 -0.5301
  590TIP3    H225966   5.673   7.810  16.099 -0.1096 -0.4859 -0.4818
  591TIP3   OH225967   3.499   6.350  16.368  0.4922  0.5204 -0.0290
  591TIP3    H125968   3.582   6.305  16.355  0.1986 -0.5362  1.4986
  591TIP3    H225969   3.432   6.285  16.348  0.0616  0.3838  1.6938
  592TIP3   OH225970   7.323   1.737  16.306 -0.0128  0.2034 -0.9963
  592TIP3    H125971   7.231   1.734  16.279  0.1126 -0.5013 -1.3784
  592TIP3    H225972   7.327   1.684  16.385 -0.2396  1.6581  0.0386
  593TIP3   OH225973   0.511   2.834  17.197 -0.6641 -0.5531  0.0930
  593TIP3    H125974   0.428   2.787  17.210 -0.8544 -0.5457 -0.9866
  593TIP3    H225975   0.518   2.891  17.273 -0.8151 -1.7572  1.0390
  594TIP3   OH225976   2.443   1.798  17.091 -0.2326  0.2377  0.7567
  594TIP3    H125977   2.429   1.883  17.132  0.3510  1.3737 -1.2679
  594TIP3    H225978   2.358   1.755  17.094 -0.5140  0.8262  1.8773
  595TIP3   OH225979   5.735   6.932  17.684  0.2075  0.2069  0.4073
  595TIP3    H125980   5.820   6.891  17.703  1.0860  1.4518 -0.6037
  595TIP3    H225981   5.727   6.926  17.589 -0.7481  0.2903  0.4784
  596TIP3   OH225982   7.105   0.207  17.433 -0.1117 -0.4487 -0.4803
  596TIP3    H125983   7.132   0.186  17.523 -1.2838 -2.1115 -0.4814
  596TIP3    H225984   7.187   0.204  17.383  0.5187  0.2278  0.4559
  597TIP3   OH225985   2.011   1.331  16.365 -0.3709 -0.1416 -0.3239
  597TIP3    H125986   2.014   1.243  16.328  0.4921 -0.9583  1.5546
  597TIP3    H225987   2.103   1.357  16.373 -0.5517  0.2541  0.6226
  598TIP3   OH225988   0.210   5.532  16.495  0.0010  0.1767 -0.0404
  598TIP3    H125989   0.167   5.458  16.537 -0.1922  1.0520  1.3631
  598TIP3    H225990   0.251   5.495  16.417 -2.2739 -0.9216 -0.7937
  599TIP3   OH225991   1.586   2.998  16.526  0.2199  0.0090 -0.2565
  599TIP3    H125992   1.648   2.997  16.452  0.9554  0.8402  0.3265
  599TIP3    H225993   1.504   3.029  16.487  0.2838 -0.6668 -0.9528
  600TIP3   OH225994   6.261   7.140  16.344 -0.3800  0.2953 -0.4681
  600TIP3    H125995   6.194   7.087  16.302  2.4635 -3.1013 -1.1297
  600TIP3    H225996   6.296   7.195  16.274 -0.4410 -0.1164 -0.8213
  601TIP3   OH225997   5.278   5.268  17.489  0.4713  0.2137  0.3588
  601TIP3    H125998   5.349   5.321  17.452 -1.4729  1.3708 -1.9218
  601TIP3    H225999   5.270   5.300  17.579  0.6042  2.5130 -0.3871
  602TIP3   OH226000   8.320   6.625  16.975  0.4451  0.3136  0.0137
  602TIP3    H126001   8.276   6.549  17.015 -1.8324  1.3864 -0.2835
  602TIP3    H226002   8.251   6.668  16.924  2.6312  0.4138 -3.1084
  603TIP3   OH226003   2.373   1.654  16.179  0.4825  0.1035 -0.0510
  603TIP3    H126004   2.315   1.626  16.109 -0.0212 -1.0485  0.7977
  603TIP3    H226005   2.458   1.617  16.157  0.3182 -0.2818 -0.0394
  604TIP3   OH226006   1.474   0.374  17.050 -0.1356  0.0052 -0.2485
  604TIP3    H126007   1.392   0.358  17.003 -0.2539  3.0281 -1.2759
  604TIP3    H226008   1.541   0.370  16.983  0.1798  0.6218  0.0274
  605TIP3   OH226009   4.593   6.789  17.677  0.3946  0.2425 -0.0683
  605TIP3    H126010   4.602   6.880  17.704 -1.3116  0.4332 -0.0753
  605TIP3    H226011   4.646   6.782  17.597 -0.1961  1.4587 -0.5817
  606TIP3   OH226012   2.242   5.324  16.725 -0.1540  0.5296  0.5697
  606TIP3    H126013   2.268   5.360  16.640  0.9774  0.3616  0.8297
  606TIP3    H226014   2.325   5.306  16.770 -0.6778 -1.2037  0.9464
  607TIP3   OH226015   3.205   3.271  16.042  0.0884 -0.4646 -0.2207
  607TIP3    H126016   3.197   3.184  16.002 -2.4989  0.2944 -1.5904
  607TIP3    H226017   3.259   3.321  15.982  0.1345 -0.6462 -0.3309
  608TIP3   OH226018   4.354   1.939  17.574 -0.2876  0.4711 -0.0535
  608TIP3    H126019   4.351   1.844  17.580  1.4590  0.4769  1.8175
  608TIP3    H226020   4.365   1.957  17.480 -1.4148 -1.0928 -0.5218
  609TIP3   OH226021   0.325   1.194  16.675 -0.3162  0.3642 -0.2870
  609TIP3    H126022   0.271   1.243  16.736 -0.1137  0.7229 -0.3930
  609TIP3    H226023   0.265   1.131  16.635 -0.9525  1.5950 -1.3371
  610TIP3   OH226024   8.053   3.916  17.209  0.2933  0.0798  0.3650
  610TIP3    H126025   7.969   3.904  17.254  0.1743  1.3817  0.5152
  610TIP3    H226026   8.046   3.860  17.131  0.0135 -1.2256  1.2909
  611TIP3   OH226027   7.816   3.811  17.287 -0.0394 -0.4604  0.1995
  611TIP3    H126028   7.759   3.799  17.211  1.7035 -1.8013 -0.9640
  611TIP3    H226029   7.817   3.726  17.330  0.5355 -0.2513  0.6093
  612TIP3   OH226030   6.374   5.963  16.095  0.3211  0.7460 -0.4857
  612TIP3    H126031   6.433   5.887  16.097 -2.1064 -1.2573 -0.3605
  612TIP3    H226032   6.319   5.948  16.018 -3.4246 -0.3003  2.1597
  613TIP3   OH226033   2.887   8.382  15.841 -0.4345 -0.2674 -0.2437
  613TIP3    H126034   2.960   8.342  15.793  0.0632 -0.4092  0.6118
  613TIP3    H226035   2.832   8.421  15.773 -0.1510 -1.1330 -0.9878
  614TIP3   OH226036   1.443   7.567  16.578  0.1620 -0.2366 -0.0535
  614TIP3    H126037   1.450   7.610  16.492  2.6257  0.1009  0.2485
  614TIP3    H226038   1.422   7.476  16.557 -0.0806  0.0155 -0.9739
  615TIP3   OH226039   0.297   2.978  16.533  0.0219  0.3163 -0.3274
  615TIP3    H126040   0.300   2.922  16.455  0.3333 -0.2541  0.0879
  615TIP3    H226041   0.235   3.047  16.510  0.4067  0.3776 -1.2287
  616TIP3   OH226042   4.930   8.259  17.013 -0.5069 -0.1009  0.3720
  616TIP3    H126043   4.978   8.208  16.948  1.8625  2.5533 -0.1587
  616TIP3    H226044   4.838   8.251  16.987  0.0273 -1.8743 -1.1806
  617TIP3   OH226045   4.157   2.299  16.275  0.4119 -0.3138 -0.0342
  617TIP3    H126046   4.078   2.352  16.287  1.1367  0.7985 -0.0468
  617TIP3    H226047   4.126   2.208  16.282 -0.7869  0.1072  0.4011
  618TIP3   OH226048   5.635   3.029  16.019 -0.0450  0.2244 -0.2107
  618TIP3    H126049   5.603   3.099  15.963 -1.1246  0.2913  0.4480
  618TIP3    H226050   5.705   2.987  15.969  0.5471  1.6995 -0.6488
  619TIP3   OH226051   1.120   8.200  17.732  0.4568 -0.1560  0.2103
  619TIP3    H126052   1.070   8.196  17.650  0.3801  0.4447  0.2232
  619TIP3    H226053   1.093   8.282  17.772 -1.8811 -1.8412  2.3781
  620TIP3   OH226054   2.924   7.662  17.220 -0.0041 -0.2753 -0.1694
  620TIP3    H126055   2.983   7.732  17.247 -1.9307  1.8531 -1.1311
  620TIP3    H226056   2.901   7.684  17.130  1.1547 -3.5360 -1.4141
  621TIP3   OH226057   6.268   3.360  16.649  0.2876 -0.2718 -0.2259
  621TIP3    H126058   6.338   3.297  16.664  0.0624 -0.6623 -0.7573
  621TIP3    H226059   6.270   3.418  16.725  0.3797 -1.0293  0.3587
  622TIP3   OH226060   6.567   3.539  17.758 -0.1248 -0.3944 -0.1234
  622TIP3    H126061   6.632   3.522  17.827 -0.2720 -0.6446 -0.0428
  622TIP3    H226062   6.489   3.491  17.787 -0.3560 -0.0754 -0.2041
  623TIP3   OH226063   2.060   6.179  16.321 -0.1647 -0.7666  0.3020
  623TIP3    H126064   1.999   6.252  16.305  0.5096 -0.0692  0.8630
  623TIP3    H226065   2.003   6.105  16.340 -0.8534 -0.1517  0.7074
  624TIP3   OH226066   3.409   4.348  16.649 -0.5915 -0.2010  0.2016
  624TIP3    H126067   3.340   4.350  16.583 -0.4095  1.3047  0.0138
  624TIP3    H226068   3.455   4.432  16.638 -0.3765 -0.0377  2.0349
  625TIP3   OH226069   8.380   6.467  17.750  0.3562 -0.4711 -0.6219
  625TIP3    H126070   8.294   6.465  17.708  1.4386 -0.8173 -3.0284
  625TIP3    H226071   8.419   6.549  17.721  1.0875 -0.6213 -0.0989
  626TIP3   OH226072   1.046   7.112  16.254  0.2547 -0.0109  0.2183
  626TIP3    H126073   1.080   7.121  16.165 -0.2580 -0.9863 -0.0836
  626TIP3    H226074   1.087   7.185  16.302 -0.0826  1.0131 -0.9908
  627TIP3   OH226075   5.596   3.551  17.887  0.3230 -0.6708  0.9160
  627TIP3    H126076   5.541   3.527  17.812 -0.4865 -0.0653  1.2954
  627TIP3    H226077   5.668   3.489  17.885  0.5580 -0.4028 -0.6296
  628TIP3   OH226078   1.884   3.194  17.085  0.6536  0.5360  0.1123
  628TIP3    H126079   1.887   3.105  17.122 -0.8504  0.6265  0.4873
  628TIP3    H226080   1.852   3.182  16.996  1.2982  0.6376 -0.1453
  629TIP3   OH226081   3.807   7.841  15.774 -0.2411  0.3930  0.0112
  629TIP3    H126082   3.871   7.890  15.723  0.6462  0.5862  1.2741
  629TIP3    H226083   3.786   7.765  15.719  1.5490 -0.0199 -0.1643
  630TIP3   OH226084   5.840   6.817  16.125 -0.0608 -0.1253 -0.1993
  630TIP3    H126085   5.857   6.775  16.040  0.9675 -0.4878  0.1731
  630TIP3    H226086   5.797   6.899  16.102  0.5360 -0.0456 -1.0985
  631TIP3   OH226087   4.395   3.818  16.814  0.3128  0.0587  0.0075
  631TIP3    H126088   4.354   3.896  16.851  0.3570  0.2295 -0.3018
  631TIP3    H226089   4.336   3.747  16.836 -0.2396  0.3294 -0.5830
  632TIP3   OH226090   4.786   5.949  17.776 -0.0104  0.1034 -0.2824
  632TIP3    H126091   4.740   5.916  17.698  2.8053  0.0736 -2.0680
  632TIP3    H226092   4.817   5.871  17.821 -3.1153  0.0104  2.0415
  633TIP3   OH226093   5.070   7.439  16.661  0.4389  0.0343  0.2377
  633TIP3    H126094   4.974   7.440  16.669  0.4284 -1.0443  0.4579
  633TIP3    H226095   5.090   7.510  16.601 -0.4441  0.7812  0.7974
  634TIP3   OH226096   7.043   0.965  15.479  0.1820 -0.1745 -0.1395
  634TIP3    H126097   7.111   0.903  15.453  1.3426  1.8071 -2.2476
  634TIP3    H226098   7.091   1.034  15.525 -0.4665  0.9470 -1.1046
  635TIP3   OH226099   4.309   6.433  16.637  0.7341  0.0001  0.2832
  635TIP3    H126100   4.387   6.489  16.641  0.8640 -0.1617  0.1163
  635TIP3    H226101   4.261   6.451  16.717  0.0592  1.3747 -0.3914
  636TIP3   OH226102   3.939   6.047  16.214  0.2453  0.0228 -0.0339
  636TIP3    H126103   4.026   6.060  16.177 -0.2911 -1.4545 -2.0362
  636TIP3    H226104   3.918   5.956  16.194 -0.9381 -0.3065  2.3247
  637TIP3   OH226105   5.915   4.930  16.130 -0.4784  0.2554  0.2140
  637TIP3    H126106   5.843   4.869  16.115 -0.1524  0.3079 -1.7615
  637TIP3    H226107   5.933   4.922  16.224 -2.5260 -0.3258  0.6057
  638TIP3   OH226108   5.171   6.968  17.676 -0.0517  0.0725  0.0281
  638TIP3    H126109   5.102   7.034  17.673  0.8223  0.9978 -1.1851
  638TIP3    H226110   5.241   7.005  17.622  0.4147 -1.9290 -0.8365
  639TIP3   OH226111   2.028   0.854  16.779  0.3156  0.1272 -0.3517
  639TIP3    H126112   2.065   0.821  16.861  0.0214  0.9262  0.1156
  639TIP3    H226113   2.104   0.883  16.728  0.3559  2.0150  0.7132
  640TIP3   OH226114   0.516   2.270  16.404  0.2935  0.3465  0.5075
  640TIP3    H126115   0.583   2.225  16.351 -0.5010 -1.8155  1.2335
  640TIP3    H226116   0.564   2.341  16.447  1.2608  1.3203 -1.9779
  641TIP3   OH226117   2.303   1.371  16.339  0.6124  0.3424 -0.6720
  641TIP3    H126118   2.362   1.341  16.409  1.8119  0.1578 -1.7306
  641TIP3    H226119   2.332   1.460  16.319 -0.2812  0.7157 -0.3713
  642TIP3   OH226120   4.604   5.596  17.489  0.1365  0.3757  0.2609
  642TIP3    H126121   4.517   5.557  17.476  0.5898 -0.8685  0.8168
  642TIP3    H226122   4.596   5.642  17.573 -0.1297  0.6844  0.0671
  643TIP3   OH226123   2.250   3.862  17.551  0.2934 -0.2786 -0.4976
  643TIP3    H126124   2.304   3.889  17.478 -1.0092  1.1352 -0.9915
  643TIP3    H226125   2.303   3.879  17.629  0.9449  0.0754 -1.0152
  644TIP3   OH226126   7.725   7.127  16.034  0.3600  0.0222  1.0658
  644TIP3    H126127   7.726   7.087  16.121  0.8763 -0.7960  0.6954
  644TIP3    H226128   7.804   7.094  15.991 -0.2238 -0.1127  0.0556
  645TIP3   OH226129   7.991   5.783  16.967  0.0037 -0.8254 -0.4905
  645TIP3    H126130   7.915   5.749  17.014 -1.3608  2.7457  0.2222
  645TIP3    H226131   7.956   5.809  16.881 -0.4283  3.1773  0.6947
  646TIP3   OH226132   2.919   1.533  16.518  0.0169 -0.1170 -0.0529
  646TIP3    H126133   2.872   1.608  16.481 -2.0852 -1.0240  0.5794
  646TIP3    H226134   3.006   1.537  16.479 -0.2467  2.2611 -0.5228
  647TIP3   OH226135   8.381   0.125  16.789  0.0299 -0.1148 -0.0934
  647TIP3    H126136   8.326   0.137  16.712  0.2288  0.4834 -0.1442
  647TIP3    H226137   8.438   0.202  16.791  1.4401 -1.0815 -0.5104
  648TIP3   OH226138   6.219   3.354  15.848 -0.3966 -0.2771 -0.2187
  648TIP3    H126139   6.215   3.432  15.793 -0.0991 -0.1685 -0.0893
  648TIP3    H226140   6.127   3.326  15.857 -0.6623  0.8581  0.8688
  649TIP3   OH226141   0.375   8.027  16.533  0.2532 -0.5386 -0.1850
  649TIP3    H126142   0.396   8.120  16.524  0.4462 -0.4817  0.7130
  649TIP3    H226143   0.425   7.999  16.610 -2.5222 -0.5447  1.7588
  650TIP3   OH226144   3.235   5.678  16.641  0.4741 -0.2530  0.1284
  650TIP3    H126145   3.215   5.720  16.558 -0.1377  1.3601  1.0304
  650TIP3    H226146   3.311   5.726  16.675  0.5771 -0.7338  0.5969
  651TIP3   OH226147   3.673   3.345  16.553 -0.0830  0.2848 -0.3230
  651TIP3    H126148   3.719   3.277  16.504  0.1708 -0.6791  1.1760
  651TIP3    H226149   3.726   3.356  16.633 -0.7613  1.4036 -0.0158
  652TIP3   OH226150   4.600   6.903  15.895 -0.3078  0.0583  1.1499
  652TIP3    H126151   4.531   6.838  15.887 -0.2372  0.1475 -0.4786
  652TIP3    H226152   4.632   6.916  15.806 -0.4279  2.4463  1.3795
  653TIP3   OH226153   3.406   3.283  16.567 -0.7565 -0.1684  0.0418
  653TIP3    H126154   3.404   3.261  16.473 -2.4664  0.3975 -0.0947
  653TIP3    H226155   3.479   3.343  16.576 -0.7017 -0.0555 -0.9784
  654TIP3   OH226156   4.416   3.960  17.961 -0.4488  0.5511  0.1674
  654TIP3    H126157   4.347   3.911  18.005 -0.4859 -0.3647 -0.8615
  654TIP3    H226158   4.376   3.991  17.879  0.7657 -1.4305 -1.2635
  655TIP3   OH226159   3.378   0.888  17.543 -0.2699 -0.0060 -0.2012
  655TIP3    H126160   3.352   0.969  17.587  0.8658 -0.0249  0.5472
  655TIP3    H226161   3.341   0.896  17.455  1.0928  2.0603 -0.6656
  656TIP3   OH226162   6.743   2.150  15.377 -0.2488 -1.0128  0.0609
  656TIP3    H126163   6.726   2.243  15.362  1.5389 -0.4542  1.2739
  656TIP3    H226164   6.799   2.147  15.454 -3.0322 -3.2992  2.2731
  657TIP3   OH226165   2.276   7.740  16.036 -0.2342 -0.1165 -0.1637
  657TIP3    H126166   2.201   7.786  16.074  1.2127  0.3292  2.4144
  657TIP3    H226167   2.344   7.807  16.030  0.6749 -1.0245 -0.1973
  658TIP3   OH226168   5.503   4.147  16.349 -0.2686 -0.4205  0.1312
  658TIP3    H126169   5.433   4.160  16.286  0.4237 -1.2698 -0.8586
  658TIP3    H226170   5.583   4.173  16.302  0.2606 -1.0911  0.6361
  659TIP3   OH226171   6.395   5.674  17.514 -0.4095 -0.3580 -0.2905
  659TIP3    H126172   6.315   5.723  17.535 -0.3476 -0.6549  0.6954
  659TIP3    H226173   6.432   5.720  17.439 -1.0032  0.3583 -0.1582
  660TIP3   OH226174   6.542   1.761  17.395  0.3711  0.4024  0.3956
  660TIP3    H126175   6.593   1.767  17.476 -1.6496 -1.9727  2.0037
  660TIP3    H226176   6.475   1.695  17.414 -0.1045 -0.3818 -3.3056
  661TIP3   OH226177   6.118   5.951  17.372  0.0980  0.0204  0.0451
  661TIP3    H126178   6.212   5.956  17.352  0.0721  1.7572  0.2373
  661TIP3    H226179   6.085   5.884  17.312  1.2330  0.3325 -0.9810
  662TIP3   OH226180   1.453   3.907  16.195 -0.7400 -0.6875  0.1045
  662TIP3    H126181   1.383   3.859  16.150  0.2858 -1.5336 -0.6318
  662TIP3    H226182   1.469   3.857  16.275 -0.3962 -0.9934 -0.1499
  663TIP3   OH226183   2.656   2.559  16.502 -0.4885  0.1553  0.2594
  663TIP3    H126184   2.592   2.567  16.573 -0.4856 -0.0843  0.2872
  663TIP3    H226185   2.610   2.514  16.432 -0.8900  1.4885 -0.3776
  664TIP3   OH226186   4.055   0.811  18.013  0.1711 -0.3234 -0.9800
  664TIP3    H126187   4.144   0.846  18.016  0.2907 -0.2378 -3.5924
  664TIP3    H226188   4.000   0.883  18.043  0.9743 -0.5856  1.2867
  665TIP3   OH226189   3.322   5.319  17.376  0.0419 -0.1683  0.2966
  665TIP3    H126190   3.352   5.379  17.445  3.3699 -0.8233 -0.4120
  665TIP3    H226191   3.380   5.338  17.302 -0.5301 -2.4681 -0.8055
  666TIP3   OH226192   5.669   8.366  16.459  0.1685 -0.3154  0.7247
  666TIP3    H126193   5.724   8.324  16.524  1.5218 -0.4535 -0.4596
  666TIP3    H226194   5.647   8.451  16.497  0.6598 -0.5207  1.4872
  667TIP3   OH226195   1.101   5.112  18.006  0.0982 -0.2879 -0.4745
  667TIP3    H126196   1.037   5.042  18.021  0.4571  0.0552  4.2463
  667TIP3    H226197   1.186   5.072  18.026  0.3274  1.2148  2.1343
  668TIP3   OH226198   0.301   7.141  17.723  0.5798 -0.2176 -0.4024
  668TIP3    H126199   0.313   7.110  17.634 -3.4542  1.9842 -1.9771
  668TIP3    H226200   0.302   7.237  17.715 -1.0551  0.0434  1.6327
  669TIP3   OH226201   3.114   7.120  16.970 -0.1298 -0.0026 -0.1584
  669TIP3    H126202   3.138   7.151  17.057  0.1031 -0.8434  0.0893
  669TIP3    H226203   3.088   7.199  16.922  1.1861  0.6652  0.1977
  670TIP3   OH226204   6.079   4.174  17.319  0.1885  0.2944  0.2795
  670TIP3    H126205   6.074   4.269  17.329 -1.5439  0.3877 -0.9929
  670TIP3    H226206   6.137   4.161  17.244  0.6706  0.3263  0.6451
  671TIP3   OH226207   1.699   3.596  15.807  0.0680  0.6966  0.2291
  671TIP3    H126208   1.695   3.500  15.809 -1.3874  0.7440  1.5342
  671TIP3    H226209   1.613   3.622  15.774 -0.1503  1.5586  1.4171
  672TIP3   OH226210   8.316   6.458  15.840 -0.0900 -0.2634 -0.2463
  672TIP3    H126211   8.259   6.509  15.897  0.2933  0.5839 -0.6016
  672TIP3    H226212   8.294   6.367  15.859 -0.2078  0.0064  0.9984
  673TIP3   OH226213   7.484   3.173  16.100 -0.4709 -0.1827 -0.3775
  673TIP3    H126214   7.450   3.164  16.188  0.7279 -1.2165  0.0129
  673TIP3    H226215   7.408   3.198  16.047 -1.2908  0.0191  0.8506
  674TIP3   OH226216   2.576   7.755  16.189 -0.3474  0.3691 -0.0845
  674TIP3    H126217   2.634   7.757  16.113  0.4515  0.9826  0.5276
  674TIP3    H226218   2.522   7.677  16.176 -0.3740  0.5870 -1.3843
  675TIP3   OH226219   7.228   8.409  16.078  0.1882 -0.1652 -0.1503
  675TIP3    H126220   7.206   8.331  16.128 -0.2022 -0.5958 -0.9774
  675TIP3    H226221   7.238   8.478  16.144 -0.6423 -0.6422  0.4932
  676TIP3   OH226222   3.732   6.197  16.323 -0.0549 -0.3184  0.8010
  676TIP3    H126223   3.785   6.133  16.275 -0.4558 -0.0406 -0.0475
  676TIP3    H226224   3.795   6.261  16.355  0.2796 -0.7888  1.0886
  677TIP3   OH226225   2.236   4.188  17.123  0.0847 -0.4259  0.6946
  677TIP3    H126226   2.157   4.214  17.076  0.2278  0.5898  0.9799
  677TIP3    H226227   2.226   4.226  17.210  1.7117  1.4355  0.1676
  678TIP3   OH226228   2.101   4.772  17.421 -0.0806 -0.0605 -0.5890
  678TIP3    H126229   2.114   4.867  17.428  0.9692 -0.3179  1.6983
  678TIP3    H226230   2.023   4.763  17.366 -0.3670  2.1243 -0.6343
  679TIP3   OH226231   1.968   1.666  16.291 -0.4452 -0.2159 -0.2053
  679TIP3    H126232   2.041   1.666  16.352  0.7051  0.0281 -1.5223
  679TIP3    H226233   1.962   1.756  16.260 -3.1270  0.4556  1.8810
  680TIP3   OH226234   6.015   3.455  16.916  0.6741 -0.2420  0.1104
  680TIP3    H126235   6.110   3.457  16.926  0.5596 -0.5738  1.5186
  680TIP3    H226236   5.989   3.547  16.917  0.9431 -0.1662  0.2013
  681TIP3   OH226237   0.108   5.713  16.666 -0.5142  0.3571 -0.9619
  681TIP3    H126238   0.134   5.631  16.623  0.2776  0.5532 -0.8810
  681TIP3    H226239   0.015   5.722  16.646 -0.7435 -0.8423 -0.5073
  682TIP3   OH226240   1.705   8.109  16.603 -0.0764  0.2389  0.3393
  682TIP3    H126241   1.687   8.118  16.510 -1.3257 -0.4997  0.4676
  682TIP3    H226242   1.756   8.186  16.627  2.2422 -0.6632 -1.3927
  683TIP3   OH226243   2.530   2.379  17.370  0.2142  0.5568 -0.5654
  683TIP3    H126244   2.464   2.445  17.347  0.8543  0.6069 -2.3589
  683TIP3    H226245   2.597   2.388  17.303  2.1579  0.6081  1.2947
  684TIP3   OH226246   2.633   5.170  16.566 -0.2032  0.5838 -0.1422
  684TIP3    H126247   2.605   5.223  16.641 -1.3169 -1.5782  1.0664
  684TIP3    H226248   2.729   5.168  16.572 -0.2941 -0.7286  2.1822
  685TIP3   OH226249   0.541   7.364  17.483 -0.2778 -1.3408  0.4082
  685TIP3    H126250   0.605   7.418  17.437 -2.1051  1.0335  0.3915
  685TIP3    H226251   0.565   7.274  17.462  1.5851 -0.4897 -1.5309
  686TIP3   OH226252   1.414   6.489  17.686  0.1520  0.3160  0.0147
  686TIP3    H126253   1.462   6.519  17.608 -0.1775  2.9455  0.7159
  686TIP3    H226254   1.421   6.394  17.683  0.3486  0.3097 -3.1051
  687TIP3   OH226255   7.117   2.940  17.616 -0.5751  0.6718 -0.2650
  687TIP3    H126256   7.132   2.999  17.690  1.1972 -1.8819  1.5962
  687TIP3    H226257   7.047   2.881  17.646 -1.5318  1.0546 -1.6363
  688TIP3   OH226258   0.903   6.090  17.262 -0.2617 -0.0997 -0.2586
  688TIP3    H126259   0.985   6.128  17.231  0.5415 -0.6379  1.1413
  688TIP3    H226260   0.917   5.996  17.258 -1.3695 -0.2456 -1.4044
  689TIP3   OH226261   1.173   4.683  17.856 -0.1985 -0.0576 -0.0533
  689TIP3    H126262   1.139   4.594  17.866 -2.7001  0.6050 -1.8229
  689TIP3    H226263   1.096   4.739  17.859  1.3336  2.1269  1.2086
  690TIP3   OH226264   7.836   7.674  16.809  0.1455 -0.5680  0.6084
  690TIP3    H126265   7.842   7.673  16.713 -1.2334  1.0288  0.4507
  690TIP3    H226266   7.833   7.582  16.834 -0.2652 -1.0102 -0.9543
  691TIP3   OH226267   7.498   7.346  15.951 -0.5045  0.0535  0.0660
  691TIP3    H126268   7.440   7.385  15.884 -1.7027 -1.8752 -0.0950
  691TIP3    H226269   7.547   7.279  15.904  0.2459  0.1433  0.7001
  692TIP3   OH226270   4.308   1.301  16.214  0.5437  0.1018 -0.0618
  692TIP3    H126271   4.355   1.368  16.165 -0.1626  1.4888  1.0812
  692TIP3    H226272   4.242   1.268  16.154 -0.0079  1.4407 -0.2259
  693TIP3   OH226273   6.227   8.287  17.196 -0.6435 -0.1714 -0.0789
  693TIP3    H126274   6.288   8.353  17.230 -1.3231  1.1144 -1.2362
  693TIP3    H226275   6.278   8.206  17.193  0.4333  0.4462  0.7105
  694TIP3   OH226276   6.111   7.884  15.766  0.2942 -0.3904 -0.0129
  694TIP3    H126277   6.167   7.807  15.762  2.4459  1.1129 -0.3298
  694TIP3    H226278   6.058   7.872  15.845  1.8976 -1.3307  0.9587
  695TIP3   OH226279   0.762   2.155  16.373 -0.0449 -0.1134 -0.7410
  695TIP3    H126280   0.814   2.163  16.453 -1.4737 -2.5394  0.5055
  695TIP3    H226281   0.800   2.081  16.327 -0.6397 -0.1323 -1.2136
  696TIP3   OH226282   3.448   3.060  17.320 -0.1707 -0.1154  0.6013
  696TIP3    H126283   3.449   3.044  17.225 -1.9196  1.9436  0.1441
  696TIP3    H226284   3.361   3.095  17.337 -0.1919 -1.1999  3.1689
  697TIP3   OH226285   2.971   0.709  16.775 -0.4111 -0.2011 -0.0828
  697TIP3    H126286   2.933   0.633  16.817 -0.6392 -0.3007 -0.4687
  697TIP3    H226287   2.913   0.781  16.798 -1.7282 -0.6028 -1.9039
  698TIP3   OH226288   6.231   1.177  17.228 -0.0737  0.3867 -0.3280
  698TIP3    H126289   6.305   1.230  17.198  0.4168  1.0780  1.9100
  698TIP3    H226290   6.156   1.237  17.223  0.3352  1.1281  1.4053
  699TIP3   OH226291   0.335   0.197  16.690  0.1359  0.1912  0.4351
  699TIP3    H126292   0.269   0.244  16.742  0.6571  0.6154  0.7160
  699TIP3    H226293   0.373   0.264  16.634 -0.6083 -0.3158 -0.7084
  700TIP3   OH226294   2.861   0.143  16.885 -0.2024  0.4181  0.5900
  700TIP3    H126295   2.836   0.117  16.796 -1.4536  2.0191  0.4310
  700TIP3    H226296   2.942   0.095  16.902  0.6945  0.9237 -1.8521
  701TIP3   OH226297   1.700   3.384  16.374 -0.3263  0.5163 -0.3295
  701TIP3    H126298   1.632   3.404  16.438  0.2401  2.0901 -0.1856
  701TIP3    H226299   1.729   3.470  16.342 -0.7930 -0.1942 -2.9135
  702TIP3   OH226300   5.949   7.180  15.829 -0.2669  0.6883 -0.2536
  702TIP3    H126301   5.919   7.197  15.739  0.4860 -1.6936 -1.0252
  702TIP3    H226302   5.964   7.267  15.865 -4.2969  1.9439 -1.0584
  703TIP3   OH226303   7.592   5.380  16.555 -0.0895 -0.0993 -0.0263
  703TIP3    H126304   7.580   5.362  16.649  0.2614 -1.2877 -0.1964
  703TIP3    H226305   7.550   5.306  16.511 -0.0594  0.3399 -0.8106
  704TIP3   OH226306   0.699   0.955  15.925  0.1673  0.2468 -0.0594
  704TIP3    H126307   0.718   0.864  15.948  1.2141  0.8234  1.5466
  704TIP3    H226308   0.781   0.988  15.889 -0.1930  0.5703 -0.5922
  705TIP3   OH226309   0.965   8.126  17.477 -0.3384 -0.5079  0.9439
  705TIP3    H126310   0.965   8.036  17.512  0.7352 -1.1717 -0.6893
  705TIP3    H226311   1.040   8.129  17.419 -0.6228  1.3450  0.6355
  706TIP3   OH226312   7.113   0.579  15.595  0.1384  0.1316 -0.0709
  706TIP3    H126313   7.203   0.546  15.603 -0.4487 -1.3493  0.7461
  706TIP3    H226314   7.112   0.624  15.511  1.3346 -0.9352 -0.6954
  707TIP3   OH226315   3.253   0.245  17.744  0.4076  0.0728  0.0356
  707TIP3    H126316   3.265   0.297  17.824  0.2729  0.4568 -0.1930
  707TIP3    H226317   3.285   0.301  17.674  1.1216 -0.5102 -0.1164
  708TIP3   OH226318   8.365   4.016  16.849  0.7069 -0.1690  0.0001
  708TIP3    H126319   8.380   3.941  16.906  0.4656 -0.5046 -0.3709
  708TIP3    H226320   8.318   4.080  16.903  0.6334 -0.4126  0.2215
  709TIP3   OH226321   4.887   2.475  16.431 -0.1238 -0.2526 -0.2379
  709TIP3    H126322   4.843   2.522  16.502 -0.5199 -1.3385  0.2577
  709TIP3    H226323   4.978   2.502  16.438 -0.1929 -0.1927  0.5634
  710TIP3   OH226324   5.497   6.643  17.478  0.2578 -0.3105  0.4398
  710TIP3    H126325   5.435   6.629  17.549 -0.2211  0.8082  0.2606
  710TIP3    H226326   5.458   6.600  17.402  0.2366 -0.5373  0.5783
  711TIP3   OH226327   3.611   2.608  17.523 -0.4431  0.5296  0.3077
  711TIP3    H126328   3.597   2.541  17.457  0.5854  0.7763 -0.1961
  711TIP3    H226329   3.538   2.668  17.512  1.1334  2.1814 -2.6901
  712TIP3   OH226330   7.290   5.012  16.657  0.4522 -0.7027  0.0819
  712TIP3    H126331   7.207   4.970  16.635 -0.3390  0.1095  1.3617
  712TIP3    H226332   7.295   5.089  16.600 -0.4340  0.0833  1.0295
  713TIP3   OH226333   3.489   3.338  16.059 -0.0111 -0.2857 -0.3141
  713TIP3    H126334   3.484   3.355  15.965 -0.8053 -0.8067 -0.3803
  713TIP3    H226335   3.546   3.406  16.093 -0.4180  0.4403 -1.0480
  714TIP3   OH226336   7.573   5.464  17.541 -0.0110  0.4401  0.1268
  714TIP3    H126337   7.581   5.510  17.458  1.9432  0.9474  0.5386
  714TIP3    H226338   7.619   5.519  17.604 -1.7908  0.2758  1.6750
  715TIP3   OH226339   7.059   3.328  15.666 -0.1572  0.1265  0.4822
  715TIP3    H126340   6.971   3.350  15.637 -0.9419  0.1075  2.6345
  715TIP3    H226341   7.054   3.236  15.693  0.2538  0.3644  1.4348
  716TIP3   OH226342   3.011   2.029  17.011 -0.1336 -0.0742 -0.0115
  716TIP3    H126343   3.064   2.089  17.063  1.5514 -0.2085 -1.4851
  716TIP3    H226344   3.069   1.955  16.992 -1.1820 -0.7244 -0.8258
  717TIP3   OH226345   2.733   5.656  16.055  0.1462  0.2181  0.2635
  717TIP3    H126346   2.723   5.721  16.125 -0.2309  0.7673 -0.2873
  717TIP3    H226347   2.684   5.693  15.981  1.0594 -0.0546 -0.4979
  718TIP3   OH226348   3.175   8.017  17.545 -0.3274 -0.3678 -0.0307
  718TIP3    H126349   3.248   8.072  17.574 -0.9685  0.6735 -0.3402
  718TIP3    H226350   3.199   7.928  17.573  0.6522  0.0860  0.6190
  719TIP3   OH226351   4.146   3.846  16.400  0.3320 -0.5359  0.2439
  719TIP3    H126352   4.156   3.892  16.316 -0.5725  0.1387  0.4881
  719TIP3    H226353   4.214   3.779  16.398  2.0694  1.1378  0.0912
  720TIP3   OH226354   5.271   8.021  17.740  0.1214  0.3974 -0.1809
  720TIP3    H126355   5.266   7.946  17.799 -1.5514  0.3205 -0.3616
  720TIP3    H226356   5.180   8.035  17.711  0.5069  2.0244 -0.7342
  721TIP3   OH226357   0.263   1.564  16.572 -0.6823  0.0579  0.1659
  721TIP3    H126358   0.210   1.514  16.634  0.2388 -0.8436  0.2587
  721TIP3    H226359   0.310   1.497  16.522 -1.5889  0.7351 -1.7105
  722TIP3   OH226360   6.566   1.762  17.724  0.2026 -0.5033  0.8964
  722TIP3    H126361   6.495   1.707  17.692 -0.3054  1.3140 -1.3703
  722TIP3    H226362   6.629   1.701  17.761 -0.9393 -2.4788 -0.2433
  723TIP3   OH226363   6.924   5.590  16.424 -0.8032 -0.0487  0.4694
  723TIP3    H126364   6.834   5.585  16.391 -0.2804 -0.5543 -0.9808
  723TIP3    H226365   6.974   5.534  16.365  0.6697  1.1343  0.5252
  724TIP3   OH226366   5.923   7.659  17.042 -0.4335 -0.2897  0.0170
  724TIP3    H126367   5.951   7.580  16.994 -0.9303 -1.4214  1.5128
  724TIP3    H226368   5.985   7.726  17.014  2.2004 -2.0389  1.1599
  725TIP3   OH226369   2.827   0.920  16.877  0.2261 -0.3987  0.0795
  725TIP3    H126370   2.752   0.919  16.937 -0.0651 -1.2834 -0.2834
  725TIP3    H226371   2.803   0.982  16.808 -1.7066 -3.1469 -1.9064
  726TIP3   OH226372   6.396   3.834  17.631  0.0104 -0.0034  0.5909
  726TIP3    H126373   6.354   3.903  17.580  1.7987  0.4615 -0.3565
  726TIP3    H226374   6.360   3.752  17.597  0.3146  0.3542 -0.6157
  727TIP3   OH226375   4.696   0.119  17.717 -0.4000 -0.0617 -0.0499
  727TIP3    H126376   4.662   0.064  17.647 -2.4301 -1.2079  1.7149
  727TIP3    H226377   4.791   0.103  17.717 -0.3802 -0.1725 -2.3350
  728TIP3   OH226378   4.153   5.424  17.724  0.0575 -0.1384 -0.0171
  728TIP3    H126379   4.101   5.500  17.698 -1.1687 -1.1044 -0.4977
  728TIP3    H226380   4.095   5.375  17.783  1.0407 -0.4296  0.7365
  729TIP3   OH226381   4.269   3.717  16.051  0.1727  0.7309  0.7489
  729TIP3    H126382   4.191   3.768  16.070 -0.9927 -0.4020 -0.7973
  729TIP3    H226383   4.290   3.738  15.960  0.2561 -0.7386  0.3989
  730TIP3   OH226384   0.568   2.339  16.009 -0.1628 -0.5640  0.3544
  730TIP3    H126385   0.616   2.407  16.056  1.6726 -1.0436 -0.7414
  730TIP3    H226386   0.491   2.323  16.063  0.4814  0.8234  1.7607
  731TIP3   OH226387   2.759   7.778  16.379  0.0441 -0.0245 -0.5459
  731TIP3    H126388   2.698   7.778  16.306 -1.5241 -1.6380  0.6858
  731TIP3    H226389   2.817   7.703  16.362  0.0347 -0.0618 -0.4126
  732TIP3   OH226390   7.424   3.429  17.372 -0.4613 -0.4801  0.1655
  732TIP3    H126391   7.357   3.404  17.435  0.2613 -1.2989  0.6237
  732TIP3    H226392   7.498   3.371  17.390  0.0590 -0.1816 -0.8981
  733TIP3   OH226393   5.231   0.137  15.995  0.5194 -0.1062 -0.5213
  733TIP3    H126394   5.321   0.105  15.995  0.5803 -0.1197  1.7502
  733TIP3    H226395   5.177   0.058  15.997  0.5263 -0.1032 -0.0421
  734TIP3   OH226396   5.260   0.171  17.448  0.0181  0.1366 -0.4203
  734TIP3    H126397   5.284   0.078  17.445  1.4231  0.3679  1.4071
  734TIP3    H226398   5.170   0.172  17.479 -0.4013 -0.6176 -1.5466
  735TIP3   OH226399   6.810   2.174  16.356  0.3673 -0.4083  0.2762
  735TIP3    H126400   6.788   2.251  16.304 -0.0348 -1.3030 -0.9350
  735TIP3    H226401   6.905   2.166  16.347  0.4264  0.0044  0.5059
  736TIP3   OH226402   2.078   6.058  17.117 -0.8119  0.0492  0.8327
  736TIP3    H126403   2.043   5.982  17.164 -1.6768  0.5961  1.1064
  736TIP3    H226404   2.036   6.133  17.160  0.1645  0.6924  0.6872
  737TIP3   OH226405   1.656   6.664  16.680 -0.2961 -0.1382  0.4196
  737TIP3    H126406   1.602   6.688  16.755  0.1650  2.4122  0.0139
  737TIP3    H226407   1.733   6.622  16.718  0.4393  2.0694  1.5271
  738TIP3   OH226408   3.693   6.038  16.721  0.3186 -0.2226 -0.5151
  738TIP3    H126409   3.732   6.115  16.680 -0.7680  0.5577 -0.1296
  738TIP3    H226410   3.608   6.068  16.753  0.1690 -1.4028  0.2712
  739TIP3   OH226411   8.203   7.082  17.887  0.5275 -0.1330 -0.1116
  739TIP3    H126412   8.243   7.111  17.969  1.4156 -1.2622 -0.1089
  739TIP3    H226413   8.109   7.096  17.900  0.3685 -2.3885  2.0406
  740TIP3   OH226414   1.548   5.366  15.838  0.4012 -0.7108 -0.5856
  740TIP3    H126415   1.476   5.304  15.824  0.4209 -0.9154  0.2046
  740TIP3    H226416   1.565   5.402  15.751 -0.0877 -1.2875 -0.9283
  741TIP3   OH226417   0.365   0.919  15.526 -0.0870  0.3602  0.4867
  741TIP3    H126418   0.281   0.880  15.501 -0.2375  1.7147 -1.3103
  741TIP3    H226419   0.412   0.848  15.569 -2.1014 -0.4597  1.4968
  742TIP3   OH226420   6.466   3.914  16.042 -0.2037  0.1929 -0.0526
  742TIP3    H126421   6.526   3.977  16.002 -0.4144  0.2621 -0.2652
  742TIP3    H226422   6.520   3.864  16.103 -0.1867  1.0950  0.6918
  743TIP3   OH226423   3.008   7.336  16.508  0.0289 -0.0913  0.9485
  743TIP3    H126424   3.075   7.296  16.451  0.4594  0.4588  1.0636
  743TIP3    H226425   2.926   7.299  16.476  0.2413  0.3461 -0.1691
  744TIP3   OH226426   5.149   3.786  16.526 -0.7583  0.1605 -0.2842
  744TIP3    H126427   5.188   3.815  16.444 -1.0040 -3.0011 -1.6558
  744TIP3    H226428   5.189   3.842  16.593  1.2071  1.3071 -2.2847
  745TIP3   OH226429   7.200   6.291  15.902  0.1073  0.2249 -0.6084
  745TIP3    H126430   7.118   6.243  15.898 -2.0286  2.8753  4.0749
  745TIP3    H226431   7.264   6.226  15.932 -1.3284 -0.9336  0.0823
  746TIP3   OH226432   4.280   4.436  16.441 -0.3148  0.3517  0.1290
  746TIP3    H126433   4.215   4.370  16.463 -1.0080 -0.0294 -2.6837
  746TIP3    H226434   4.231   4.518  16.437 -0.3898  0.2786 -0.6904
  747TIP3   OH226435   0.008   2.793  16.636  0.2047 -0.1480 -0.3999
  747TIP3    H126436   0.062   2.808  16.558 -2.2598  0.8549 -2.0769
  747TIP3    H226437  -0.011   2.699  16.634  1.3936 -0.4035 -0.1040
  748TIP3   OH226438   6.853   8.074  17.222 -0.0318  0.2782 -0.6410
  748TIP3    H126439   6.839   8.107  17.311  0.5732 -1.3169  0.0742
  748TIP3    H226440   6.858   7.979  17.232  3.0411  0.2070 -1.9468
  749TIP3   OH226441   2.442   7.542  16.122  0.2677  0.2311 -0.0858
  749TIP3    H126442   2.406   7.469  16.072 -0.0299  1.6623 -2.1223
  749TIP3    H226443   2.390   7.618  16.095  1.6205  1.4927  0.6622
  750TIP3   OH226444   7.510   5.129  16.846 -0.0884 -0.3175 -0.1416
  750TIP3    H126445   7.546   5.093  16.766 -1.3245 -0.0447 -0.8536
  750TIP3    H226446   7.472   5.214  16.820  0.9754  0.5768  1.0802
  751TIP3   OH226447   1.092   7.322  17.137 -1.0453  0.4329 -0.0986
  751TIP3    H126448   1.185   7.304  17.150 -1.6368 -4.4825 -0.7265
  751TIP3    H226449   1.088   7.367  17.053  0.7175 -0.1310 -0.5279
  752TIP3   OH226450   3.967   5.286  17.892  0.2822 -0.4040 -0.3503
  752TIP3    H126451   3.879   5.282  17.855  0.6153  0.4671 -1.2849
  752TIP3    H226452   3.957   5.333  17.974 -0.1784 -0.6345 -0.2721
  753TIP3   OH226453   0.669   1.484  16.175 -0.0072 -0.0540 -0.1802
  753TIP3    H126454   0.669   1.390  16.190 -2.0062 -0.1628 -0.5036
  753TIP3    H226455   0.649   1.493  16.081 -0.0200  0.6911 -0.1133
  754TIP3   OH226456   1.810   3.232  17.636 -0.0622 -0.0401 -0.2842
  754TIP3    H126457   1.815   3.260  17.545 -0.4152  0.3768 -0.1788
  754TIP3    H226458   1.873   3.160  17.643  0.5963  0.5002 -0.6414
  755TIP3   OH226459   6.019   6.745  17.591  0.4526  0.6326 -0.0198
  755TIP3    H126460   5.986   6.780  17.509 -0.4345 -1.3177 -0.5431
  755TIP3    H226461   6.006   6.816  17.654 -1.4859  1.1712 -0.9696
  756TIP3   OH226462   5.266   5.962  16.834  0.2949  0.5570  0.0964
  756TIP3    H126463   5.291   5.983  16.744 -0.8833  0.1369 -0.3537
  756TIP3    H226464   5.278   6.043  16.882  1.7791  0.5652 -0.2381
  757TIP3   OH226465   2.093   0.694  17.133  0.0922  0.3554 -0.0989
  757TIP3    H126466   2.072   0.642  17.056 -0.0558 -0.4539  0.4799
  757TIP3    H226467   2.160   0.643  17.179 -2.1186 -0.8363  2.0043
  758TIP3   OH226468   1.193   5.372  17.975  0.2740  0.4408  0.0670
  758TIP3    H126469   1.172   5.279  17.968  0.5464  0.4252 -0.7115
  758TIP3    H226470   1.284   5.378  17.945 -0.0699  1.0864 -0.8955
  759TIP3   OH226471   2.496   6.067  16.117  0.0808  0.2559  0.1955
  759TIP3    H126472   2.570   6.102  16.068  0.9380 -1.8891 -0.1396
  759TIP3    H226473   2.535   6.022  16.192 -1.0124  0.6510  1.0279
  760TIP3   OH226474   3.075   4.931  16.080  0.1273 -0.4599 -0.9337
  760TIP3    H126475   3.026   4.880  16.144 -1.3210  1.4026 -0.4691
  760TIP3    H226476   3.159   4.950  16.122 -0.4047 -0.1509  0.0018
  761TIP3   OH226477   8.437   4.830  16.449 -0.1570  0.3944  0.3747
  761TIP3    H126478   8.419   4.740  16.421  2.9335 -0.0156 -0.6066
  761TIP3    H226479   8.491   4.820  16.527  0.2543  1.4113  0.2291
  762TIP3   OH226480   0.711   1.809  15.916 -0.4246 -0.2282  0.0293
  762TIP3    H126481   0.673   1.845  15.836 -1.0046  0.7170  0.7222
  762TIP3    H226482   0.778   1.747  15.885  2.2223  2.9951 -1.2644
  763TIP3   OH226483   5.575   3.212  16.743 -0.0778 -0.1564  0.4048
  763TIP3    H126484   5.599   3.276  16.675 -0.3331 -1.4587 -0.9581
  763TIP3    H226485   5.647   3.149  16.744 -0.2338 -0.3301  1.1223
  764TIP3   OH226486   0.428   1.609  15.261 -0.8234 -0.2857 -0.0898
  764TIP3    H126487   0.436   1.666  15.184 -1.1705 -1.3765 -0.9537
  764TIP3    H226488   0.461   1.524  15.232  2.1509  0.0309  1.9165
  765TIP3   OH226489   5.392   3.741  17.465  0.0976  0.0566 -0.2162
  765TIP3    H126490   5.468   3.771  17.515  1.6259 -1.3190 -1.6175
  765TIP3    H226491   5.325   3.807  17.482  1.9613  1.9619  0.1277
  766TIP3   OH226492   1.733   1.901  15.158  0.1222 -0.4998  0.3129
  766TIP3    H126493   1.736   1.829  15.222  0.0428 -0.4164  0.4103
  766TIP3    H226494   1.811   1.889  15.105  0.2806 -0.4676  0.5362
  767TIP3   OH226495   8.300   3.595  17.068 -0.3284 -0.8582 -0.5246
  767TIP3    H126496   8.215   3.566  17.102  0.6710 -2.4248  0.7804
  767TIP3    H226497   8.318   3.535  16.995  0.1591 -1.2730 -0.0686
  768TIP3   OH226498   2.650   6.486  17.263  0.0473  0.7880  0.4353
  768TIP3    H126499   2.731   6.449  17.298  1.3636  1.9253 -1.2907
  768TIP3    H226500   2.678   6.545  17.194 -2.3232  0.5689 -0.8034
  769TIP3   OH226501   7.062   3.861  16.759 -0.8937  0.0648 -0.1130
  769TIP3    H126502   7.079   3.776  16.719  0.0419  0.7769 -1.3295
  769TIP3    H226503   7.018   3.841  16.841 -2.1681 -1.5111 -1.1187
  770TIP3   OH226504   5.364   7.375  16.605 -0.2742 -0.2962 -0.5347
  770TIP3    H126505   5.360   7.281  16.618 -0.1992 -0.1158  0.9980
  770TIP3    H226506   5.272   7.402  16.593 -0.5676 -0.3136  1.3201
  771TIP3   OH226507   5.513   7.388  17.539 -0.1562 -0.2637 -1.0075
  771TIP3    H126508   5.608   7.387  17.528  0.2384  1.0418  1.5487
  771TIP3    H226509   5.482   7.454  17.477  0.4420 -1.1845 -2.3620
  772TIP3   OH226510   0.365   6.880  15.954 -0.2377  0.3354  0.1710
  772TIP3    H126511   0.389   6.967  15.985 -1.9641  1.1504 -0.6537
  772TIP3    H226512   0.414   6.870  15.872  1.3182 -0.2403  1.1171
  773TIP3   OH226513   5.885   4.591  16.231  0.2322  0.2754 -0.5892
  773TIP3    H126514   5.837   4.673  16.247  0.5495  0.0573  1.6880
  773TIP3    H226515   5.965   4.619  16.185  0.1071  1.1766 -0.2842
  774TIP3   OH226516   7.563   1.648  16.589  0.0201  0.0156  0.5711
  774TIP3    H126517   7.490   1.604  16.631  1.0515  0.3954  2.9183
  774TIP3    H226518   7.540   1.741  16.592 -0.8259 -0.0672 -1.6914
  775TIP3   OH226519   3.163   0.367  16.081  0.1588  0.4235 -0.2058
  775TIP3    H126520   3.179   0.275  16.103 -2.3628 -0.1673 -0.4742
  775TIP3    H226521   3.208   0.380  15.998  1.2821 -0.3076  0.2735
  776TIP3   OH226522   5.257   7.757  17.827  0.5203  0.4892  0.3042
  776TIP3    H126523   5.280   7.687  17.887 -1.6558 -0.7452 -0.1880
  776TIP3    H226524   5.161   7.758  17.827  0.3266 -0.2328 -3.7804
  777TIP3   OH226525   0.172   5.159  16.788 -0.0321 -0.0911  0.5528
  777TIP3    H126526   0.096   5.100  16.780  2.1249 -3.2408  1.2909
  777TIP3    H226527   0.134   5.247  16.790 -3.5904 -1.4452  0.3803
  778TIP3   OH226528   7.098   0.983  17.400  0.9870 -0.1366  0.4761
  778TIP3    H126529   7.153   1.019  17.470  1.7455  0.0978 -0.2247
  778TIP3    H226530   7.150   0.912  17.363 -0.1141 -1.3882  1.2384
  779TIP3   OH226531   3.724   6.755  16.430 -0.3069  0.3008 -0.1705
  779TIP3    H126532   3.663   6.792  16.495 -0.2596  0.1215 -0.0233
  779TIP3    H226533   3.741   6.828  16.370 -1.1966  0.1724 -0.6029
  780TIP3   OH226534   2.551   4.058  16.712 -0.4512  0.0330 -0.3871
  780TIP3    H126535   2.461   4.089  16.702 -0.2124  0.3193 -1.8449
  780TIP3    H226536   2.589   4.067  16.625  1.1083  0.2714  0.2937
  781TIP3   OH226537   0.526   4.595  15.512 -0.1790  0.4447 -0.6969
  781TIP3    H126538   0.499   4.526  15.573  1.2520  0.6616  0.2349
  781TIP3    H226539   0.578   4.548  15.446  1.2889  0.6615  0.2581
  782TIP3   OH226540   0.622   5.714  15.818  0.0528  0.2161 -0.2136
  782TIP3    H126541   0.699   5.659  15.832 -0.4623 -0.4703 -0.0335
  782TIP3    H226542   0.635   5.788  15.877  0.2490 -0.2405  0.3258
  783TIP3   OH226543   0.634   1.918  17.438 -0.2974  0.0231  1.0431
  783TIP3    H126544   0.573   1.910  17.365  0.2723 -2.1739  0.7323
  783TIP3    H226545   0.581   1.900  17.516 -0.7119  1.4656  1.1206
  784TIP3   OH226546   5.242   1.424  16.802  0.4374  0.1569  0.3025
  784TIP3    H126547   5.184   1.418  16.877  0.7965 -0.1838  0.5595
  784TIP3    H226548   5.330   1.419  16.839  0.6325 -2.8236 -0.3199
  785TIP3   OH226549   7.948   4.842  16.676  0.5277 -0.2626 -0.0023
  785TIP3    H126550   8.022   4.896  16.648  0.0185  0.5589  0.1975
  785TIP3    H226551   7.879   4.905  16.697 -0.2661 -1.0200 -0.2804
  786TIP3   OH226552   2.057   0.189  16.677  0.3323 -0.0009 -0.7233
  786TIP3    H126553   2.104   0.219  16.755  1.2760 -0.2166 -1.1961
  786TIP3    H226554   2.089   0.101  16.661  1.2605  0.5499 -2.1780
  787TIP3   OH226555   4.570   0.319  15.640 -0.0055 -0.3180  0.4026
  787TIP3    H126556   4.536   0.238  15.602 -1.2266  0.0852  0.6187
  787TIP3    H226557   4.649   0.291  15.688  0.7516 -1.0580 -1.1738
  788TIP3   OH226558   5.304   4.443  15.445 -0.6923  0.4561  0.2739
  788TIP3    H126559   5.257   4.400  15.516 -1.6011  0.1363 -0.4969
  788TIP3    H226560   5.311   4.377  15.377 -1.0749  1.1554 -0.4700
  789TIP3   OH226561   6.242   3.322  17.267  0.5313  0.3333  0.4772
  789TIP3    H126562   6.332   3.291  17.254  0.9572  1.0378  1.5400
  789TIP3    H226563   6.223   3.375  17.189  0.6147 -0.7226 -0.2780
  790TIP3   OH226564   0.208   8.340  16.571  0.1352 -0.3944 -0.0868
  790TIP3    H126565   0.122   8.302  16.588 -1.0965  2.2327  0.0013
  790TIP3    H226566   0.250   8.345  16.657  0.4642 -1.7057 -0.1355
  791TIP3   OH226567   1.767   3.133  16.369  0.0691  0.0156  0.7173
  791TIP3    H126568   1.798   3.112  16.281  1.4986  0.4291  1.0849
  791TIP3    H226569   1.762   3.228  16.371 -0.6176 -0.0193  0.8814
  792TIP3   OH226570   5.220   2.277  17.452 -0.1373 -0.1928  0.4199
  792TIP3    H126571   5.148   2.218  17.429 -0.5895  0.6169 -0.2680
  792TIP3    H226572   5.289   2.218  17.484 -1.2149 -0.9443  1.4210
  793TIP3   OH226573   0.188   2.894  17.339 -0.1078  0.0032 -0.1735
  793TIP3    H126574   0.189   2.924  17.248  2.2144 -0.2308 -0.2698
  793TIP3    H226575   0.200   2.973  17.391 -2.2221  0.2480  0.0262
  794TIP3   OH226576   6.550   3.169  17.470 -0.0279  0.5250 -0.1697
  794TIP3    H126577   6.536   3.190  17.378  0.2322 -0.8820 -0.5586
  794TIP3    H226578   6.570   3.253  17.511  0.0537  1.1501 -1.4340
  795TIP3   OH226579   1.513   0.283  16.087 -0.5560  0.2127  0.1397
  795TIP3    H126580   1.442   0.346  16.092 -0.9284 -0.1818 -0.0708
  795TIP3    H226581   1.551   0.282  16.175  0.4033  1.7843 -0.2148
  796TIP3   OH226582   7.335   5.968  17.485 -0.1185 -0.5219  1.0330
  796TIP3    H126583   7.378   6.042  17.527  0.0582  0.8503 -1.4215
  796TIP3    H226584   7.244   5.996  17.475  0.6503  1.1204 -3.2678
  797TIP3   OH226585   1.865   0.414  16.702 -0.6589 -0.6410  0.1088
  797TIP3    H126586   1.907   0.498  16.682 -1.5273 -0.1892  0.1133
  797TIP3    H226587   1.904   0.352  16.640 -0.2912 -0.1542 -0.1571
  798TIP3   OH226588   3.759   1.682  15.287 -0.0588 -0.2391  0.2151
  798TIP3    H126589   3.786   1.683  15.379 -0.9116 -0.5252  0.4858
  798TIP3    H226590   3.699   1.607  15.281 -1.1531  0.6455 -0.2313
  799TIP3   OH226591   6.992   2.273  17.531 -0.3334 -0.0426  0.4416
  799TIP3    H126592   6.970   2.266  17.438  0.0408  3.2208  0.0119
  799TIP3    H226593   6.907   2.268  17.576 -1.1239  2.9457 -0.5079
  800TIP3   OH226594   5.111   7.586  16.433  0.1627 -0.2058  0.0246
  800TIP3    H126595   5.049   7.544  16.374  0.0315  1.7630 -1.3321
  800TIP3    H226596   5.170   7.635  16.376  2.9328 -1.8494  1.2797
  801TIP3   OH226597   2.714   6.991  17.221 -0.1111  0.4527  0.2910
  801TIP3    H126598   2.786   6.933  17.195 -0.1726  0.1318  0.8208
  801TIP3    H226599   2.757   7.065  17.264 -0.0983  0.1807  0.7585
  802TIP3   OH226600   6.625   1.434  17.532  0.6270 -0.4017 -0.5729
  802TIP3    H126601   6.579   1.355  17.501  1.5545 -0.6865 -1.2512
  802TIP3    H226602   6.666   1.406  17.614 -1.4859  0.2389  0.8032
  803TIP3   OH226603   5.192   7.686  17.331  0.3513 -0.0425  0.2620
  803TIP3    H126604   5.106   7.684  17.289  0.5020  0.7726 -0.0983
  803TIP3    H226605   5.244   7.745  17.277  0.7022  0.6205  1.3003
  804TIP3   OH226606   4.513   7.776  17.058  0.1432 -0.7052  0.0640
  804TIP3    H126607   4.456   7.701  17.044 -0.4975 -0.3682  0.8074
  804TIP3    H226608   4.572   7.749  17.128  0.7551 -0.9643 -0.5380
  805TIP3   OH226609   2.338   6.023  17.841 -0.1659 -0.3151 -0.3596
  805TIP3    H126610   2.332   5.977  17.925 -2.2358  1.1209  0.3639
  805TIP3    H226611   2.247   6.041  17.817  0.4028 -0.3426 -2.7367
  806TIP3   OH226612   1.555   4.295  17.020 -0.5502 -0.2200  0.4253
  806TIP3    H126613   1.559   4.212  17.067 -0.0810  1.0568  2.7551
  806TIP3    H226614   1.575   4.272  16.929  0.7846 -2.4694  1.2250
  807TIP3   OH226615   4.050   0.698  16.615  0.0083  0.1052  0.1050
  807TIP3    H126616   3.970   0.729  16.572  0.5980  0.6555 -0.6451
  807TIP3    H226617   4.115   0.698  16.545  0.6815 -0.2497  0.7243
  808TIP3   OH226618   5.383   0.284  15.710  0.2095  0.6491 -0.2359
  808TIP3    H126619   5.421   0.365  15.745  0.8075  0.9166 -1.4392
  808TIP3    H226620   5.356   0.307  15.622  0.3394 -0.4528 -0.5749
  809TIP3   OH226621   4.993   5.094  16.804  0.0958 -0.1464 -0.6166
  809TIP3    H126622   4.927   5.137  16.750  0.8251 -0.1374 -1.5398
  809TIP3    H226623   4.969   5.002  16.803 -1.8198  0.2200  1.8581
  810TIP3   OH226624   3.824   8.447  15.675  0.2839 -0.0540 -0.8562
  810TIP3    H126625   3.831   8.402  15.759 -0.0093  0.8385 -0.3355
  810TIP3    H226626   3.886   8.520  15.682 -0.2017  0.3968 -1.1574
  811TIP3   OH226627   1.223   5.718  16.357  0.0823  0.2626 -0.1123
  811TIP3    H126628   1.139   5.676  16.376 -0.9338  2.6221  1.0821
  811TIP3    H226629   1.212   5.754  16.269  0.5746 -1.0038 -0.7159
  812TIP3   OH226630   1.948   2.447  17.316  0.4238  0.2406 -0.4091
  812TIP3    H126631   1.992   2.501  17.251  0.6088  0.4715 -0.0926
  812TIP3    H226632   1.987   2.473  17.400  1.3773 -1.2349 -0.3657
  813TIP3   OH226633   6.361   1.818  16.343  0.5146  0.5899 -0.0138
  813TIP3    H126634   6.296   1.752  16.320  0.8416  0.5810 -0.9964
  813TIP3    H226635   6.318   1.902  16.326  0.2029  0.6239  0.9369
  814TIP3   OH226636   4.046   0.412  16.467 -0.0972 -0.0796 -0.5866
  814TIP3    H126637   4.097   0.493  16.458  0.3932 -0.1562  1.0931
  814TIP3    H226638   3.964   0.440  16.509 -1.2486 -0.0548 -2.6971
  815TIP3   OH226639   0.243   3.730  16.700  0.3047  0.3636 -0.3469
  815TIP3    H126640   0.209   3.695  16.783 -0.6128  0.6610 -0.5881
  815TIP3    H226641   0.316   3.672  16.678  2.1358  1.6458  1.8717
  816TIP3   OH226642   2.473   4.304  17.024  0.3349 -0.0741 -0.5887
  816TIP3    H126643   2.406   4.237  17.035  0.1126  0.0494 -1.1627
  816TIP3    H226644   2.482   4.344  17.111  0.5613 -0.9243 -0.2160
  817TIP3   OH226645   2.624   1.741  17.842 -0.1225 -0.6079 -0.1613
  817TIP3    H126646   2.632   1.762  17.935 -0.5957 -0.8094 -0.0740
  817TIP3    H226647   2.670   1.813  17.798  1.2588 -1.1915  0.2661
  818TIP3   OH226648   8.291   2.638  17.749  0.1961 -0.0961  0.4241
  818TIP3    H126649   8.216   2.634  17.691  0.2015  0.1170  0.4000
  818TIP3    H226650   8.357   2.689  17.701  0.5865 -0.8142  0.1902
  819TIP3   OH226651   4.101   4.281  17.395  0.5377 -0.2560 -0.2706
  819TIP3    H126652   4.061   4.222  17.331  0.8013  0.6258 -1.2601
  819TIP3    H226653   4.063   4.254  17.479  0.1283 -1.3704 -0.7915
  820TIP3   OH226654   0.684   3.965  16.027  0.5661 -0.3463 -0.4006
  820TIP3    H126655   0.732   4.037  16.069  1.5169 -0.5725 -1.0832
  820TIP3    H226656   0.697   3.978  15.933 -2.2728  0.6718 -0.7596
  821TIP3   OH226657   4.544   7.154  17.375 -0.0498  0.1841  0.0359
  821TIP3    H126658   4.454   7.161  17.344  0.4061  0.6811 -1.2148
  821TIP3    H226659   4.580   7.241  17.364  0.5341  0.0430  0.7446
  822TIP3   OH226660   5.760   0.116  17.926 -0.2780  0.2872  0.1760
  822TIP3    H126661   5.681   0.113  17.872 -0.1942  0.3082  0.0520
  822TIP3    H226662   5.813   0.043  17.895 -0.3996  0.0634  0.4950
  823TIP3   OH226663   0.627   3.855  17.275  0.2801 -0.1043 -0.6002
  823TIP3    H126664   0.643   3.945  17.246 -2.2284 -0.0591 -2.1387
  823TIP3    H226665   0.624   3.804  17.194 -0.0121 -1.2706  0.1269
  824TIP3   OH226666   2.936   2.693  16.171  0.1259  0.2103  0.1369
  824TIP3    H126667   2.990   2.771  16.154  2.1610 -1.4009 -1.2150
  824TIP3    H226668   2.942   2.682  16.266  0.6128  1.1454  0.2361
  825TIP3   OH226669   1.055   2.532  16.213 -0.2114  0.2612 -0.0866
  825TIP3    H126670   1.107   2.457  16.238 -0.3157  0.3638  0.4513
  825TIP3    H226671   0.996   2.547  16.287 -0.2047  0.8566 -0.1897
  826TIP3   OH226672   6.498   7.063  16.514  0.5341  0.0308  0.4012
  826TIP3    H126673   6.552   7.009  16.456  2.1064  1.9275 -0.0200
  826TIP3    H226674   6.416   7.074  16.467  0.6720 -0.9130 -0.0801
  827TIP3   OH226675   4.142   7.532  16.017 -0.0976 -0.0934 -0.6002
  827TIP3    H126676   4.097   7.577  16.088  0.6474  0.5713 -0.5341
  827TIP3    H226677   4.231   7.518  16.051  0.6941  1.4892 -1.8943
  828TIP3   OH226678   2.499   0.838  17.483 -0.6805 -0.1896 -0.3817
  828TIP3    H126679   2.490   0.742  17.484 -1.8765 -0.1662  2.7894
  828TIP3    H226680   2.427   0.869  17.539  0.7516  2.4486  0.1335
  829TIP3   OH226681   1.274   1.074  17.362  0.0238  0.4924 -0.0709
  829TIP3    H126682   1.224   1.144  17.404 -1.5007 -0.8930  0.4986
  829TIP3    H226683   1.295   1.013  17.433  1.2664  0.3121 -0.5668
  830TIP3   OH226684   4.947   2.977  15.985  0.1654  0.0629  0.0701
  830TIP3    H126685   5.005   3.050  15.965 -0.0521 -0.1641 -1.5579
  830TIP3    H226686   5.002   2.900  15.977 -0.2143 -0.1168 -0.9815
  831TIP3   OH226687   5.178   4.161  16.917 -0.5340  0.8910  0.2367
  831TIP3    H126688   5.243   4.148  16.986 -0.2550  0.7297 -0.0534
  831TIP3    H226689   5.122   4.084  16.922  1.0674 -0.4981 -1.4252
  832TIP3   OH226690   5.656   3.260  15.837  0.7212  0.0901  0.9726
  832TIP3    H126691   5.569   3.223  15.819 -0.0496  2.3526 -0.4473
  832TIP3    H226692   5.648   3.352  15.811  4.1541 -0.0795 -1.2228
  833TIP3   OH226693   4.630   0.396  18.004  0.6029  0.3182 -0.2792
  833TIP3    H126694   4.600   0.317  17.959  0.6745  0.1256  0.0135
  833TIP3    H226695   4.554   0.454  18.004  0.8584  0.6827 -1.4635
  834TIP3   OH226696   2.978   4.585  16.515  0.4248  0.1966  0.3727
  834TIP3    H126697   3.018   4.535  16.444  0.0581  1.4680 -0.7855
  834TIP3    H226698   2.909   4.528  16.549  2.4040 -1.5801  1.6638
  835TIP3   OH226699   0.761   1.227  17.096  0.0007  0.0213  0.2284
  835TIP3    H126700   0.695   1.206  17.162 -1.1016  1.6821 -0.2647
  835TIP3    H226701   0.713   1.225  17.013  0.4669  1.4603 -0.1147
  836TIP3   OH226702   3.158   2.898  17.550  0.2602 -0.3333  0.8571
  836TIP3    H126703   3.215   2.847  17.608 -0.4587 -1.6443  0.4587
  836TIP3    H226704   3.165   2.988  17.583  0.9827 -0.8009  2.0665
  837TIP3   OH226705   3.716   2.888  17.369 -0.1936  0.0822 -0.0173
  837TIP3    H126706   3.668   2.969  17.356 -1.2855 -0.2036  1.8209
  837TIP3    H226707   3.650   2.826  17.401  1.0251 -0.8897  0.7098
  838TIP3   OH226708   6.159   5.458  17.462 -0.1914  0.0553 -0.1716
  838TIP3    H126709   6.166   5.468  17.367 -1.8873  0.6230 -0.2622
  838TIP3    H226710   6.153   5.547  17.496 -0.9679 -0.1842  0.3436
  839TIP3   OH226711   0.550   3.105  15.943  0.1131 -0.0452  0.2441
  839TIP3    H126712   0.502   3.027  15.971  0.1053 -0.9609 -2.1521
  839TIP3    H226713   0.513   3.127  15.858  0.5685  2.2294  0.5731
  840TIP3   OH226714   5.178   7.805  16.261 -0.0449 -0.6558 -0.5255
  840TIP3    H126715   5.086   7.831  16.254 -0.8528 -2.6614  1.6967
  840TIP3    H226716   5.217   7.870  16.319 -0.0643  0.0400 -1.2587
  841TIP3   OH226717   2.564   5.302  16.788 -0.4522 -0.1455  0.0998
  841TIP3    H126718   2.495   5.349  16.836  1.1722  1.3328  1.0823
  841TIP3    H226719   2.642   5.311  16.843  0.9420 -0.3718 -1.7518
  842TIP3   OH226720   5.145   0.768  16.675  0.2761 -0.4579 -0.6762
  842TIP3    H126721   5.103   0.685  16.699 -0.0763 -0.4145 -1.1217
  842TIP3    H226722   5.171   0.807  16.758  1.0189 -1.3143 -0.4894
  843TIP3   OH226723   1.124   7.727  18.029 -0.1011 -0.5540 -0.3662
  843TIP3    H126724   1.089   7.779  18.102  1.4142 -1.6201  1.2050
  843TIP3    H226725   1.057   7.660  18.015 -0.2485 -0.5685  0.3368
  844TIP3   OH226726   0.649   4.105  16.367  0.0651  0.6720 -0.3727
  844TIP3    H126727   0.712   4.038  16.340  0.9135  1.6208 -0.8227
  844TIP3    H226728   0.702   4.172  16.409 -0.9643  0.3155  1.6033
  845TIP3   OH226729   4.553   7.223  17.059 -0.4906 -0.4967 -0.0854
  845TIP3    H126730   4.478   7.187  17.107 -0.3380  0.3324  0.8055
  845TIP3    H226731   4.593   7.147  17.016  0.7015 -1.7091  2.9129
  846TIP3   OH226732   3.521   1.527  17.107  0.0905 -0.4266 -0.1480
  846TIP3    H126733   3.425   1.530  17.101  0.0802  0.6110  0.2925
  846TIP3    H226734   3.542   1.434  17.098 -0.9536 -0.6710 -0.2796
  847TIP3   OH226735   7.949   4.421  16.384 -0.1457 -0.3372  0.2228
  847TIP3    H126736   8.007   4.383  16.319 -1.7191  1.2959 -2.2968
  847TIP3    H226737   7.959   4.365  16.461  1.8909 -2.3001 -1.3445
  848TIP3   OH226738   5.532   5.501  17.635  0.6429 -0.5230 -0.6567
  848TIP3    H126739   5.584   5.540  17.564  0.0946  1.0337 -0.2563
  848TIP3    H226740   5.598   5.473  17.699  1.0515  0.1791 -0.7549
  849TIP3   OH226741   1.284   5.937  17.467  0.0361  0.3681  0.1653
  849TIP3    H126742   1.314   5.890  17.390  0.2122  0.1012  0.3956
  849TIP3    H226743   1.201   5.895  17.491  0.0260  0.3928  0.1748
  850TIP3   OH226744   0.844   5.853  16.427  0.3983 -0.6387  0.1728
  850TIP3    H126745   0.867   5.761  16.419 -0.3759 -0.6950 -2.4532
  850TIP3    H226746   0.846   5.886  16.338 -1.2884  1.3989  0.7934
  851TIP3   OH226747   2.401   7.386  17.093  0.2422  0.4267 -0.3951
  851TIP3    H126748   2.324   7.371  17.037 -1.3151  2.6150  1.0418
  851TIP3    H226749   2.443   7.463  17.055  0.0600  0.9819  0.5210
  852TIP3   OH226750   8.176   0.022  17.301 -0.4368  0.3238  0.3521
  852TIP3    H126751   8.174   0.081  17.226 -1.2483 -0.3300 -0.1548
  852TIP3    H226752   8.179  -0.066  17.263 -0.7991 -0.0115  1.0820
  853TIP3   OH226753   6.629   0.437  17.563  0.1809 -0.1801 -0.0068
  853TIP3    H126754   6.583   0.402  17.487  0.1951 -4.1856  1.6048
  853TIP3    H226755   6.721   0.416  17.546  0.4886  1.0123  0.1231
  854TIP3   OH226756   7.711   5.216  17.503 -0.0895 -0.0044  0.2725
  854TIP3    H126757   7.661   5.155  17.558  0.8941  0.0347  1.2589
  854TIP3    H226758   7.676   5.302  17.526 -0.5121 -0.0808 -0.0724
  855TIP3   OH226759   4.397   2.684  15.680 -0.0355  0.2534  0.8750
  855TIP3    H126760   4.372   2.610  15.736 -0.6734  0.9342  1.5189
  855TIP3    H226761   4.465   2.649  15.623 -1.5788 -1.3582 -0.1006
  856TIP3   OH226762   4.160   7.390  16.563 -0.1418  0.6615 -0.2017
  856TIP3    H126763   4.255   7.401  16.561 -0.2405  1.7033  0.5381
  856TIP3    H226764   4.142   7.356  16.650 -0.3872 -0.3114 -0.6145
  857TIP3   OH226765   4.449   6.829  16.324  0.0984 -0.4253  0.4672
  857TIP3    H126766   4.526   6.785  16.287 -0.7084 -1.7775  0.3462
  857TIP3    H226767   4.434   6.784  16.408 -1.4634 -1.2385 -0.2166
  858TIP3   OH226768   7.292   7.775  16.684 -0.2264 -0.4439 -0.1358
  858TIP3    H126769   7.313   7.760  16.776  2.4791 -1.6617 -0.8496
  858TIP3    H226770   7.208   7.731  16.670  0.4250 -2.2021  1.2550
  859TIP3   OH226771   7.876   3.225  17.643  0.5509 -0.0226 -0.7142
  859TIP3    H126772   7.881   3.270  17.727 -1.0726 -1.5531  0.2896
  859TIP3    H226773   7.833   3.141  17.663 -1.1697  0.1164 -3.2692
  860TIP3   OH226774   3.483   1.245  17.454 -0.0807  0.3532 -0.5720
  860TIP3    H126775   3.408   1.201  17.495  1.1759 -1.5878 -0.1676
  860TIP3    H226776   3.471   1.229  17.360 -0.4289  0.4733 -0.5497
  861TIP3   OH226777   1.197   7.712  16.198 -0.2264  0.0166 -0.1988
  861TIP3    H126778   1.142   7.778  16.240  0.0152 -0.0200  0.1813
  861TIP3    H226779   1.216   7.747  16.112  0.1785  0.5947  0.1227
  862TIP3   OH226780   6.214   7.074  16.736 -0.8232 -0.2393 -0.1515
  862TIP3    H126781   6.263   7.003  16.778 -0.6020  0.3672  0.6377
  862TIP3    H226782   6.147   7.029  16.684  0.2993 -1.0618 -0.9254
  863TIP3   OH226783   6.582   8.042  16.003 -0.1387 -0.0572 -0.4023
  863TIP3    H126784   6.641   7.968  16.012  1.2136  0.8944 -1.0369
  863TIP3    H226785   6.507   8.008  15.954  0.9713 -0.7525 -1.6628
  864TIP3   OH226786   7.682   5.898  16.226  0.1930  0.6109 -0.3006
  864TIP3    H126787   7.774   5.898  16.202 -0.0116  2.7034 -1.2741
  864TIP3    H226788   7.635   5.890  16.143 -0.5450 -0.3305  0.1727
  865TIP3   OH226789   6.083   7.503  15.485  0.0451  0.1394  0.2059
  865TIP3    H126790   6.048   7.562  15.418 -1.5927 -2.1192 -1.0681
  865TIP3    H226791   6.006   7.472  15.532  1.1472  1.7749  3.4254
  866TIP3   OH226792   7.807   8.391  16.171 -0.2439  0.3406 -0.1816
  866TIP3    H126793   7.898   8.416  16.186 -0.6396  0.4625  2.7822
  866TIP3    H226794   7.770   8.464  16.121  1.0065  0.8236 -0.4300
  867TIP3   OH226795   2.135   3.626  15.749 -0.2417 -0.1777  0.1793
  867TIP3    H126796   2.120   3.705  15.696 -1.1323 -0.6823 -0.3363
  867TIP3    H226797   2.095   3.555  15.699  1.7941 -1.2310 -0.0777
  868TIP3   OH226798   6.096   0.465  17.561  0.2015  0.6200  0.3750
  868TIP3    H126799   6.037   0.447  17.634 -1.1146  0.5499 -0.6729
  868TIP3    H226800   6.064   0.548  17.524  0.6956  0.5369 -0.2552
  869TIP3   OH226801   7.536   0.635  17.527 -0.7335  0.7275  0.0753
  869TIP3    H126802   7.450   0.656  17.565 -0.1522 -0.1874  2.0122
  869TIP3    H226803   7.558   0.549  17.564  1.6081  1.5363  0.6989
  870TIP3   OH226804   1.890   7.038  16.151 -0.4735  0.0007  0.3995
  870TIP3    H126805   1.871   6.946  16.136 -2.0490  0.3874 -0.1423
  870TIP3    H226806   1.837   7.085  16.087  1.2056  1.2662 -0.1495
  871TIP3   OH226807   6.973   0.715  17.490  0.0869 -0.2506 -0.0179
  871TIP3    H126808   6.931   0.801  17.484 -0.4851 -0.3989  1.4428
  871TIP3    H226809   7.002   0.696  17.401 -3.1326 -0.2277 -1.2104
  872TIP3   OH226810   7.070   3.144  16.452  0.0620 -0.0195 -0.0212
  872TIP3    H126811   7.160   3.119  16.474 -0.2076 -0.1917  0.9583
  872TIP3    H226812   7.034   3.179  16.534 -0.6721  0.3104 -0.4717
  873TIP3   OH226813   7.263   3.791  17.196  0.3332  0.2285  0.4080
  873TIP3    H126814   7.308   3.863  17.151  0.3883 -0.2529 -0.3234
  873TIP3    H226815   7.238   3.828  17.281 -1.5023  1.8156 -0.7186
  874TIP3   OH226816   0.977   6.795  16.123  0.0470 -0.1055 -0.1787
  874TIP3    H126817   0.902   6.840  16.085 -1.1182 -2.3208 -0.6911
  874TIP3    H226818   1.042   6.864  16.137 -1.1299  1.5065 -2.0646
  875TIP3   OH226819   1.290   5.039  17.167  0.1924  0.3512 -0.2372
  875TIP3    H126820   1.320   5.131  17.170  0.7506  0.1581  2.3564
  875TIP3    H226821   1.205   5.043  17.123  0.4269  2.0412 -0.6206
  876TIP3   OH226822   8.297   3.825  17.265  0.2778  0.6946 -0.4373
  876TIP3    H126823   8.204   3.848  17.265  0.0298 -0.1921  0.6004
  876TIP3    H226824   8.309   3.773  17.186 -0.4767 -0.4240  0.1363
  877TIP3   OH226825   1.392   2.622  16.616  0.5166 -0.3821  0.3115
  877TIP3    H126826   1.328   2.558  16.647 -0.4831  0.0147 -0.8297
  877TIP3    H226827   1.404   2.599  16.523  1.5570 -0.0525  0.3574
  878TIP3   OH226828   0.547   0.322  17.303 -0.5028 -0.1071  0.6031
  878TIP3    H126829   0.521   0.251  17.244 -3.6520  1.3145  0.0744
  878TIP3    H226830   0.551   0.281  17.389 -1.0655 -1.1875  0.1349
  879TIP3   OH226831   5.023   6.863  17.117  0.0345  0.4092 -0.0904
  879TIP3    H126832   4.967   6.938  17.135 -0.1599  0.7635 -1.9778
  879TIP3    H226833   5.099   6.875  17.175 -0.4776  1.4761  0.3912
  880TIP3   OH226834   7.392   0.111  15.660  0.2474 -0.2417  0.4035
  880TIP3    H126835   7.485   0.109  15.637  0.4326 -0.6375  1.1506
  880TIP3    H226836   7.389   0.076  15.749 -0.5050  0.6771  0.7559
  881TIP3   OH226837   2.195   6.850  16.077  0.0928 -0.2035 -0.9575
  881TIP3    H126838   2.247   6.770  16.076 -0.2555 -0.4230 -1.5276
  881TIP3    H226839   2.104   6.820  16.078 -0.1267  0.1074  2.6120
  882TIP3   OH226840   0.882   1.502  16.730  0.3945  0.0322 -0.0702
  882TIP3    H126841   0.970   1.488  16.764  0.4841  0.3657 -0.1586
  882TIP3    H226842   0.843   1.415  16.727  0.2655  0.0340  1.1750
  883TIP3   OH226843   6.477   2.673  16.254 -0.0279  0.6063 -0.0984
  883TIP3    H126844   6.408   2.698  16.192 -0.3348  0.9571  0.3728
  883TIP3    H226845   6.431   2.630  16.325  0.3040  0.3516 -0.0360
  884TIP3   OH226846   1.453   3.326  17.041 -0.3641 -0.1919 -0.1966
  884TIP3    H126847   1.486   3.394  17.100 -1.2284 -1.8156  2.3366
  884TIP3    H226848   1.501   3.339  16.959  1.5540  1.6614  1.1357
  885TIP3   OH226849   4.598   8.006  17.587 -0.3592  0.2941  0.2034
  885TIP3    H126850   4.574   8.018  17.494 -1.9239  0.5607  0.6058
  885TIP3    H226851   4.542   8.068  17.633  0.5314  0.2776  1.3263
  886TIP3   OH226852   5.022   6.383  16.663  0.1732 -1.0178 -0.3501
  886TIP3    H126853   5.080   6.315  16.627  2.6720  0.8743 -0.1485
  886TIP3    H226854   5.069   6.416  16.740 -0.2469  1.8669 -1.2212
  887TIP3   OH226855   5.481   8.120  16.105 -0.4451 -0.3081  0.3680
  887TIP3    H126856   5.569   8.133  16.141 -0.4601 -0.8169  0.5985
  887TIP3    H226857   5.496   8.085  16.017 -0.3892  2.0459 -0.6331
  888TIP3   OH226858   7.025   2.487  16.016  0.0053 -0.3748  0.3417
  888TIP3    H126859   7.013   2.517  15.926 -3.1538 -0.0882  0.7280
  888TIP3    H226860   7.018   2.566  16.069 -1.2074 -0.8719  0.9678
  889TIP3   OH226861   1.593   2.245  16.978 -0.0231 -0.1150 -0.4600
  889TIP3    H126862   1.602   2.309  16.907 -0.9856 -0.7240 -1.1554
  889TIP3    H226863   1.543   2.173  16.939  1.4460 -1.5285  0.1563
  890TIP3   OH226864   5.948   7.634  16.240 -0.1633  0.5080 -0.3661
  890TIP3    H126865   5.884   7.618  16.309  0.0690 -0.0049 -0.2649
  890TIP3    H226866   5.958   7.729  16.237 -2.0849  0.7355 -1.4256
  891TIP3   OH226867   5.163   8.268  15.425 -0.0015  0.0451  0.2264
  891TIP3    H126868   5.125   8.195  15.474  0.5822 -0.0571  0.5356
  891TIP3    H226869   5.225   8.227  15.365 -0.9285  0.1431 -0.8339
  892TIP3   OH226870   1.480   1.718  16.556  0.1235  0.4652 -0.3521
  892TIP3    H126871   1.551   1.754  16.503 -0.5825  0.3170 -1.4368
  892TIP3    H226872   1.514   1.636  16.591  0.5635  0.5071 -0.6819
  893TIP3   OH226873   1.786   2.601  16.591 -0.3710 -0.4769  0.5315
  893TIP3    H126874   1.723   2.533  16.617 -1.0125 -0.0958  0.0271
  893TIP3    H226875   1.767   2.675  16.649 -0.0738 -0.5200  0.6850
  894TIP3   OH226876   3.660   3.163  17.910  0.6114  0.4105  0.0570
  894TIP3    H126877   3.729   3.114  17.955 -0.0730  1.1571  1.9972
  894TIP3    H226878   3.634   3.105  17.837  1.9504 -0.7181  0.4326
  895TIP3   OH226879   3.595   5.395  15.499 -1.0420  0.7177  0.4164
  895TIP3    H126880   3.666   5.430  15.445  0.0957 -0.4655  1.0774
  895TIP3    H226881   3.524   5.457  15.488 -0.1249  1.6155 -0.7784
  896TIP3   OH226882   6.936   2.747  17.685 -0.2740 -0.2398  0.1860
  896TIP3    H126883   6.979   2.665  17.664 -0.2122  0.1311 -1.1799
  896TIP3    H226884   6.845   2.722  17.703 -0.3582 -0.5664 -0.6442
  897TIP3   OH226885   7.817   4.906  17.143  0.2919  0.6307  0.3431
  897TIP3    H126886   7.850   4.856  17.069  0.6744 -0.9902  1.5518
  897TIP3    H226887   7.724   4.921  17.122  0.3863  0.1683 -0.4405
  898TIP3   OH226888   7.959   5.129  17.599  0.1564  0.0339  0.1414
  898TIP3    H126889   8.023   5.145  17.529 -1.1815 -0.3668 -1.2496
  898TIP3    H226890   7.882   5.179  17.571 -0.7835 -1.0343  0.7483
  899TIP3   OH226891   7.004   1.072  17.758  0.1937  0.0710 -0.0535
  899TIP3    H126892   6.949   1.085  17.681  0.1441  0.7608  0.0875
  899TIP3    H226893   6.946   1.028  17.821 -0.5967  1.8483  0.5207
  900TIP3   OH226894   6.497   4.316  16.197  0.0276 -0.1642 -0.2292
  900TIP3    H126895   6.559   4.318  16.269 -0.8621 -0.8597  0.5846
  900TIP3    H226896   6.437   4.389  16.214  0.8350  0.7657 -1.2345
  901TIP3   OH226897   7.840   6.356  15.857  0.4324 -0.3900  0.3140
  901TIP3    H126898   7.817   6.424  15.920  0.5643 -1.1382  1.2019
  901TIP3    H226899   7.860   6.403  15.776  0.6074  0.6284  0.9304
  902TIP3   OH226900   5.194   8.351  16.484  0.6386  0.6641 -0.3357
  902TIP3    H126901   5.231   8.361  16.571  0.1092  0.1123 -0.0410
  902TIP3    H226902   5.270   8.333  16.428  0.9471  0.7288  0.0553
  903TIP3   OH226903   4.064   3.429  16.843  0.0590  0.0357  0.5736
  903TIP3    H126904   4.040   3.370  16.915  0.6820 -1.5415 -0.4478
  903TIP3    H226905   3.995   3.415  16.777 -0.1927  1.0255  0.6218
  904TIP3   OH226906   7.971   4.427  17.232  0.2671 -0.5130 -0.3301
  904TIP3    H126907   8.045   4.367  17.241  1.2259  0.1609 -2.9081
  904TIP3    H226908   7.993   4.482  17.157 -3.8526 -1.8174 -2.8317
  905TIP3   OH226909   5.996   8.444  15.598 -0.0900  0.3629  0.4841
  905TIP3    H126910   6.017   8.369  15.543  0.9960  0.7578  0.3316
  905TIP3    H226911   5.937   8.410  15.664 -0.4563 -0.3866 -0.2169
  906TIP3   OH226912   3.875   2.991  15.428 -0.1920 -0.3942  0.3949
  906TIP3    H126913   3.904   2.924  15.366 -0.4997 -0.0934 -0.0799
  906TIP3    H226914   3.919   2.969  15.510 -0.2251 -1.1291  0.2193
  907TIP3   OH226915   2.559   0.286  16.236 -0.4880  0.3433  0.3432
  907TIP3    H126916   2.602   0.357  16.283  0.4276 -0.9717  1.5558
  907TIP3    H226917   2.593   0.292  16.147  0.5095  0.6736  0.7367
  908TIP3   OH226918   5.339   7.392  17.833 -0.1203  0.2804  0.4464
  908TIP3    H126919   5.314   7.385  17.741 -0.7183  0.1186  0.6215
  908TIP3    H226920   5.427   7.431  17.831  0.6075 -1.3099 -0.2681
  909TIP3   OH226921   5.655   0.733  18.087 -0.7146  0.0597  0.3642
  909TIP3    H126922   5.653   0.764  18.177  1.9651 -0.0948  0.5327
  909TIP3    H226923   5.612   0.803  18.037  1.7390  2.3697  1.2367
  910TIP3   OH226924   3.022   6.030  16.992  0.6079  0.0785  0.3140
  910TIP3    H126925   3.069   5.978  17.057  1.1653  0.2855  0.0814
  910TIP3    H226926   2.940   6.054  17.035  0.3598 -0.9447  0.4411
  911TIP3   OH226927   6.245   3.583  15.696  0.0520  0.0227 -0.7714
  911TIP3    H126928   6.248   3.648  15.766 -0.4358 -2.4151  1.6761
  911TIP3    H226929   6.196   3.626  15.626 -0.9374  2.0371  1.0250
  912TIP3   OH226930   7.042   5.983  17.453 -0.6446  0.4245  0.3764
  912TIP3    H126931   6.985   6.050  17.490 -0.8202 -0.1389  1.1661
  912TIP3    H226932   6.998   5.900  17.474  0.1088  0.0137  0.3764
  913TIP3   OH226933   7.062   2.412  16.811 -0.2746  0.0781  0.1388
  913TIP3    H126934   7.014   2.472  16.868 -0.9588 -0.0637 -0.2767
  913TIP3    H226935   7.055   2.326  16.854 -0.6202  0.0085 -0.0556
  914TIP3   OH226936   1.144   3.614  15.730 -0.1945  0.2499 -0.2092
  914TIP3    H126937   1.069   3.621  15.670  0.4576  1.7935 -0.8956
  914TIP3    H226938   1.207   3.559  15.682  0.4388  1.7068 -1.1199
  915TIP3   OH226939   2.419   5.626  17.337 -0.6033  0.3258  0.1176
  915TIP3    H126940   2.394   5.672  17.417 -0.1274 -0.6875  0.8814
  915TIP3    H226941   2.511   5.651  17.323 -1.4774  2.8463 -1.8285
  916TIP3   OH226942   2.526   3.155  16.893  0.2082 -0.3262 -0.8275
  916TIP3    H126943   2.447   3.109  16.921  1.2569 -2.1796 -0.7300
  916TIP3    H226944   2.542   3.122  16.805  0.0927  1.1603 -1.4397
  917TIP3   OH226945   1.351   5.583  17.083  0.2240 -0.1049  0.0246
  917TIP3    H126946   1.374   5.504  17.131 -0.5798 -1.2571 -1.3879
  917TIP3    H226947   1.387   5.570  16.996  0.2093  1.1674 -0.1949
  918TIP3   OH226948   3.578   5.931  16.284 -0.1761 -0.2779 -0.4494
  918TIP3    H126949   3.618   5.915  16.369 -0.3884 -1.6630 -0.5818
  918TIP3    H226950   3.499   5.981  16.303 -0.1988 -0.5386  0.1646
  919TIP3   OH226951   6.471   2.870  16.599  0.4633 -0.0148  0.3117
  919TIP3    H126952   6.384   2.871  16.558 -0.2192  2.1729  1.6189
  919TIP3    H226953   6.531   2.856  16.527 -0.9434 -1.0426 -0.7176
  920TIP3   OH226954   4.563   5.909  17.542  0.3160 -0.0191 -0.2989
  920TIP3    H126955   4.505   5.838  17.569 -0.4632  0.5130 -0.5461
  920TIP3    H226956   4.570   5.900  17.447  1.6159 -0.8058 -0.1429
  921TIP3   OH226957   1.429   3.088  15.843  0.0921  0.8312 -0.3686
  921TIP3    H126958   1.373   3.018  15.877  0.7602  0.2091 -0.5199
  921TIP3    H226959   1.493   3.043  15.789  1.4197  1.4010  0.6801
  922TIP3   OH226960   7.481   7.602  17.328 -0.3134  0.1363  0.0679
  922TIP3    H126961   7.429   7.523  17.344 -2.2262  1.2251 -0.4233
  922TIP3    H226962   7.474   7.617  17.234 -0.5750  1.2504  0.2408
  923TIP3   OH226963   4.436   0.734  17.973  0.2986  0.6141 -0.0091
  923TIP3    H126964   4.393   0.655  18.005  0.4215  1.1679  1.6314
  923TIP3    H226965   4.509   0.701  17.921 -0.4246 -0.3383 -0.4526
  924TIP3   OH226966   1.010   8.397  17.118 -0.2225 -0.0355  0.1566
  924TIP3    H126967   0.919   8.390  17.146  0.2170 -2.2719  1.2686
  924TIP3    H226968   1.043   8.475  17.163 -1.2356  0.0724  0.7532
  925TIP3   OH226969   7.052   3.817  16.387  0.1311  0.2681  0.4818
  925TIP3    H126970   7.053   3.831  16.292 -1.0126 -0.3680  0.3479
  925TIP3    H226971   7.119   3.751  16.403  1.6517  1.7320  0.3879
  926TIP3   OH226972   3.154   5.285  16.929  0.2481  0.1161  1.0163
  926TIP3    H126973   3.201   5.206  16.903 -0.3157  0.7099 -2.1803
  926TIP3    H226974   3.166   5.290  17.024  1.0854 -3.2502  1.2027
  927TIP3   OH226975   7.171   4.196  17.839 -0.2007 -0.0319 -0.5801
  927TIP3    H126976   7.100   4.134  17.826 -1.1833  0.7183  0.9235
  927TIP3    H226977   7.139   4.278  17.800  0.8769 -0.2960 -2.1000
  928TIP3   OH226978   3.670   4.027  17.103  0.2235 -0.2432 -0.2219
  928TIP3    H126979   3.736   3.959  17.113  0.5087  0.0409 -0.1404
  928TIP3    H226980   3.600   3.986  17.053  0.2249 -0.7084  0.1527
  929TIP3   OH226981   4.610   5.230  16.884 -0.3855  0.4162  0.0773
  929TIP3    H126982   4.529   5.280  16.894 -0.3801  0.2029  1.3153
  929TIP3    H226983   4.679   5.293  16.905 -0.2451  0.4782 -0.5497
  930TIP3   OH226984   5.475   5.762  16.245  0.1374 -0.2355  0.3381
  930TIP3    H126985   5.550   5.738  16.301 -0.2105 -0.6035  0.6458
  930TIP3    H226986   5.401   5.766  16.305  0.0233  0.7780  0.1513
  931TIP3   OH226987   0.996   0.222  16.094  0.2291 -0.5028  0.3759
  931TIP3    H126988   1.069   0.161  16.086  0.6190  0.0609 -0.5176
  931TIP3    H226989   0.957   0.225  16.006  0.5144  0.8846  0.2786
  932TIP3   OH226990   5.362   6.229  16.925  0.0614 -0.3609  0.4840
  932TIP3    H126991   5.414   6.169  16.978  0.6339  0.1838  0.5563
  932TIP3    H226992   5.340   6.301  16.984 -0.1336 -0.2267  0.2512
  933TIP3   OH226993   5.999   7.219  17.609  0.0836 -0.0411  0.0591
  933TIP3    H126994   5.922   7.274  17.601  0.2843  0.3366  0.6448
  933TIP3    H226995   6.073   7.278  17.595  0.2801 -0.3365 -0.1819
  934TIP3   OH226996   5.224   1.954  17.222  0.1747 -0.7467 -0.0096
  934TIP3    H126997   5.170   1.967  17.144  0.8782  1.1665 -0.2412
  934TIP3    H226998   5.183   2.009  17.289  1.2868  0.0642  0.0460
  935TIP3   OH226999   7.451   4.565  17.116 -0.2575 -0.6707 -0.0185
  935TIP3    H127000   7.413   4.653  17.110 -1.4541 -1.2276 -1.2838
  935TIP3    H227001   7.450   4.533  17.026  2.9552 -0.8897 -0.0851
  936TIP3   OH227002   2.202   0.810  17.422  0.3382 -0.0370  0.6585
  936TIP3    H127003   2.227   0.739  17.482  0.2196 -1.4083 -0.8478
  936TIP3    H227004   2.259   0.797  17.346  0.0192  1.2573  0.1841
  937TIP3   OH227005   8.174   3.047  17.762  0.1206 -0.4356 -0.7395
  937TIP3    H127006   8.158   3.141  17.770 -0.7068 -0.5833 -0.5302
  937TIP3    H227007   8.098   3.007  17.805  1.2656 -1.1936  0.6753
  938TIP3   OH227008   4.874   0.599  17.382 -0.1107  0.3225  0.1337
  938TIP3    H127009   4.960   0.575  17.348 -0.6301 -1.2945 -0.1156
  938TIP3    H227010   4.879   0.578  17.475 -1.1553 -2.7299 -0.4005
  939TIP3   OH227011   0.577   0.655  15.334  0.0566  0.2560 -0.4936
  939TIP3    H127012   0.538   0.599  15.267  0.7770 -0.0200 -0.6914
  939TIP3    H227013   0.531   0.632  15.414 -0.7064  0.4762 -0.8559
  940TIP3   OH227014   3.892   3.575  16.093 -0.4602  0.0552  0.1276
  940TIP3    H127015   3.819   3.585  16.154  1.0922 -0.5649  2.1866
  940TIP3    H227016   3.937   3.496  16.121  0.2717 -0.3357 -1.9305
  941TIP3   OH227017   2.874   7.264  17.225  0.0533  0.6632  0.0333
  941TIP3    H127018   2.846   7.313  17.302  1.0723  0.8197  0.3178
  941TIP3    H227019   2.970   7.271  17.225  0.2280 -1.1856  0.0089
  942TIP3   OH227020   2.769   5.650  17.758 -0.2025  0.2678 -0.3146
  942TIP3    H127021   2.844   5.692  17.803 -0.3893  1.9752 -1.5057
  942TIP3    H227022   2.696   5.709  17.776 -1.1577 -1.0788  0.3216
  943TIP3   OH227023   6.717   5.318  16.554 -0.4052 -0.0046  0.5042
  943TIP3    H127024   6.760   5.247  16.507 -0.6004  0.3239 -0.1818
  943TIP3    H227025   6.711   5.286  16.644 -0.0597 -0.6561  0.3069
  944TIP3   OH227026   1.022   1.438  16.231 -0.6447  0.1691  0.7649
  944TIP3    H127027   0.939   1.391  16.242  0.0403 -0.8733  1.6760
  944TIP3    H227028   1.083   1.394  16.291  0.8200  0.3236 -0.5478
  945TIP3   OH227029   5.581   2.380  17.041  0.5209  0.4248  0.1993
  945TIP3    H127030   5.554   2.288  17.044  0.7755  0.3469  0.1123
  945TIP3    H227031   5.558   2.410  16.953  2.2400 -0.1153 -0.4707
  946TIP3   OH227032   6.940   7.946  15.957 -0.1000  0.6808 -0.1063
  946TIP3    H127033   6.987   7.968  15.877 -0.1852 -0.2209 -0.4090
  946TIP3    H227034   7.008   7.927  16.021 -0.0443  0.6093 -0.1877
  947TIP3   OH227035   5.553   4.809  16.906 -0.1726 -0.0603  0.1380
  947TIP3    H127036   5.625   4.819  16.968  0.5940 -0.5654 -0.6325
  947TIP3    H227037   5.536   4.714  16.904 -1.2271  0.1051  0.7032
  948TIP3   OH227038   0.295   0.275  17.710  0.2741 -0.1565  0.0959
  948TIP3    H127039   0.376   0.296  17.757 -0.4041  1.2786  0.6764
  948TIP3    H227040   0.299   0.327  17.630  0.1080 -0.4172 -0.0867
  949TIP3   OH227041   2.403   7.165  17.277 -0.1077 -0.1657 -0.0384
  949TIP3    H127042   2.390   7.258  17.258  1.3923  0.1274  0.2124
  949TIP3    H227043   2.480   7.163  17.334 -0.4040 -1.5295  0.3456
  950TIP3   OH227044   7.505   6.961  15.946  0.5138 -0.3038 -0.1459
  950TIP3    H127045   7.576   7.021  15.968  1.5582 -1.4715 -0.2349
  950TIP3    H227046   7.425   7.010  15.966  1.3363  0.9534  0.1658
  951TIP3   OH227047   2.212   2.443  16.968 -0.3025  0.0380 -0.0577
  951TIP3    H127048   2.212   2.407  17.056  1.0636  0.4111  0.1102
  951TIP3    H227049   2.152   2.518  16.972 -0.4144 -0.0834  0.4919
  952TIP3   OH227050   4.728   3.126  16.078 -0.1972 -0.0205  0.3974
  952TIP3    H127051   4.764   3.208  16.047  1.0567 -1.4937 -2.4581
  952TIP3    H227052   4.802   3.065  16.078 -1.4187 -1.6017  0.5369
  953TIP3   OH227053   4.191   2.742  15.491  0.0882 -0.0479  0.2419
  953TIP3    H127054   4.228   2.727  15.578  2.0934 -0.3870 -0.5919
  953TIP3    H227055   4.241   2.816  15.456  0.5474 -1.0067 -1.2427
  954TIP3   OH227056   2.018   2.853  16.259 -0.7606 -0.2659  0.5854
  954TIP3    H127057   2.062   2.936  16.275 -0.1694 -0.8666  2.2511
  954TIP3    H227058   1.926   2.877  16.247 -0.7257  0.5653  1.8469
  955TIP3   OH227059   2.440   6.627  15.980 -0.0583  0.4415  0.3451
  955TIP3    H127060   2.520   6.664  15.945  0.0067  0.6949  0.7513
  955TIP3    H227061   2.399   6.582  15.906 -0.0142  1.1132 -0.0962
  956TIP3   OH227062   0.644   6.747  16.462  0.3971 -0.4994 -0.4303
  956TIP3    H127063   0.639   6.783  16.374  0.7872  0.5246 -0.0564
  956TIP3    H227064   0.565   6.778  16.506  1.8591  2.0945  0.6336
  957TIP3   OH227065   3.644   3.110  16.145 -0.1282  0.2749 -0.4075
  957TIP3    H127066   3.732   3.129  16.110 -0.2136 -2.9605 -2.8111
  957TIP3    H227067   3.585   3.158  16.086 -0.0714  0.3539 -0.4011
  958TIP3   OH227068   7.394   7.797  16.962  0.7635 -0.2081 -0.0116
  958TIP3    H127069   7.485   7.816  16.938  0.3662 -0.6944 -2.0869
  958TIP3    H227070   7.351   7.882  16.959  1.0076 -0.0703  0.3271
  959TIP3   OH227071   1.195   3.494  15.985  0.1844  0.1701 -0.2202
  959TIP3    H127072   1.210   3.399  15.985 -0.1086  0.1211 -0.3049
  959TIP3    H227073   1.176   3.515  15.893  0.3794  0.3306 -0.2220
  960TIP3   OH227074   5.068   0.678  16.041 -0.3132 -0.4162 -0.0284
  960TIP3    H127075   5.074   0.736  16.117  1.6439 -0.3474 -0.1804
  960TIP3    H227076   5.065   0.738  15.966  1.3126 -0.4632 -0.1638
  961TIP3   OH227077   7.104   5.569  16.894 -0.6730  0.0434  0.0436
  961TIP3    H127078   7.044   5.495  16.891 -1.1814  0.4121  0.7983
  961TIP3    H227079   7.190   5.529  16.912 -0.9039 -0.3867  0.2042
  962TIP3   OH227080   2.082   2.079  17.196  0.0252  0.1116 -0.0005
  962TIP3    H127081   2.042   2.027  17.266 -0.6227  0.4057 -0.1484
  962TIP3    H227082   2.166   2.036  17.179 -0.8464 -1.3724 -0.6955
  963TIP3   OH227083   7.916   4.114  16.353 -0.1740 -0.0769 -0.3674
  963TIP3    H127084   7.833   4.160  16.372 -0.1956 -0.4056  0.3642
  963TIP3    H227085   7.922   4.114  16.258 -0.5491  0.7859 -0.4012
  964TIP3   OH227086   5.753   5.609  17.085 -0.8388 -0.0369  0.1150
  964TIP3    H127087   5.671   5.658  17.088 -1.0050 -0.2866 -0.3630
  964TIP3    H227088   5.816   5.670  17.045 -0.0726  1.1670  2.8642
  965TIP3   OH227089   6.866   5.439  17.131 -0.1988  0.5188 -0.4524
  965TIP3    H127090   6.873   5.519  17.184  2.0649  1.1037 -1.4938
  965TIP3    H227091   6.861   5.471  17.041 -1.8005 -0.5033 -0.7681
  966TIP3   OH227092   0.229   7.755  17.011 -0.2860 -0.2774  0.3257
  966TIP3    H127093   0.209   7.811  16.935 -0.5617 -0.0508  0.5648
  966TIP3    H227094   0.207   7.666  16.981  0.5863 -0.3245 -0.2137
  967TIP3   OH227095   8.111   0.128  17.047 -0.0639 -0.9736 -0.1423
  967TIP3    H127096   8.030   0.083  17.071 -1.1124  1.4128  1.1079
  967TIP3    H227097   8.088   0.178  16.968 -0.5346  1.3397  1.3636
  968TIP3   OH227098   0.997   4.567  16.523 -0.1417 -0.3493 -0.0031
  968TIP3    H127099   1.074   4.530  16.481  0.8185  1.0521  0.4725
  968TIP3    H227100   1.005   4.542  16.615  0.6800  1.2340  0.3833
  969TIP3   OH227101   1.237   4.916  15.743 -0.2129  0.1784 -0.0893
  969TIP3    H127102   1.270   4.886  15.659 -0.3302 -1.9318  0.5720
  969TIP3    H227103   1.222   5.010  15.731 -0.0245 -0.0385 -2.3331
  970TIP3   OH227104   1.514   3.878  17.747 -0.5387 -0.1095 -0.4177
  970TIP3    H127105   1.496   3.789  17.778 -0.4805 -0.1258 -0.4315
  970TIP3    H227106   1.588   3.907  17.800  1.9297 -1.4223 -2.8270
  971TIP3   OH227107   3.147   3.476  17.647  0.1100  0.0443 -0.0522
  971TIP3    H127108   3.238   3.474  17.619  0.7512  1.2262  1.7325
  971TIP3    H227109   3.135   3.396  17.697  0.8396  0.8544  1.4845
  972TIP3   OH227110   7.458   6.677  16.594 -0.6572 -0.4058 -0.0154
  972TIP3    H127111   7.370   6.710  16.608 -0.1178  0.8931  0.4350
  972TIP3    H227112   7.496   6.671  16.682  0.0205 -0.0140 -0.2744
  973TIP3   OH227113   5.215   3.777  15.467  0.5632  0.3014 -0.4185
  973TIP3    H127114   5.167   3.853  15.435 -0.4873 -0.3228 -0.3710
  973TIP3    H227115   5.172   3.702  15.424  1.4403 -0.2807 -0.3034
  974TIP3   OH227116   2.686   6.019  16.819  0.5391 -0.2228 -0.1628
  974TIP3    H127117   2.699   6.113  16.826  0.3175 -0.2648  1.2785
  974TIP3    H227118   2.624   6.008  16.747 -0.4790  0.8462  0.5215
  975TIP3   OH227119   1.938   4.038  16.834  0.0612  0.1157 -0.3056
  975TIP3    H127120   1.861   4.073  16.790  0.1769  1.2392  0.3419
  975TIP3    H227121   1.942   4.085  16.917  0.6298 -0.9679  0.3102
  976TIP3   OH227122   6.594   7.372  17.676 -0.1188 -0.4368  0.5245
  976TIP3    H127123   6.535   7.299  17.656 -0.1516 -0.1085 -0.6239
  976TIP3    H227124   6.545   7.450  17.654  0.7460 -0.1563 -0.4842
  977TIP3   OH227125   0.421   0.777  16.015 -0.5283  0.4711 -0.4187
  977TIP3    H127126   0.376   0.703  15.974 -1.2066  0.5084  0.2400
  977TIP3    H227127   0.357   0.848  16.015 -1.2696 -0.0496  2.3078
  978TIP3   OH227128   0.793   7.556  17.074  0.4746  0.4646  0.3450
  978TIP3    H127129   0.790   7.473  17.026 -1.1248  0.9483 -0.4558
  978TIP3    H227130   0.762   7.534  17.161  0.6680  0.1044  0.3270
  979TIP3   OH227131   8.019   2.402  17.001 -0.2396 -0.2056  0.0587
  979TIP3    H127132   8.095   2.344  17.005  0.0061  0.1537  0.7089
  979TIP3    H227133   7.998   2.407  16.907  0.7396 -0.0391 -0.1670
  980TIP3   OH227134   0.075   1.465  17.256 -0.4173  0.0722  0.3566
  980TIP3    H127135   0.071   1.395  17.320  0.4100  0.3031  0.6646
  980TIP3    H227136  -0.016   1.497  17.250 -0.6122 -0.3605  0.9462
  981TIP3   OH227137   5.418   6.235  17.297  0.0826 -0.1567 -0.6407
  981TIP3    H127138   5.382   6.257  17.383  0.5492  0.0469 -0.4976
  981TIP3    H227139   5.509   6.212  17.314  0.1240 -0.3039 -1.0556
  982TIP3   OH227140   7.410   2.253  16.036 -0.1924 -0.2338  0.4065
  982TIP3    H127141   7.447   2.319  16.094 -1.8261  0.4081  0.7680
  982TIP3    H227142   7.426   2.286  15.948  0.2145 -0.0394  0.5528
  983TIP3   OH227143   7.831   2.987  15.614 -0.1466  0.1604  0.2158
  983TIP3    H127144   7.786   3.025  15.538 -0.4154 -0.1782  0.2025
  983TIP3    H227145   7.854   3.062  15.668  1.4185  0.5488 -0.9264
  984TIP3   OH227146   4.216   0.815  17.582 -0.4183  0.9230 -0.2501
  984TIP3    H127147   4.173   0.822  17.497  0.1412 -0.3139 -0.6569
  984TIP3    H227148   4.162   0.869  17.641 -0.9095  1.6485 -1.3330
  985TIP3   OH227149   2.687   6.208  15.961 -0.1199 -0.0367  0.1454
  985TIP3    H127150   2.762   6.188  15.905 -0.7871 -0.1374 -0.7411
  985TIP3    H227151   2.646   6.284  15.919  0.8122  1.5536  1.9375
  986TIP3   OH227152   5.719   0.730  16.238 -0.3382  0.1885 -0.5141
  986TIP3    H127153   5.750   0.740  16.328  0.5295 -1.2571 -0.6273
  986TIP3    H227154   5.757   0.648  16.208  0.6478  1.3618 -2.7316
  987TIP3   OH227155   4.676   6.463  16.928  0.1609 -0.1799 -0.3308
  987TIP3    H127156   4.751   6.516  16.952 -0.3341  0.8150 -0.9291
  987TIP3    H227157   4.670   6.470  16.833 -0.0123 -1.1823 -0.4118
  988TIP3   OH227158   6.560   4.681  17.712  0.2024  0.6288 -0.7068
  988TIP3    H127159   6.515   4.603  17.680 -0.4643  1.3003 -1.4419
  988TIP3    H227160   6.598   4.655  17.796  1.1260 -0.8873 -1.5554
  989TIP3   OH227161   1.878   7.442  17.242  0.0468 -0.1639  0.7617
  989TIP3    H127162   1.967   7.432  17.207 -0.4908 -0.8960 -0.4607
  989TIP3    H227163   1.872   7.535  17.265  0.7633  0.1328 -0.1729
  990TIP3   OH227164   1.782   1.985  17.159 -0.0784 -0.5252 -0.0053
  990TIP3    H127165   1.757   1.999  17.250 -1.2051 -0.9668 -0.2307
  990TIP3    H227166   1.820   2.068  17.131 -2.6217  0.7242 -0.0477
  991TIP3   OH227167   1.537   1.182  16.199 -0.7255  0.4445  0.5972
  991TIP3    H127168   1.625   1.185  16.236 -1.0728  1.1457  1.3847
  991TIP3    H227169   1.549   1.207  16.107 -0.1640  0.9911  0.8166
  992TIP3   OH227170   7.834   3.401  16.377  0.2980  0.0640  0.2466
  992TIP3    H127171   7.926   3.388  16.401  0.3301 -0.4684 -0.1300
  992TIP3    H227172   7.797   3.312  16.375 -0.4325  0.3361  1.1879
  993TIP3   OH227173   0.243   2.012  17.321  0.8845 -0.3464  0.1779
  993TIP3    H127174   0.196   2.058  17.392 -1.3162  0.6479 -1.7817
  993TIP3    H227175   0.203   1.925  17.318  1.7277 -0.7765  0.7863
  994TIP3   OH227176   1.036   0.442  16.286  0.3187 -0.6123 -0.0569
  994TIP3    H127177   1.053   0.357  16.245  0.1075 -1.0265  0.7154
  994TIP3    H227178   0.943   0.442  16.306 -0.0149  0.4234 -1.4333
  995TIP3   OH227179   2.967   0.590  17.454  0.2885  0.3902  0.3578
  995TIP3    H127180   2.990   0.502  17.425  0.1881  0.3184  0.4932
  995TIP3    H227181   3.046   0.622  17.498  0.4540  0.5162 -0.0298
  996TIP3   OH227182   6.464   7.819  17.066  0.1402 -0.3730 -0.0094
  996TIP3    H127183   6.554   7.839  17.040  0.4972  0.2497  1.6206
  996TIP3    H227184   6.426   7.776  16.989  1.4728  0.3808 -1.1336
  997TIP3   OH227185   7.552   6.514  16.185 -0.4895 -0.5481 -0.5382
  997TIP3    H127186   7.586   6.432  16.149  1.5194 -0.3261  0.6907
  997TIP3    H227187   7.553   6.501  16.279 -0.1432  0.8755 -0.3173
  998TIP3   OH227188   3.323   2.596  17.348 -0.0406 -0.6610  0.2632
  998TIP3    H127189   3.239   2.635  17.326  0.4315  0.7269  0.8298
  998TIP3    H227190   3.358   2.565  17.264  0.0579  1.1575 -0.4056
  999TIP3   OH227191   8.018   3.573  17.179 -0.0764  0.1518  0.5850
  999TIP3    H127192   7.964   3.556  17.256  1.1430 -0.5889  1.3075
  999TIP3    H227193   7.979   3.519  17.110 -1.6034  1.3500  0.4320
 1000TIP3   OH227194   8.321   0.183  15.622 -0.4167  0.1136 -0.4768
 1000TIP3    H127195   8.402   0.224  15.592  0.8357 -0.8477  1.4120
 1000TIP3    H227196   8.258   0.255  15.624  1.1245  1.5126  0.6349
 1001TIP3   OH227197   3.486   6.094  17.804 -0.8087  0.4469  0.1508
 1001TIP3    H127198   3.530   6.122  17.724 -0.9942  0.2707 -0.0157
 1001TIP3    H227199   3.426   6.026  17.775 -0.4170 -0.0714  0.5359
 1002TIP3   OH227200   5.922   6.662  15.890 -0.6679 -0.4575  0.2199
 1002TIP3    H127201   5.857   6.708  15.837 -0.7394  0.1230  0.8006
 1002TIP3    H227202   5.896   6.570  15.885 -0.5417 -0.4518 -0.9240
 1003TIP3   OH227203   6.081   6.149  16.104 -0.2028 -0.1451  0.0288
 1003TIP3    H127204   6.155   6.170  16.048 -0.5477 -0.2580 -0.4743
 1003TIP3    H227205   6.022   6.098  16.049 -0.6858 -0.0029  0.4035
 1004TIP3   OH227206   6.307   2.580  16.816 -0.8179  0.1271 -0.3317
 1004TIP3    H127207   6.339   2.500  16.774 -0.4654  0.8473 -1.5073
 1004TIP3    H227208   6.220   2.594  16.778 -1.4287 -0.3827  0.8498
 1005TIP3   OH227209   4.940   7.765  16.614 -0.3703 -0.4947 -0.3924
 1005TIP3    H127210   5.031   7.791  16.602 -0.2194 -0.9682 -0.2766
 1005TIP3    H227211   4.916   7.724  16.530 -0.8063  0.5815 -0.8155
 1006TIP3   OH227212   3.314   6.320  17.171  0.6508  0.4708 -0.5598
 1006TIP3    H127213   3.389   6.376  17.151  1.6077 -1.1928 -1.8846
 1006TIP3    H227214   3.349   6.254  17.231 -0.3954  1.1019  0.7868
 1007TIP3   OH227215   4.757   7.008  16.168  0.5821 -0.4691  0.0076
 1007TIP3    H127216   4.827   6.984  16.107 -0.9239 -0.4800 -1.8085
 1007TIP3    H227217   4.798   7.068  16.230  2.2466 -0.7048 -0.8077
 1008TIP3   OH227218   5.566   7.924  16.788  0.2701  0.1082 -0.0695
 1008TIP3    H127219   5.592   8.004  16.742  0.3155  0.0238 -0.1890
 1008TIP3    H227220   5.476   7.941  16.816  0.9415  1.0148  1.6957
 1009TIP3   OH227221   0.255   3.994  16.361  0.1512  0.1358  0.1081
 1009TIP3    H127222   0.232   3.998  16.454 -0.1151  1.4636 -0.0052
 1009TIP3    H227223   0.294   4.079  16.342 -0.7101  0.2559 -1.2292
 1010TIP3   OH227224   7.666   0.111  15.679  0.1314  0.4730 -0.3975
 1010TIP3    H127225   7.702   0.025  15.700  0.5598  0.4871 -1.0301
 1010TIP3    H227226   7.731   0.173  15.711 -0.6055  0.6106  0.8922
 1011TIP3   OH227227   5.998   1.652  17.649  0.6577 -0.3784  0.5206
 1011TIP3    H127228   5.956   1.614  17.725 -0.0997  1.2906  0.9805
 1011TIP3    H227229   5.964   1.602  17.575 -2.0213  0.7379  0.8950
 1012TIP3   OH227230   5.085   3.282  17.502 -0.1148 -0.4181 -0.1313
 1012TIP3    H127231   5.169   3.287  17.545  0.0816  1.6315 -0.6345
 1012TIP3    H227232   5.047   3.370  17.512 -1.0330 -0.5198 -2.1216
 1013TIP3   OH227233   5.593   1.556  17.415  0.3282  0.8749 -0.1172
 1013TIP3    H127234   5.568   1.648  17.404 -0.3698  0.6952 -0.0905
 1013TIP3    H227235   5.518   1.516  17.459  0.4363  0.1881 -0.5397
 1014TIP3   OH227236   2.821   2.359  16.220 -0.2084 -0.3786  0.2508
 1014TIP3    H127237   2.736   2.335  16.257 -0.9925 -0.5281 -1.5351
 1014TIP3    H227238   2.835   2.298  16.148  0.2809  1.1174 -0.9891
 1015TIP3   OH227239   5.460   2.745  17.437 -0.3675  0.0664  0.7625
 1015TIP3    H127240   5.400   2.706  17.373 -1.1399  2.0983  0.1769
 1015TIP3    H227241   5.547   2.715  17.409 -0.9438 -1.8002  0.8145
 1016TIP3   OH227242   4.172   3.506  16.423  0.1133  0.1901  0.1476
 1016TIP3    H127243   4.232   3.431  16.422 -0.9879 -0.7411  0.5621
 1016TIP3    H227244   4.220   3.575  16.470  1.2339 -0.1726 -0.4305
 1017TIP3   OH227245   0.178   7.856  16.726  0.0912 -0.2059 -0.3796
 1017TIP3    H127246   0.098   7.821  16.687  1.1640 -1.3314 -1.7249
 1017TIP3    H227247   0.190   7.940  16.683 -0.3499 -0.0511 -0.2023
 1018TIP3   OH227248   1.330   6.901  17.607  0.2243  0.3563 -0.1972
 1018TIP3    H127249   1.303   6.930  17.694  0.4729  0.2315 -0.0781
 1018TIP3    H227250   1.425   6.901  17.611  0.2992 -2.8600  0.6015
 1019TIP3   OH227251   5.347   6.991  17.939 -0.1640 -0.2494 -0.7472
 1019TIP3    H127252   5.326   7.071  17.988 -1.5708 -1.2098  0.3001
 1019TIP3    H227253   5.292   6.996  17.861 -0.5522 -0.3807 -0.4841
 1020TIP3   OH227254   5.075   1.104  16.794  0.0921  0.0509  0.1600
 1020TIP3    H127255   5.160   1.059  16.796 -0.3797 -1.0363 -1.7481
 1020TIP3    H227256   5.086   1.172  16.727  0.0084  1.1652  1.2462
 1021TIP3   OH227257   1.998   5.015  16.330 -0.1368 -0.2795 -0.0974
 1021TIP3    H127258   2.004   4.956  16.405 -0.0795  0.8257  0.7903
 1021TIP3    H227259   2.000   5.102  16.368 -2.9788  0.3474 -1.1419
 1022TIP3   OH227260   6.622   6.874  16.368  0.1266 -0.1328  0.3307
 1022TIP3    H127261   6.657   6.838  16.286  2.1342  0.4011  0.8800
 1022TIP3    H227262   6.538   6.831  16.379  0.8623 -2.0124 -0.8214
 1023TIP3   OH227263   4.726   4.300  16.349 -0.2228 -0.7821  0.3019
 1023TIP3    H127264   4.760   4.388  16.335 -1.6850 -0.1961  0.2910
 1023TIP3    H227265   4.776   4.267  16.424  2.9835 -1.4262 -1.9394
 1024TIP3   OH227266   7.053   7.261  17.394  0.3205  0.3143  0.3395
 1024TIP3    H127267   6.987   7.331  17.398  1.7943  1.9232 -1.4647
 1024TIP3    H227268   7.034   7.216  17.312  0.8617  0.1561  0.3009
 1025TIP3   OH227269   7.040   3.952  17.795 -0.5999 -0.0953  0.1639
 1025TIP3    H127270   7.131   3.939  17.769 -1.1156  0.2770 -2.1303
 1025TIP3    H227271   7.012   3.868  17.830  0.5212 -0.3246  0.5237
 1026TIP3   OH227272   0.416   6.852  16.596 -0.1754 -0.1820  0.1469
 1026TIP3    H127273   0.373   6.768  16.616 -0.2449  0.0692  1.1087
 1026TIP3    H227274   0.456   6.878  16.678  0.8560  0.1658 -0.4512
 1027TIP3   OH227275   6.077   7.569  16.732 -0.4651 -0.0382  0.0746
 1027TIP3    H127276   6.120   7.503  16.679 -1.0541  0.3444 -0.8952
 1027TIP3    H227277   6.022   7.518  16.792  0.4384 -0.4806  0.5561
 1028TIP3   OH227278   6.739   2.213  16.853 -0.5856 -0.3302 -0.2153
 1028TIP3    H127279   6.725   2.206  16.759 -0.5898 -0.7766 -0.1859
 1028TIP3    H227280   6.826   2.175  16.866 -0.4949 -0.0728 -0.0637
 1029TIP3   OH227281   7.846   0.028  18.018  0.6764 -0.0773 -0.2566
 1029TIP3    H127282   7.773   0.074  17.977 -0.7620 -0.6883  1.4520
 1029TIP3    H227283   7.912   0.096  18.034  0.0039  0.7134 -0.8240
 1030TIP3   OH227284   1.632   2.779  17.319  0.1959  0.0063  0.6535
 1030TIP3    H127285   1.647   2.693  17.357 -0.0281 -0.0179  0.6891
 1030TIP3    H227286   1.577   2.762  17.242  3.1768 -0.3458 -1.5910
 1031TIP3   OH227287   1.923   6.750  16.076  0.2501 -0.3850 -0.3477
 1031TIP3    H127288   1.915   6.701  16.157 -1.8894  2.1266  1.1448
 1031TIP3    H227289   1.838   6.739  16.032  0.5239  0.1620 -1.0448
 1032TIP3   OH227290   0.429   3.907  17.497  0.3796 -0.1692  0.3447
 1032TIP3    H127291   0.490   3.888  17.425  0.6704  0.0383  0.5346
 1032TIP3    H227292   0.463   3.986  17.538  0.1080 -0.1800  0.5971
 1033TIP3   OH227293   3.538   6.739  16.847 -0.2554 -0.0058 -0.5546
 1033TIP3    H127294   3.475   6.809  16.835 -2.3003 -1.5425  0.6628
 1033TIP3    H227295   3.485   6.660  16.860  1.9172 -1.5145 -0.2621
 1034TIP3   OH227296   0.606   5.857  17.408 -0.6622 -0.1405 -0.0913
 1034TIP3    H127297   0.651   5.938  17.388 -0.8945 -0.1690 -0.7373
 1034TIP3    H227298   0.522   5.885  17.447  0.3225 -0.0810  2.1786
 1035TIP3   OH227299   1.320   2.679  17.508  0.0457  0.4487  0.0357
 1035TIP3    H127300   1.268   2.726  17.443  0.1212  0.3400 -0.1053
 1035TIP3    H227301   1.261   2.663  17.581 -0.6415 -1.2239 -0.8221
 1036TIP3   OH227302   3.007   2.349  17.776  0.3201 -0.1887  0.2992
 1036TIP3    H127303   2.922   2.384  17.748  0.5527  0.3399  0.2338
 1036TIP3    H227304   2.992   2.255  17.786 -0.7593  0.1184  2.0232
 1037TIP3   OH227305   4.548   2.457  17.184 -0.5149 -0.0656  0.2402
 1037TIP3    H127306   4.508   2.435  17.268  0.5896 -3.0985  0.0854
 1037TIP3    H227307   4.632   2.497  17.207 -0.9650  0.7311  0.5408
 1038TIP3   OH227308   6.859   6.060  16.664  0.0572 -0.5336  0.3156
 1038TIP3    H127309   6.831   6.151  16.675 -2.7291 -1.2822  0.1871
 1038TIP3    H227310   6.786   6.018  16.619  1.6819 -2.6504 -0.5193
 1039TIP3   OH227311   7.135   6.613  17.474 -0.3196 -0.1637  0.3232
 1039TIP3    H127312   7.226   6.627  17.501  0.4075 -1.1369 -1.5107
 1039TIP3    H227313   7.110   6.695  17.431 -0.7850  0.5901  1.9359
 1040TIP3   OH227314   2.312   4.583  16.721  0.9717  0.1405  0.0844
 1040TIP3    H127315   2.265   4.645  16.666 -0.4628  0.6331  1.7734
 1040TIP3    H227316   2.257   4.504  16.720  1.3324 -0.1135  0.1831
 1041TIP3   OH227317   3.527   6.738  17.636 -0.3029 -0.6699 -0.1437
 1041TIP3    H127318   3.597   6.732  17.572 -0.4994 -0.5566 -0.3709
 1041TIP3    H227319   3.465   6.801  17.599 -0.2091 -0.2760  0.3521
 1042TIP3   OH227320   2.528   2.730  15.647  0.1721 -0.0303  0.2413
 1042TIP3    H127321   2.596   2.797  15.636  3.0095 -1.8029  4.2790
 1042TIP3    H227322   2.568   2.650  15.613 -2.2499 -0.2507 -2.4018
 1043TIP3   OH227323   0.203   0.248  15.756  0.1728  0.0617 -0.0720
 1043TIP3    H127324   0.131   0.307  15.778  1.2225  1.5887 -0.6001
 1043TIP3    H227325   0.182   0.217  15.668 -0.2112 -0.0790  0.0695
 1044TIP3   OH227326   5.620   2.265  16.213  0.0042 -0.8440  0.0513
 1044TIP3    H127327   5.684   2.298  16.150 -0.6066 -1.3501 -0.8504
 1044TIP3    H227328   5.602   2.175  16.185 -3.0060  0.0402 -1.3252
 1045TIP3   OH227329   4.889   1.255  17.615  0.0278  0.1419  0.0007
 1045TIP3    H127330   4.861   1.216  17.698  0.3150  1.8608  0.9602
 1045TIP3    H227331   4.842   1.205  17.548 -0.4272 -1.1135  1.2009
 1046TIP3   OH227332   6.900   2.180  15.591 -0.2790  0.2243  0.4764
 1046TIP3    H127333   6.866   2.248  15.648 -1.1177  1.1625 -1.0944
 1046TIP3    H227334   6.995   2.196  15.589 -0.4862  1.4975 -0.0419
 1047TIP3   OH227335   1.546   0.944  16.455  0.1411  0.2276 -0.2849
 1047TIP3    H127336   1.465   0.949  16.505 -0.0545 -0.4536 -0.5300
 1047TIP3    H227337   1.598   0.877  16.499  0.4143  0.3839 -0.3633
 1048TIP3   OH227338   2.265   0.158  16.296 -0.1169  0.0260  0.3284
 1048TIP3    H127339   2.263   0.094  16.367  1.4641 -0.2699  0.1277
 1048TIP3    H227340   2.337   0.216  16.317 -1.2487  1.5022  0.2705
 1049TIP3   OH227341   6.181   3.938  16.398  0.5772 -0.7338  0.4539
 1049TIP3    H127342   6.192   4.019  16.447 -0.3286  0.3349 -1.0086
 1049TIP3    H227343   6.227   3.954  16.316  0.8237 -1.9029  0.3546
 1050TIP3   OH227344   6.231   3.887  16.937  0.8810 -0.3559 -0.2355
 1050TIP3    H127345   6.165   3.956  16.935  0.0540 -1.1288 -0.1995
 1050TIP3    H227346   6.315   3.933  16.927  0.4979  0.8345  1.6758
 1051TIP3   OH227347   3.771   1.775  17.172 -0.4687 -0.1877 -0.5000
 1051TIP3    H127348   3.681   1.787  17.202 -0.9459 -2.0039 -1.0910
 1051TIP3    H227349   3.815   1.730  17.245  0.1437  1.1823  0.0121
 1052TIP3   OH227350   5.603   1.576  16.898 -0.6040 -0.2418 -0.2392
 1052TIP3    H127351   5.638   1.660  16.870  0.7167 -0.2673  1.1949
 1052TIP3    H227352   5.571   1.535  16.818 -0.3467  1.1883 -1.1034
 1053TIP3   OH227353   0.556   1.167  17.263 -0.4239  0.0585 -0.0028
 1053TIP3    H127354   0.549   1.075  17.290  0.3094  0.3093  1.0972
 1053TIP3    H227355   0.467   1.191  17.237 -0.6575 -0.9082 -0.1398
 1054TIP3   OH227356   7.370   0.633  16.270  0.6712  0.2141  0.1711
 1054TIP3    H127357   7.343   0.555  16.319  1.9752 -0.4706 -0.1460
 1054TIP3    H227358   7.294   0.690  16.271  0.1937 -0.4040  1.7558
 1055TIP3   OH227359   5.969   7.372  16.024 -0.3685 -0.3231 -0.1644
 1055TIP3    H127360   6.045   7.430  16.017 -0.5135 -0.1461 -0.3070
 1055TIP3    H227361   5.906   7.422  16.076 -0.2694 -0.5966  0.2215
 1056TIP3   OH227362   3.482   5.019  15.981  0.1909 -0.0041  0.0741
 1056TIP3    H127363   3.551   4.978  16.034 -1.0194 -0.6076  1.2892
 1056TIP3    H227364   3.505   4.999  15.891  0.8952 -1.3806  0.5283
 1057TIP3   OH227365   5.969   3.170  17.665  0.2752  0.3863  0.2955
 1057TIP3    H127366   5.890   3.116  17.656  1.1743 -0.8277 -0.5956
 1057TIP3    H227367   5.962   3.235  17.595  0.1269  0.2237  0.1596
 1058TIP3   OH227368   7.827   2.310  15.874  0.0212  0.1790 -0.1468
 1058TIP3    H127369   7.910   2.307  15.827  0.6610 -0.8347  1.0160
 1058TIP3    H227370   7.761   2.309  15.805  0.9414  2.2556 -1.1489
 1059TIP3   OH227371   0.255   3.360  16.565  0.2336  0.0211  0.0888
 1059TIP3    H127372   0.215   3.281  16.530  1.6786 -0.5084 -0.4473
 1059TIP3    H227373   0.206   3.380  16.645  0.3796 -1.9132  0.7016
 1060TIP3   OH227374   0.629   1.543  17.128  0.2778 -0.1416 -0.4851
 1060TIP3    H127375   0.718   1.512  17.109  0.6520  0.9844 -0.6883
 1060TIP3    H227376   0.591   1.475  17.183  1.0758 -0.9043 -0.8463
 1061TIP3   OH227377   5.597   1.738  16.271  0.1839  0.2346  0.3118
 1061TIP3    H127378   5.571   1.829  16.286  0.9996  0.2070  2.0377
 1061TIP3    H227379   5.516   1.695  16.243 -0.5081  1.2061  0.7695
 1062TIP3   OH227380   4.729   4.650  17.777  0.2549  0.0220  0.3264
 1062TIP3    H127381   4.738   4.556  17.788 -0.3002 -0.3545 -1.8328
 1062TIP3    H227382   4.808   4.687  17.816  1.6347 -1.5484 -0.8319
 1063TIP3   OH227383   7.212   4.130  15.716 -0.6641  0.2061 -0.0130
 1063TIP3    H127384   7.239   4.094  15.631 -0.5451 -1.3751  0.6629
 1063TIP3    H227385   7.292   4.130  15.768 -0.8888  0.4643  0.3301
 1064TIP3   OH227386   1.255   3.755  16.087  0.0545 -0.2191  0.0158
 1064TIP3    H127387   1.272   3.660  16.086 -1.5458 -0.5845 -3.3947
 1064TIP3    H227388   1.161   3.763  16.072  0.5215  1.8983 -2.3246
 1065TIP3   OH227389   7.370   6.325  17.191 -0.3998  0.6670 -0.0400
 1065TIP3    H127390   7.375   6.272  17.112 -2.7022  0.9729 -0.4648
 1065TIP3    H227391   7.278   6.319  17.218  0.3236  0.5703  2.6236
 1066TIP3   OH227392   5.400   6.530  16.659 -0.3668  0.1687 -0.1890
 1066TIP3    H127393   5.421   6.610  16.610  1.8242 -0.8360 -1.0228
 1066TIP3    H227394   5.455   6.534  16.737  0.4092 -0.9032 -0.6605
 1067TIP3   OH227395   5.470   3.499  16.421 -0.2150 -0.0035 -0.1544
 1067TIP3    H127396   5.489   3.497  16.327 -1.9636 -2.5252 -0.5539
 1067TIP3    H227397   5.545   3.456  16.461 -0.7788 -1.5916 -0.7443
 1068TIP3   OH227398   3.842   7.698  16.723  0.3663 -0.0796 -0.0151
 1068TIP3    H127399   3.770   7.745  16.681  0.8991 -0.9655 -2.0560
 1068TIP3    H227400   3.906   7.766  16.744  0.4997  0.3190 -1.5849
 1069TIP3   OH227401   3.804   6.694  17.047 -0.0019 -0.0346 -0.3245
 1069TIP3    H127402   3.776   6.780  17.078  1.5133  1.0050 -1.6854
 1069TIP3    H227403   3.808   6.702  16.952  2.1902 -0.9165 -0.3687
 1070TIP3   OH227404   0.156   5.724  16.113 -0.2490  0.2356  0.7206
 1070TIP3    H127405   0.175   5.679  16.031 -2.0688  0.1715  0.2934
 1070TIP3    H227406   0.235   5.712  16.165  0.5979 -0.5172 -0.6633
 1071TIP3   OH227407   3.651   2.117  16.756 -0.2356  0.0591 -0.3096
 1071TIP3    H127408   3.679   2.137  16.667 -0.9177  0.0977 -0.5232
 1071TIP3    H227409   3.709   2.047  16.785  1.7037  1.7612  0.1680
 1072TIP3   OH227410   8.230   0.706  16.169 -0.0150  0.6216  0.1888
 1072TIP3    H127411   8.312   0.756  16.166 -0.5768  1.4999 -1.1759
 1072TIP3    H227412   8.257   0.615  16.163  0.8263  0.9400 -1.2081
 1073TIP3   OH227413   8.417   8.335  17.604  0.9153 -0.3182  0.2769
 1073TIP3    H127414   8.401   8.259  17.548 -1.4094  0.0278  0.3837
 1073TIP3    H227415   8.417   8.410  17.545 -2.1403  0.1160  0.6686
 1074TIP3   OH227416   0.655   3.738  15.492  0.3510  0.2656  0.5123
 1074TIP3    H127417   0.566   3.755  15.524 -0.8639 -0.9677 -1.8992
 1074TIP3    H227418   0.681   3.819  15.449  1.7512  1.7181  3.7230
 1075TIP3   OH227419   3.522   2.726  16.082  0.0130  0.0506 -0.4301
 1075TIP3    H127420   3.459   2.790  16.049  1.2665  0.9572 -1.1750
 1075TIP3    H227421   3.588   2.720  16.013 -1.5723 -4.4699 -1.9446
 1076TIP3   OH227422   7.896   4.536  17.571 -0.4321 -0.0837  0.3817
 1076TIP3    H127423   7.928   4.596  17.504 -2.7784 -2.1078 -2.8541
 1076TIP3    H227424   7.859   4.592  17.639  1.6559  2.0685 -0.1325
 1077TIP3   OH227425   5.466   0.990  16.180 -0.1713 -0.5453  0.2394
 1077TIP3    H127426   5.516   1.071  16.166 -0.0797 -0.6538 -0.0574
 1077TIP3    H227427   5.476   0.941  16.099 -0.7856 -0.5552  0.1664
 1078TIP3   OH227428   1.557   3.329  15.843 -0.0917 -0.1007  0.6355
 1078TIP3    H127429   1.567   3.300  15.934  0.0852 -0.7772  0.4010
 1078TIP3    H227430   1.503   3.262  15.802  1.5882 -0.9393 -0.3143
 1079TIP3   OH227431   4.612   1.207  17.942  1.0126 -0.2891 -0.2135
 1079TIP3    H127432   4.572   1.151  18.008 -0.7247  1.3672  0.2107
 1079TIP3    H227433   4.687   1.157  17.910  0.2071 -2.3344  0.9555
 1080TIP3   OH227434   1.810   3.747  17.237  0.5541 -0.1971  0.1420
 1080TIP3    H127435   1.784   3.688  17.167  0.1858 -0.8634  0.8270
 1080TIP3    H227436   1.756   3.722  17.312  1.2311  0.2119  0.7922
 1081TIP3   OH227437   4.188   5.995  16.058  0.3495 -0.0555  0.1031
 1081TIP3    H127438   4.263   5.943  16.085 -0.6278 -0.4090  2.3771
 1081TIP3    H227439   4.208   6.084  16.089  0.8960  0.4196 -1.5223
 1082TIP3   OH227440   3.057   7.828  16.739  0.2431  0.4078 -0.5502
 1082TIP3    H127441   2.963   7.848  16.738  0.1585  0.0203 -0.3511
 1082TIP3    H227442   3.073   7.782  16.656  0.1743  0.0865 -0.3835
 1083TIP3   OH227443   1.792   3.605  15.505 -0.0842 -0.1744  0.2575
 1083TIP3    H127444   1.706   3.635  15.532 -0.7369  0.4664 -2.2191
 1083TIP3    H227445   1.821   3.671  15.441  0.7616 -2.0435 -1.4221
 1084TIP3   OH227446   0.250   1.704  15.877  0.1924  0.5425 -0.3610
 1084TIP3    H127447   0.266   1.787  15.921 -3.0885  0.8049  0.5999
 1084TIP3    H227448   0.237   1.727  15.785  0.9789  0.8427 -0.4015
 1085TIP3   OH227449   7.820   0.970  15.740  1.0394 -0.0723  0.4245
 1085TIP3    H127450   7.816   1.020  15.659 -1.3687  3.1490  2.2986
 1085TIP3    H227451   7.762   0.895  15.725  0.1129  0.8360 -0.6221
 1086TIP3   OH227452   1.272   7.680  16.955 -0.1304  0.7238  0.1506
 1086TIP3    H127453   1.196   7.738  16.948 -0.0830  1.0376  1.7958
 1086TIP3    H227454   1.336   7.715  16.894 -0.6287  1.5637  0.0994
 1087TIP3   OH227455   5.650   5.511  17.328  0.6805 -0.4989  0.1434
 1087TIP3    H127456   5.566   5.544  17.296  0.1616 -0.6899  1.2594
 1087TIP3    H227457   5.715   5.555  17.274 -0.1518 -1.2396 -1.5696
 1088TIP3   OH227458   4.283   1.757  16.337  0.0356 -0.0603  0.1527
 1088TIP3    H127459   4.324   1.777  16.253  0.3866  3.4589  1.0087
 1088TIP3    H227460   4.353   1.714  16.387  0.9874  1.0053 -0.2133
 1089TIP3   OH227461   3.881   8.081  16.664  0.1829 -0.1292 -0.4295
 1089TIP3    H127462   3.808   8.140  16.648  1.5749  1.5442 -0.9738
 1089TIP3    H227463   3.876   8.016  16.594 -0.0998  0.6631 -1.1554
 1090TIP3   OH227464   2.368   8.196  16.735 -0.0374 -0.3730 -0.0464
 1090TIP3    H127465   2.379   8.234  16.648  0.9462  1.3339  0.7701
 1090TIP3    H227466   2.368   8.101  16.720 -0.9028 -0.1121 -1.9845
 1091TIP3   OH227467   3.062   4.778  17.336  0.0471  0.1604  0.3000
 1091TIP3    H127468   3.102   4.836  17.272  1.4794 -0.5020  0.5569
 1091TIP3    H227469   2.969   4.776  17.312  0.4841  0.2125 -1.5194
 1092TIP3   OH227470   4.990   8.118  17.688  0.8015 -0.0973 -0.4500
 1092TIP3    H127471   4.927   8.173  17.642  0.3643  0.0354  0.2909
 1092TIP3    H227472   4.937   8.049  17.728  1.1816 -0.2658 -0.2277
 1093TIP3   OH227473   1.336   5.828  17.198  0.0729  0.4234  0.1461
 1093TIP3    H127474   1.407   5.884  17.169 -1.0714  1.1273 -1.4307
 1093TIP3    H227475   1.341   5.751  17.141  0.0640  0.1142  0.5622
 1094TIP3   OH227476   5.520   3.490  16.145  0.2997 -0.3620 -0.7846
 1094TIP3    H127477   5.534   3.573  16.099 -0.6208 -0.1617 -0.7158
 1094TIP3    H227478   5.459   3.441  16.090 -0.0134 -0.5427 -0.2849
 1095TIP3   OH227479   0.145   8.188  17.274 -0.3250  0.0675 -0.8931
 1095TIP3    H127480   0.125   8.097  17.295  0.6171 -0.3868 -1.8618
 1095TIP3    H227481   0.234   8.201  17.305 -0.8008  1.0035  0.1836
 1096TIP3   OH227482   4.786   4.590  17.500 -0.2006 -0.6229 -0.0476
 1096TIP3    H127483   4.861   4.639  17.535 -1.5111  2.5805 -1.3517
 1096TIP3    H227484   4.727   4.581  17.575  0.2106 -0.5432  0.2954
 1097TIP3   OH227485   5.758   2.762  16.750  0.1461  0.0974 -0.3379
 1097TIP3    H127486   5.837   2.751  16.803  0.3419 -0.3318 -0.7113
 1097TIP3    H227487   5.696   2.805  16.808  0.4641 -0.0835  0.1404
 1098TIP3   OH227488   7.189   7.625  17.198 -0.0771 -0.3962  0.2345
 1098TIP3    H127489   7.194   7.560  17.128 -1.8982 -2.7269  2.0954
 1098TIP3    H227490   7.258   7.600  17.259  0.6564  0.8188 -0.0700
 1099TIP3   OH227491   4.243   3.623  16.915 -0.2384 -0.3846 -0.5017
 1099TIP3    H127492   4.212   3.608  17.005 -0.9194  3.7225  0.1491
 1099TIP3    H227493   4.181   3.575  16.860 -2.6639  0.7309  1.1064
 1100TIP3   OH227494   8.433   2.997  17.738 -0.3892 -0.4306  0.1856
 1100TIP3    H127495   8.446   2.924  17.798 -0.7253 -0.1165  0.6476
 1100TIP3    H227496   8.340   3.016  17.744 -0.2036  0.4089  0.5059
 1101TIP3   OH227497   6.412   5.991  16.730  0.3544 -0.2890  0.4133
 1101TIP3    H127498   6.501   6.004  16.697  0.1408  2.3618  0.7121
 1101TIP3    H227499   6.358   5.981  16.651  0.8805 -2.0780  0.2340
 1102TIP3   OH227500   3.773   1.509  16.708  0.3203 -0.4399 -0.2778
 1102TIP3    H127501   3.762   1.424  16.750 -1.3115  0.1097  0.4935
 1102TIP3    H227502   3.867   1.526  16.712  0.5176 -1.6142  0.7058
 1103TIP3   OH227503   5.645   3.871  16.334 -0.5548  0.2407 -0.0249
 1103TIP3    H127504   5.634   3.887  16.427 -3.6617 -2.7273  0.3200
 1103TIP3    H227505   5.580   3.927  16.292 -1.5580 -0.8878 -0.0352
 1104TIP3   OH227506   0.195   6.062  15.675  0.1231 -0.0863  0.2498
 1104TIP3    H127507   0.269   6.007  15.651  0.0947 -0.2921  0.6260
 1104TIP3    H227508   0.188   6.054  15.770  1.7845  2.6396  0.7134
 1105TIP3   OH227509   1.263   7.176  16.847  0.1450  0.3200  0.4996
 1105TIP3    H127510   1.349   7.158  16.810 -1.2736 -1.2614 -2.4285
 1105TIP3    H227511   1.262   7.270  16.864  2.6586  0.2431  1.3489
 1106TIP3   OH227512   7.929   1.469  17.403  0.3310 -0.3123 -0.0768
 1106TIP3    H127513   7.990   1.543  17.398  0.5873 -0.5082  0.0923
 1106TIP3    H227514   7.982   1.393  17.381 -0.0257 -0.4034 -0.6403
 1107TIP3   OH227515   5.390   5.741  16.565  0.2409 -0.2357  0.0007
 1107TIP3    H127516   5.315   5.766  16.512  0.8401  1.2821 -0.1759
 1107TIP3    H227517   5.428   5.824  16.594  1.3667 -0.9864  0.7679
 1108TIP3   OH227518   0.618   0.641  16.908 -0.1832 -0.2000 -0.1166
 1108TIP3    H127519   0.638   0.632  16.814  2.8275 -0.3000  0.4182
 1108TIP3    H227520   0.700   0.616  16.952 -1.8725 -1.4092  2.6319
 1109TIP3   OH227521   4.341   5.696  17.543  0.1441  0.4310 -0.6457
 1109TIP3    H127522   4.251   5.716  17.570  0.0352 -0.4912 -0.2799
 1109TIP3    H227523   4.373   5.635  17.610  1.0084  0.6645 -0.8333
 1110TIP3   OH227524   3.037   1.559  17.433 -0.6042  0.3693 -0.2193
 1110TIP3    H127525   2.994   1.625  17.487  0.0823  1.5228 -1.0426
 1110TIP3    H227526   3.131   1.573  17.447 -0.4385 -1.2088  0.4845
 1111TIP3   OH227527   4.055   3.376  16.217  0.1582 -0.8565  0.6998
 1111TIP3    H127528   4.121   3.381  16.149  0.0120  0.5242  0.6338
 1111TIP3    H227529   4.081   3.443  16.281 -2.1771  1.0945 -0.2567
 1112TIP3   OH227530   2.861   5.319  17.297  0.0663  0.1217 -0.1888
 1112TIP3    H127531   2.844   5.330  17.391 -0.6872  1.1931 -0.4262
 1112TIP3    H227532   2.867   5.409  17.264 -1.3919 -0.1995 -1.4473
 1113TIP3   OH227533   5.606   7.130  16.452  0.0001  0.0206  0.5946
 1113TIP3    H127534   5.642   7.043  16.434 -0.6564 -0.1064 -0.1594
 1113TIP3    H227535   5.681   7.189  16.446  0.2775 -0.3749  0.1505
 1114TIP3   OH227536   5.106   1.413  17.663 -0.4110 -0.3184  0.1623
 1114TIP3    H127537   5.075   1.496  17.628  0.4078 -0.4723 -1.0184
 1114TIP3    H227538   5.031   1.354  17.656 -1.3605  0.5761  2.0960
 1115TIP3   OH227539   1.224   4.202  15.400  0.3103 -0.0089  0.0912
 1115TIP3    H127540   1.177   4.186  15.318  0.5734  1.0799 -0.2981
 1115TIP3    H227541   1.282   4.275  15.380  2.5912 -1.6329  0.3971
 1116TIP3   OH227542   5.594   7.125  16.753  0.5207  1.0290 -0.2362
 1116TIP3    H127543   5.635   7.043  16.779 -0.3290  0.1492 -1.5301
 1116TIP3    H227544   5.585   7.118  16.658 -0.1794  2.3303 -0.2876
 1117TIP3   OH227545   0.743   2.913  16.792 -0.5228 -0.2347 -0.1380
 1117TIP3    H127546   0.727   2.935  16.883 -0.9042 -0.8236 -0.0612
 1117TIP3    H227547   0.657   2.888  16.757 -0.3533 -0.1747 -0.6140
 1118TIP3   OH227548   4.749   4.790  16.574 -0.3399  0.4623  0.2325
 1118TIP3    H127549   4.778   4.847  16.503 -0.9288  0.1679 -0.2599
 1118TIP3    H227550   4.659   4.766  16.550  0.0486 -1.0468  0.1836
 1119TIP3   OH227551   5.637   8.286  17.665  0.2349  0.7878  0.7115
 1119TIP3    H127552   5.581   8.238  17.725  0.4329  0.5720  0.7257
 1119TIP3    H227553   5.675   8.219  17.608  1.3090  0.7892  1.3778
 1120TIP3   OH227554   3.647   0.521  16.358 -0.0168  0.7260 -0.1096
 1120TIP3    H127555   3.613   0.522  16.447  1.4582  2.3368  0.4967
 1120TIP3    H227556   3.640   0.429  16.330 -0.7902  0.2541  1.5196
 1121TIP3   OH227557   2.812   1.740  16.370 -0.1503  0.1893 -0.2727
 1121TIP3    H127558   2.752   1.744  16.295  0.0504 -0.0394 -0.4488
 1121TIP3    H227559   2.849   1.828  16.375  1.7910 -0.4345 -2.0845
 1122TIP3   OH227560   4.348   0.284  17.525 -0.0870 -0.0269  0.2949
 1122TIP3    H127561   4.320   0.375  17.523 -0.7134 -0.1920 -2.4989
 1122TIP3    H227562   4.281   0.239  17.577 -1.6486  0.6140 -1.0732
 1123TIP3   OH227563   3.866   6.379  17.103  0.2720  0.3579 -0.3854
 1123TIP3    H127564   3.958   6.376  17.130  0.1229  0.7388  0.1866
 1123TIP3    H227565   3.848   6.473  17.093 -0.1305  0.2978 -0.2157
 1124TIP3   OH227566   4.243   4.001  17.706  0.0875  0.2932 -0.4950
 1124TIP3    H127567   4.281   4.046  17.631 -0.4843 -0.3285 -1.1838
 1124TIP3    H227568   4.148   4.003  17.689 -0.1506  1.1891  0.8169
 1125TIP3   OH227569   1.696   2.718  16.968  0.2114 -0.8830  0.3671
 1125TIP3    H127570   1.689   2.728  16.873  0.9869 -2.3423  0.1344
 1125TIP3    H227571   1.678   2.805  17.002  1.1885 -0.0212 -1.1810
 1126TIP3   OH227572   8.339   6.037  15.599  0.3421 -0.0596 -0.3791
 1126TIP3    H127573   8.352   6.125  15.636  2.3483 -0.7910  0.8407
 1126TIP3    H227574   8.424   6.015  15.561 -0.7178 -0.7215 -2.4646
 1127TIP3   OH227575   5.290   7.913  18.159  0.1887  0.2354  0.1871
 1127TIP3    H127576   5.231   7.982  18.128  1.7621  1.9862  0.9194
 1127TIP3    H227577   5.370   7.926  18.108  0.3191 -1.5056 -0.1211
 1128TIP3   OH227578   6.430   4.869  16.965 -0.4202  0.8497 -0.0718
 1128TIP3    H127579   6.524   4.849  16.963 -0.4641  0.6665 -0.9491
 1128TIP3    H227580   6.391   4.803  16.908 -1.1774  0.4919  0.8367
 1129TIP3   OH227581   1.722   0.041  16.765  1.0182 -0.2203 -0.3864
 1129TIP3    H127582   1.701  -0.017  16.838  1.0577  0.3382  0.0740
 1129TIP3    H227583   1.787  -0.008  16.714  1.3675 -0.4141  0.2302
 1130TIP3   OH227584   6.915   6.589  17.029  0.3491 -0.2307 -0.1844
 1130TIP3    H127585   6.998   6.626  17.059  0.2105  0.4601 -0.6308
 1130TIP3    H227586   6.937   6.546  16.946 -0.0137  1.2283 -1.0533
 1131TIP3   OH227587   1.151   1.557  15.487 -0.2032 -0.6669 -0.4661
 1131TIP3    H127588   1.153   1.597  15.574 -0.8078  0.3944 -0.9229
 1131TIP3    H227589   1.092   1.483  15.496 -0.1001 -0.6890  0.0721
 1132TIP3   OH227590   3.891   2.858  16.101  0.7844 -0.0060 -0.1517
 1132TIP3    H127591   3.897   2.949  16.129 -3.5039  0.2949  0.4742
 1132TIP3    H227592   3.854   2.812  16.176  1.3369 -1.9550 -1.0113
 1133TIP3   OH227593   1.620   4.147  16.797 -0.3561 -0.1546 -0.0152
 1133TIP3    H127594   1.595   4.065  16.839 -2.5641  0.3350 -0.2734
 1133TIP3    H227595   1.588   4.139  16.707  2.7560 -0.4832 -1.2128
 1134TIP3   OH227596   1.316   0.197  16.375  0.0889  0.2403  0.4882
 1134TIP3    H127597   1.321   0.252  16.297 -1.0599  0.2186  0.3756
 1134TIP3    H227598   1.364   0.118  16.352 -0.5847  0.0610 -0.3507
 1135TIP3   OH227599   1.724   2.708  16.013  0.0594 -0.1801 -0.2997
 1135TIP3    H127600   1.671   2.768  16.065  0.5372 -0.9504  1.1120
 1135TIP3    H227601   1.809   2.752  16.004  0.1720 -0.3156  0.0974
 1136TIP3   OH227602   5.208   0.809  18.108 -0.6208 -0.7636 -0.1926
 1136TIP3    H127603   5.234   0.732  18.057 -0.6340 -0.6796 -0.3291
 1136TIP3    H227604   5.288   0.861  18.115 -0.7756 -0.4399 -0.7258
 1137TIP3   OH227605   7.254   3.239  17.182 -0.2827  0.0586 -0.1761
 1137TIP3    H127606   7.262   3.145  17.166  1.4272 -0.1734  1.5591
 1137TIP3    H227607   7.243   3.246  17.277 -0.9466  1.6122 -0.3315
 1138TIP3   OH227608   3.973   6.320  16.405 -0.3744  0.5214 -1.3874
 1138TIP3    H127609   4.036   6.247  16.401 -2.4591 -1.3728 -2.0013
 1138TIP3    H227610   3.995   6.367  16.485  1.5091 -0.3456 -1.3453
 1139TIP3   OH227611   6.962   4.912  17.679  0.5059 -0.6000 -0.0677
 1139TIP3    H127612   6.909   4.972  17.627  0.4287  0.2475  0.9330
 1139TIP3    H227613   7.004   4.855  17.616  0.6371  0.5752 -1.0768
 1140TIP3   OH227614   1.224   4.994  15.200 -0.4309 -0.4410 -0.0740
 1140TIP3    H127615   1.233   4.960  15.289 -0.5815  0.5532  0.3383
 1140TIP3    H227616   1.154   5.059  15.207 -1.4316 -1.3490 -1.2263
 1141TIP3   OH227617   2.632   1.866  17.480 -0.1001 -0.0709  0.0698
 1141TIP3    H127618   2.568   1.919  17.433 -0.0386 -0.8472 -0.9244
 1141TIP3    H227619   2.632   1.782  17.434  0.6071 -0.5625  0.9319
 1142TIP3   OH227620   4.749   4.544  17.068 -0.4053  0.1983  0.2624
 1142TIP3    H127621   4.714   4.598  16.998 -0.2206  0.0333  0.0406
 1142TIP3    H227622   4.795   4.472  17.023 -0.9778 -0.3548  0.5479
 1143TIP3   OH227623   1.015   6.152  16.786 -0.2120 -0.3025  0.0155
 1143TIP3    H127624   0.930   6.136  16.827 -1.1074 -0.2017 -1.7017
 1143TIP3    H227625   0.995   6.210  16.713  1.3356 -0.3314 -0.4492
 1144TIP3   OH227626   1.687   7.113  16.710 -0.1383  0.0643  0.0887
 1144TIP3    H127627   1.713   7.035  16.759  1.9755  1.2814  0.9943
 1144TIP3    H227628   1.630   7.162  16.769  0.0842  0.1368  0.2420
 1145TIP3   OH227629   0.547   3.439  16.577 -0.4019  0.5005 -0.2695
 1145TIP3    H127630   0.459   3.402  16.572 -0.2953  0.1227  0.4993
 1145TIP3    H227631   0.568   3.439  16.670  0.3721  0.6910 -0.4355
 1146TIP3   OH227632   3.366   3.365  15.782  0.8590  0.0021 -0.0839
 1146TIP3    H127633   3.377   3.419  15.704  0.3149 -0.1041 -0.2374
 1146TIP3    H227634   3.365   3.275  15.749  0.0215 -0.0139 -0.0275
 1147TIP3   OH227635   0.289   4.335  16.074 -0.1593 -0.5394 -0.3526
 1147TIP3    H127636   0.238   4.339  16.155  0.4271  0.4832 -0.0113
 1147TIP3    H227637   0.341   4.256  16.082  0.8659  0.2212  0.8984
 1148TIP3   OH227638   2.143   1.153  15.905  0.3220 -0.4797  0.7860
 1148TIP3    H127639   2.185   1.137  15.820 -0.0475  0.0817  0.4880
 1148TIP3    H227640   2.216   1.161  15.967  0.6288 -0.2420  0.4019
 1149TIP3   OH227641   8.405   0.980  17.288  0.6248  0.1081  0.3009
 1149TIP3    H127642   8.351   0.955  17.363  0.8353  0.2008  0.4833
 1149TIP3    H227643   8.348   1.036  17.235  0.8558  1.0086  0.9891
 1150TIP3   OH227644   4.864   4.326  16.956  0.1485 -0.2980 -0.2806
 1150TIP3    H127645   4.798   4.257  16.947 -1.0805  1.0509 -2.0819
 1150TIP3    H227646   4.944   4.286  16.921 -0.0417 -1.4552  0.5453
 1151TIP3   OH227647   1.007   1.317  17.144 -0.3966  0.3612 -0.6144
 1151TIP3    H127648   1.013   1.363  17.060  0.0675 -0.5392 -1.0891
 1151TIP3    H227649   0.932   1.259  17.134 -0.4985  0.4370 -0.3043
 1152TIP3   OH227650   3.772   7.799  16.026 -0.0016 -0.1320 -0.8160
 1152TIP3    H127651   3.775   7.837  15.938 -1.2938  0.3213 -0.6872
 1152TIP3    H227652   3.687   7.754  16.030  0.0504 -0.1723  0.1900
 1153TIP3   OH227653   4.983   6.641  17.604  0.0205  0.1456  0.4082
 1153TIP3    H127654   4.908   6.630  17.544  0.0826  1.1192  0.1356
 1153TIP3    H227655   4.949   6.616  17.690 -0.3391 -0.3674  0.1206
 1154TIP3   OH227656   2.964   5.524  17.164 -0.2067 -0.0973  0.1680
 1154TIP3    H127657   3.048   5.481  17.152  0.4751  0.9082  1.2027
 1154TIP3    H227658   2.971   5.605  17.113 -1.2285 -0.8321 -1.2107
 1155TIP3   OH227659   4.482   1.565  17.363  0.2032 -0.7606 -0.0861
 1155TIP3    H127660   4.413   1.500  17.376 -0.2198 -0.2926  0.0376
 1155TIP3    H227661   4.512   1.586  17.452  0.1954 -0.6312 -0.1148
 1156TIP3   OH227662   2.272   5.073  16.953 -0.2219  0.7651 -0.4163
 1156TIP3    H127663   2.266   4.977  16.959 -0.6372  0.7937 -0.3164
 1156TIP3    H227664   2.357   5.094  16.991 -1.4171  0.6802  2.6354
 1157TIP3   OH227665   2.765   6.357  16.992  0.0465  0.2429 -0.3589
 1157TIP3    H127666   2.747   6.281  17.047  1.7607 -1.0589 -1.4979
 1157TIP3    H227667   2.773   6.430  17.053  0.4468 -0.8773  0.9785
 1158TIP3   OH227668   3.085   2.354  16.892  0.3317  0.3537  0.0566
 1158TIP3    H127669   3.003   2.344  16.844  0.1033  1.2290  0.2363
 1158TIP3    H227670   3.143   2.287  16.856 -0.5090 -0.3833  0.0434
 1159TIP3   OH227671   4.573   5.604  17.766 -0.0710  0.5556  0.2564
 1159TIP3    H127672   4.527   5.521  17.757 -0.4719  0.8841 -0.9466
 1159TIP3    H227673   4.513   5.659  17.817  0.5832 -0.1492  1.8485
 1160TIP3   OH227674   2.083   5.209  17.222 -0.6546  0.6323  0.5351
 1160TIP3    H127675   2.146   5.279  17.207 -0.7620  0.2324 -2.3424
 1160TIP3    H227676   2.137   5.130  17.231 -0.6555  0.6668  0.8639
 1161TIP3   OH227677   1.743   4.821  17.474  0.0206  0.3289 -0.4560
 1161TIP3    H127678   1.746   4.846  17.382 -2.8334 -1.3347 -1.1296
 1161TIP3    H227679   1.689   4.887  17.516 -0.8805 -0.3177 -0.5693
 1162TIP3   OH227680   5.875   6.825  17.182 -0.8239 -0.1790  0.2347
 1162TIP3    H127681   5.954   6.772  17.189 -0.5749  0.2236  0.5399
 1162TIP3    H227682   5.895   6.904  17.233 -0.9399  0.5037 -0.7434
 1163TIP3   OH227683   5.730   6.369  16.630  0.3339 -0.7924 -0.0549
 1163TIP3    H127684   5.672   6.390  16.557 -0.5744 -2.4127  0.1398
 1163TIP3    H227685   5.810   6.337  16.588  0.4082 -0.2621 -0.3275
 1164TIP3   OH227686   1.948   0.560  17.455 -0.4965 -0.2718 -0.1547
 1164TIP3    H127687   1.986   0.533  17.371 -2.3241 -2.1305 -0.4928
 1164TIP3    H227688   1.963   0.485  17.513 -1.6333 -0.1429  0.3296
 1165TIP3   OH227689   8.230   1.773  16.798  0.5422 -0.0070 -0.1783
 1165TIP3    H127690   8.188   1.859  16.796  1.3591  0.4096 -2.5524
 1165TIP3    H227691   8.309   1.787  16.850  0.6959  0.6939 -0.5849
 1166TIP3   OH227692   0.782   2.411  16.210  0.0404 -0.0477  0.1983
 1166TIP3    H127693   0.777   2.320  16.237  1.6732 -0.3742 -0.4978
 1166TIP3    H227694   0.833   2.454  16.279  0.4990  0.0256 -0.1821
 1167TIP3   OH227695   6.404   8.415  16.948  0.1379 -0.0525  0.7356
 1167TIP3    H127696   6.479   8.382  16.898  0.4260  1.1256  0.3476
 1167TIP3    H227697   6.328   8.376  16.905  0.1089  3.2004 -2.7586
 1168TIP3   OH227698   0.531   2.982  17.424 -0.0738 -0.3566 -0.1681
 1168TIP3    H127699   0.474   3.002  17.498  0.6980 -2.0371  0.9162
 1168TIP3    H227700   0.616   3.016  17.449 -0.2035  0.7689 -1.1361
 1169TIP3   OH227701   5.274   5.173  16.734 -0.2740  0.3018 -0.4318
 1169TIP3    H127702   5.180   5.169  16.749  0.0087  1.2452  2.0001
 1169TIP3    H227703   5.311   5.116  16.801  0.9129 -0.0989 -1.3890
 1170TIP3   OH227704   5.806   0.224  17.570 -0.1271  0.3054 -0.6585
 1170TIP3    H127705   5.840   0.270  17.647  0.1359 -0.5657 -0.2316
 1170TIP3    H227706   5.885   0.197  17.522 -0.1286 -1.9157  0.4478
 1171TIP3   OH227707   2.206   4.363  16.433  0.1930 -0.3141  0.3511
 1171TIP3    H127708   2.164   4.323  16.510  0.7023 -1.0999  0.2284
 1171TIP3    H227709   2.139   4.422  16.398 -0.0068  0.1585  1.4665
 1172TIP3   OH227710   3.206   2.603  16.513  0.1751  0.8423  0.1845
 1172TIP3    H127711   3.212   2.667  16.442  0.8186  1.2310  0.5820
 1172TIP3    H227712   3.142   2.640  16.573 -0.7433  0.2737 -0.4248
 1173TIP3   OH227713   0.536   5.992  17.068 -0.0490 -0.5016  0.0703
 1173TIP3    H127714   0.470   5.978  17.135 -1.0438  2.3749 -0.1539
 1173TIP3    H227715   0.580   6.073  17.094  0.2954  0.0792 -2.1210
 1174TIP3   OH227716   5.681   2.631  16.443  0.2323 -0.4036 -0.1246
 1174TIP3    H127717   5.688   2.664  16.353 -1.7515 -0.3059 -0.2784
 1174TIP3    H227718   5.711   2.704  16.497  0.1343  0.0351 -0.6475
 1175TIP3   OH227719   5.275   6.906  17.254  0.3158  0.1661  0.2274
 1175TIP3    H127720   5.330   6.951  17.318  1.1592 -2.1840  1.2745
 1175TIP3    H227721   5.237   6.833  17.302 -2.4043  0.7008 -0.9353
 1176TIP3   OH227722   3.801   7.515  15.672  0.0896  0.2736 -0.8141
 1176TIP3    H127723   3.791   7.442  15.610 -0.7336 -1.0908  0.8311
 1176TIP3    H227724   3.891   7.506  15.704 -1.1203 -2.6902  2.3708
 1177TIP3   OH227725   1.577   4.583  16.741 -0.1383  0.1429  0.4489
 1177TIP3    H127726   1.669   4.573  16.716  0.1687 -0.2933  1.6890
 1177TIP3    H227727   1.534   4.618  16.663  1.1731  0.8314  0.0138
 1178TIP3   OH227728   6.405   1.978  17.795 -0.5658  0.0117  0.1364
 1178TIP3    H127729   6.404   1.963  17.889 -2.3055  0.4405  0.2080
 1178TIP3    H227730   6.463   1.910  17.760  0.5843  0.2157  1.5520
 1179TIP3   OH227731   1.193   8.123  17.326 -0.1474  0.0439 -0.1986
 1179TIP3    H127732   1.255   8.182  17.369 -0.8422  1.2399 -0.7669
 1179TIP3    H227733   1.218   8.126  17.234  0.4963 -1.4467 -0.0960
 1180TIP3   OH227734   2.969   1.968  16.702 -0.0334  0.0410 -0.3335
 1180TIP3    H127735   3.014   1.967  16.618 -0.2761 -1.4692 -0.4739
 1180TIP3    H227736   3.038   1.971  16.767  0.3701 -2.7151 -0.5318
 1181TIP3   OH227737   1.208   0.077  16.003  0.9123 -0.7069  0.1628
 1181TIP3    H127738   1.214  -0.018  15.997  1.5732 -0.6241 -0.6565
 1181TIP3    H227739   1.275   0.110  15.943  0.6702  0.2785  0.4006
 1182TIP3   OH227740   1.460   5.848  17.738  1.0236 -0.0207  0.5252
 1182TIP3    H127741   1.407   5.898  17.676  1.0459  1.5628  1.7446
 1182TIP3    H227742   1.501   5.780  17.685  0.5149  0.8738 -1.0691
 1183TIP3   OH227743   5.934   0.395  17.744  0.1750 -0.3108 -0.3837
 1183TIP3    H127744   5.900   0.469  17.795 -2.1006 -1.1671 -0.5351
 1183TIP3    H227745   5.993   0.349  17.804 -0.0160  0.4473  0.4042
 1184TIP3   OH227746   2.276   5.495  16.508  0.2733 -0.2102 -0.4159
 1184TIP3    H127747   2.199   5.545  16.482  1.2829  1.1359 -0.9205
 1184TIP3    H227748   2.328   5.487  16.428  0.3601 -1.7075 -0.2428
 1185TIP3   OH227749   8.344   0.349  17.004  0.2802 -0.0432 -0.0100
 1185TIP3    H127750   8.315   0.327  17.093  1.7080  1.4481  0.8800
 1185TIP3    H227751   8.438   0.336  17.005  0.2667 -0.4553 -1.4812
 1186TIP3   OH227752   5.459   1.526  16.461 -0.6202  0.6637 -0.4575
 1186TIP3    H127753   5.527   1.586  16.431 -1.1813  1.6446  0.1717
 1186TIP3    H227754   5.496   1.487  16.541 -1.2687  2.1714  0.6236
 1187TIP3   OH227755   3.680   4.631  15.573 -0.3354 -0.0822 -0.5020
 1187TIP3    H127756   3.599   4.678  15.591 -0.3354  0.5360 -1.9921
 1187TIP3    H227757   3.660   4.540  15.595 -0.8119  0.3502  0.9609
 1188TIP3   OH227758   7.010   3.241  16.716  0.0381  0.2215  0.3190
 1188TIP3    H127759   6.984   3.152  16.737 -1.5147  0.7584  0.7601
 1188TIP3    H227760   7.096   3.252  16.757  0.4679 -1.2110 -0.1576
 1189TIP3   OH227761   0.286   6.405  17.319  0.1964  0.3206 -0.0834
 1189TIP3    H127762   0.224   6.394  17.391  1.5247 -2.5979  0.7509
 1189TIP3    H227763   0.232   6.400  17.240 -0.8324 -0.4859  0.6438
 1190TIP3   OH227764   0.545   5.415  17.192 -0.5025 -0.5327 -1.0185
 1190TIP3    H127765   0.484   5.376  17.254  2.6584 -2.0063  1.5144
 1190TIP3    H227766   0.553   5.506  17.220  0.8488 -1.1692  0.8617
 1191TIP3   OH227767   5.763   5.114  17.080  0.1609 -0.0383 -0.3631
 1191TIP3    H127768   5.837   5.084  17.029  0.0464  0.0035 -0.5533
 1191TIP3    H227769   5.741   5.200  17.044  0.6987  0.4338  0.3940
 1192TIP3   OH227770   7.338   7.207  16.160  0.0852 -0.0672 -0.3637
 1192TIP3    H127771   7.384   7.270  16.105  1.7507  0.3255  1.3771
 1192TIP3    H227772   7.295   7.148  16.098  0.0878  1.6068 -2.0474
 1193TIP3   OH227773   3.837   3.275  15.982 -0.3626  0.8885 -0.5307
 1193TIP3    H127774   3.798   3.204  15.930  1.3614  0.4541 -1.2891
 1193TIP3    H227775   3.823   3.353  15.929 -0.4205  0.7811 -0.6769
 1194TIP3   OH227776   6.754   3.683  16.803  0.4005  0.1300  0.2507
 1194TIP3    H127777   6.824   3.642  16.753  0.4839 -0.6690  0.9866
 1194TIP3    H227778   6.681   3.689  16.742  0.3757 -1.1853  0.1082
 1195TIP3   OH227779   2.642   7.566  17.041  0.0704 -0.1075  0.1630
 1195TIP3    H127780   2.643   7.572  17.136  0.0929  1.3105  0.0979
 1195TIP3    H227781   2.699   7.492  17.020 -1.2158 -1.4794  1.2997
 1196TIP3   OH227782   8.274   0.988  16.787 -0.9310  0.2632  0.1484
 1196TIP3    H127783   8.234   0.923  16.729 -0.7648 -1.5483  1.9649
 1196TIP3    H227784   8.258   0.954  16.875  2.0006  1.0009  1.0594
 1197TIP3   OH227785   0.276   2.593  16.595  0.7739 -0.1902  0.2671
 1197TIP3    H127786   0.282   2.649  16.519 -0.2700  0.0586  0.3565
 1197TIP3    H227787   0.334   2.519  16.576  1.2021  0.3084 -0.3694
 1198TIP3   OH227788   3.554   6.467  17.150 -0.3343 -0.1384 -0.7206
 1198TIP3    H127789   3.591   6.383  17.124 -0.0379 -0.1584 -0.2499
 1198TIP3    H227790   3.585   6.529  17.084 -1.1694 -0.5241 -1.4987
 1199TIP3   OH227791   2.512   7.311  16.820 -0.1747 -0.0792 -0.3337
 1199TIP3    H127792   2.591   7.319  16.873 -0.3183 -1.7389  0.1732
 1199TIP3    H227793   2.454   7.255  16.872 -1.3304  0.3711 -1.1032
 1200TIP3   OH227794   7.132   7.058  17.573  0.2846  0.4074 -0.0268
 1200TIP3    H127795   7.106   7.126  17.510  0.6981 -1.2732 -2.1469
 1200TIP3    H227796   7.220   7.084  17.601 -0.1629  1.5238  0.3930
 1201TIP3   OH227797   7.728   5.686  17.686  0.3271  0.5574 -0.5238
 1201TIP3    H127798   7.707   5.771  17.724 -0.0767 -0.2952  1.2618
 1201TIP3    H227799   7.807   5.658  17.732 -1.9433 -1.9456  2.2028
 1202TIP3   OH227800   3.357   2.722  17.720 -0.3565  0.2535  0.2527
 1202TIP3    H127801   3.430   2.740  17.780  2.0330  0.6824 -2.5820
 1202TIP3    H227802   3.335   2.630  17.735  2.0455 -0.4264 -0.0534
 1203TIP3   OH227803   5.084   0.132  16.985 -0.3940 -0.5624 -0.3929
 1203TIP3    H127804   5.036   0.097  16.909 -0.1994 -0.8401 -0.3896
 1203TIP3    H227805   5.134   0.058  17.018 -1.1549 -0.6766  0.5534
 1204TIP3   OH227806   1.183   6.246  17.453 -0.2202 -0.0722 -0.2681
 1204TIP3    H127807   1.253   6.302  17.420 -1.7040  0.5575 -2.6542
 1204TIP3    H227808   1.212   6.157  17.432  1.1823 -0.0905  1.5706
 1205TIP3   OH227809   8.362   0.070  16.023  0.1012  0.3890  0.2569
 1205TIP3    H127810   8.424   0.082  16.096 -0.8554 -0.0372  1.1660
 1205TIP3    H227811   8.364  -0.024  16.005 -0.1391  0.4033  0.1615
 1206TIP3   OH227812   6.006   8.104  16.434  0.0999 -0.4509 -0.1148
 1206TIP3    H127813   5.948   8.166  16.478 -0.9690 -1.3543 -0.1923
 1206TIP3    H227814   6.064   8.158  16.382 -1.0963  0.4872 -0.5207
 1207TIP3   OH227815   7.078   1.045  16.118  0.3775 -0.4177 -0.1738
 1207TIP3    H127816   7.032   1.128  16.131 -1.2684 -1.4067  0.6192
 1207TIP3    H227817   7.055   1.018  16.029 -0.0885 -0.5905 -0.0079
 1208TIP3   OH227818   7.594   7.867  17.708 -0.2086 -0.3594 -0.2502
 1208TIP3    H127819   7.525   7.918  17.750  0.4331  0.7570 -0.5297
 1208TIP3    H227820   7.667   7.868  17.770 -0.5593 -1.9023  0.2406
 1209TIP3   OH227821   3.778   1.384  17.212  0.5377  0.7478  0.0812
 1209TIP3    H127822   3.845   1.449  17.233  0.9110  0.2169  0.5611
 1209TIP3    H227823   3.712   1.395  17.280  0.7893  0.3696  0.3918
 1210TIP3   OH227824   4.016   3.841  16.094  0.1833  0.4476  0.1641
 1210TIP3    H127825   3.986   3.783  16.024  0.7739 -0.3414  0.5500
 1210TIP3    H227826   3.961   3.820  16.169 -0.4527  1.2969 -0.0385
 1211TIP3   OH227827   4.601   2.047  16.585 -0.4191 -0.1147  0.1009
 1211TIP3    H127828   4.512   2.013  16.584  0.1825 -1.8303  0.7969
 1211TIP3    H227829   4.597   2.123  16.644 -1.2862 -0.6188  0.7206
 1212TIP3   OH227830   0.713   6.595  17.869 -0.8884 -0.3038 -0.0383
 1212TIP3    H127831   0.733   6.686  17.890  0.4381 -0.3768 -0.8879
 1212TIP3    H227832   0.620   6.596  17.847 -0.4914  1.2423 -1.9378
 1213TIP3   OH227833   2.537   7.106  17.044  0.0450  0.2225  0.2680
 1213TIP3    H127834   2.475   7.132  17.112  0.1097  0.7316  0.1396
 1213TIP3    H227835   2.593   7.041  17.086 -0.0218  0.4112  0.6512
 1214TIP3   OH227836   0.087   6.891  17.515  0.0894 -0.3236 -0.5583
 1214TIP3    H127837   0.177   6.922  17.504  0.0047  0.6953  1.1420
 1214TIP3    H227838   0.045   6.910  17.432  0.8179  1.5463 -0.5682
 1215TIP3   OH227839   3.427   7.180  17.473 -0.2187 -0.1131 -0.0769
 1215TIP3    H127840   3.442   7.274  17.475 -0.0115 -0.1586  0.6713
 1215TIP3    H227841   3.380   7.165  17.391 -0.4342  0.6647 -0.1025
 1216TIP3   OH227842   1.151   4.629  15.493 -0.0831 -0.1707  0.4816
 1216TIP3    H127843   1.206   4.704  15.471  1.6614 -0.3931  3.5638
 1216TIP3    H227844   1.211   4.554  15.490 -1.5253 -1.3511 -1.3466
 1217TIP3   OH227845   7.093   1.377  17.243 -0.0273  0.2083  0.0878
 1217TIP3    H127846   7.045   1.389  17.325  1.0167  1.6091  0.5345
 1217TIP3    H227847   7.155   1.450  17.240  0.3551 -0.1311 -1.6807
 1218TIP3   OH227848   3.866   5.031  15.971 -0.3068 -0.4213 -0.3499
 1218TIP3    H127849   3.905   5.095  15.910 -0.0149 -0.5620 -0.3122
 1218TIP3    H227850   3.809   4.978  15.916 -0.3906 -0.2591 -0.4203
 1219TIP3   OH227851   6.222   0.066  16.540  0.0422  0.5095  0.0111
 1219TIP3    H127852   6.234   0.105  16.453 -0.3744 -2.0601 -1.3050
 1219TIP3    H227853   6.276  -0.014  16.538 -0.6284 -0.0343  1.8147
 1220TIP3   OH227854   7.181   3.524  16.956 -0.4320 -0.0893 -0.7525
 1220TIP3    H127855   7.275   3.534  16.973 -0.4382 -0.3615 -0.5443
 1220TIP3    H227856   7.167   3.565  16.871 -0.3288  0.9729 -0.2726
 1221TIP3   OH227857   7.448   1.283  17.285 -0.1365  0.1478  0.1692
 1221TIP3    H127858   7.498   1.349  17.333 -1.0070  1.4552 -0.6428
 1221TIP3    H227859   7.381   1.254  17.347  0.4970 -0.2988  0.6631
 1222TIP3   OH227860   5.486   2.976  15.679 -0.3937 -0.0470  0.5098
 1222TIP3    H127861   5.438   3.000  15.600  0.2510  0.0790  0.1543
 1222TIP3    H227862   5.458   3.039  15.745  0.8731  1.3862 -0.2631
 1223TIP3   OH227863   5.334   1.717  17.314 -0.3309 -0.1681  0.5057
 1223TIP3    H127864   5.358   1.674  17.232 -2.5416 -1.8245  0.6374
 1223TIP3    H227865   5.294   1.800  17.286  0.2147 -0.0520  0.0294
 1224TIP3   OH227866   3.734   3.063  15.834 -0.6932  0.1971 -0.2023
 1224TIP3    H127867   3.730   2.977  15.793 -1.0728  0.4446 -0.6996
 1224TIP3    H227868   3.703   3.123  15.766  0.7302  0.8750 -0.2962
 1225TIP3   OH227869   1.854   2.235  17.063 -0.1334  0.0002  0.0893
 1225TIP3    H127870   1.760   2.247  17.054 -0.3541 -0.5825  1.3555
 1225TIP3    H227871   1.884   2.313  17.109  0.2870  0.9355 -1.6854
 1226TIP3   OH227872   6.850   7.812  17.271  0.5211  0.6774  0.2094
 1226TIP3    H127873   6.852   7.792  17.365  1.0604 -1.1532 -0.1489
 1226TIP3    H227874   6.874   7.729  17.229  2.7724  2.0678 -1.4697
 1227TIP3   OH227875   3.467   0.034  17.444  0.0095  0.0523 -0.5939
 1227TIP3    H127876   3.451   0.124  17.416 -0.4733 -0.7952 -3.2782
 1227TIP3    H227877   3.562   0.026  17.446  0.0508  0.3754 -1.2147
 1228TIP3   OH227878   5.872   1.715  17.221 -0.6244 -0.5165  0.8466
 1228TIP3    H127879   5.956   1.755  17.244  0.4929 -3.3182  2.1646
 1228TIP3    H227880   5.881   1.691  17.129 -0.1456 -0.4621  0.8784
 1229TIP3   OH227881   2.132   4.757  16.625  0.0152 -0.0947 -0.2798
 1229TIP3    H127882   2.175   4.814  16.562  0.4081  0.5449  0.5476
 1229TIP3    H227883   2.071   4.705  16.573  0.4362  0.3150 -1.1966
 1230TIP3   OH227884   7.351   3.306  15.524  0.4751 -0.3479  0.1192
 1230TIP3    H127885   7.261   3.286  15.499  0.7012  0.8893 -1.9038
 1230TIP3    H227886   7.344   3.386  15.576  0.4321  0.0476 -0.4859
 1231TIP3   OH227887   0.206   4.655  15.558 -0.3731  0.5709 -0.4740
 1231TIP3    H127888   0.300   4.644  15.542 -0.7500  0.1497 -2.7890
 1231TIP3    H227889   0.168   4.570  15.535 -1.2218  0.2385  1.8877
 1232TIP3   OH227890   4.139   5.943  17.745  0.7800  0.6576 -0.3117
 1232TIP3    H127891   4.079   5.904  17.682  0.7957  1.8510 -1.1029
 1232TIP3    H227892   4.094   6.022  17.775  1.3795  0.8454  0.1118
 1233TIP3   OH227893   0.247   2.523  15.671 -0.4813  0.1503 -0.4535
 1233TIP3    H127894   0.299   2.503  15.593  1.8739  0.8687  0.8525
 1233TIP3    H227895   0.289   2.473  15.741 -1.2195  1.2038  0.7814
 1234TIP3   OH227896   7.978   1.815  17.873 -0.3450  0.2518 -0.4432
 1234TIP3    H127897   7.940   1.742  17.922 -1.7282  0.5866 -0.9763
 1234TIP3    H227898   8.047   1.775  17.820 -0.3488 -0.4816  0.0969
 1235TIP3   OH227899   8.330   5.927  17.665  0.3853 -0.0727 -0.2598
 1235TIP3    H127900   8.414   5.923  17.620 -0.2186  0.9693 -1.5472
 1235TIP3    H227901   8.284   5.849  17.637  0.6039 -0.2184 -0.2172
 1236TIP3   OH227902   1.520   2.971  17.512  1.1052  0.0983  0.1507
 1236TIP3    H127903   1.466   2.992  17.435  1.4959  2.9650  0.5744
 1236TIP3    H227904   1.595   2.923  17.476  1.1936  1.2307 -1.2633
 1237TIP3   OH227905   7.153   1.212  16.354 -0.3310 -0.9739 -0.1406
 1237TIP3    H127906   7.108   1.131  16.379 -1.2249 -0.5477 -0.2985
 1237TIP3    H227907   7.230   1.183  16.305 -1.4936 -1.7234 -1.6149
 1238TIP3   OH227908   5.280   0.012  17.125 -0.4138 -0.3347 -0.0654
 1238TIP3    H127909   5.283   0.042  17.216  1.5442 -1.4460  0.3025
 1238TIP3    H227910   5.365   0.039  17.088 -1.2205  0.2126 -1.6319
 1239TIP3   OH227911   4.644   6.754  16.575 -0.3918  0.3298 -0.3129
 1239TIP3    H127912   4.723   6.773  16.625 -0.6159 -1.0742  0.6299
 1239TIP3    H227913   4.588   6.830  16.590  0.4722  0.9931 -0.3725
 1240TIP3   OH227914   7.815   3.755  16.325  0.4281 -0.3494 -0.2383
 1240TIP3    H127915   7.901   3.771  16.362  0.6102  0.3652 -0.9313
 1240TIP3    H227916   7.805   3.660  16.325  0.2965 -0.3906  1.8789
 1241TIP3   OH227917   1.803   5.413  16.995  0.2134  0.6830 -0.2316
 1241TIP3    H127918   1.881   5.434  16.943  1.6630 -1.4014  0.9352
 1241TIP3    H227919   1.754   5.352  16.940  1.7671 -1.5577  0.7198
 1242TIP3   OH227920   0.120   0.341  16.836  0.2211 -0.6557 -0.2310
 1242TIP3    H127921   0.088   0.431  16.827 -0.1221 -0.9129 -1.9988
 1242TIP3    H227922   0.198   0.349  16.890  0.6274  0.8212 -0.9802
 1243TIP3   OH227923   0.711   2.793  16.090  0.0324 -0.5441  0.2512
 1243TIP3    H127924   0.679   2.714  16.133 -0.2352  0.3181  1.6766
 1243TIP3    H227925   0.646   2.860  16.109  1.2094  0.5107  0.7338
 1244TIP3   OH227926   4.159   8.142  15.673 -0.1515  0.0937 -0.0840
 1244TIP3    H127927   4.241   8.092  15.667 -0.1696  0.1137 -0.5895
 1244TIP3    H227928   4.176   8.209  15.739 -0.1745 -0.6600  0.7023
 1245TIP3   OH227929   7.421   2.732  16.479 -0.0796 -0.6956  0.6241
 1245TIP3    H127930   7.412   2.710  16.386  1.0574 -0.1696  0.3690
 1245TIP3    H227931   7.503   2.691  16.506 -0.2673 -0.6221  1.3246
 1246TIP3   OH227932   0.589   6.144  18.021 -0.7336 -0.1982 -0.2576
 1246TIP3    H127933   0.493   6.144  18.013 -0.6935 -0.2338 -0.8024
 1246TIP3    H227934   0.612   6.052  18.033 -0.6941 -0.3142 -1.1782
 1247TIP3   OH227935   3.863   1.702  16.452 -0.7516  0.3465  0.1953
 1247TIP3    H127936   3.897   1.756  16.524 -0.2865 -0.9894  1.0183
 1247TIP3    H227937   3.920   1.625  16.451 -0.0101  0.8214 -2.3820
 1248TIP3   OH227938   1.450   5.308  17.860  0.0430 -0.1721 -0.1052
 1248TIP3    H127939   1.476   5.249  17.931 -0.6579  1.4664  1.5874
 1248TIP3    H227940   1.526   5.309  17.801  1.3652 -0.2443  1.5167
 1249TIP3   OH227941   0.472   1.103  15.346  0.0254 -0.6204  0.0556
 1249TIP3    H127942   0.409   1.168  15.314  1.0808  0.1816 -0.5102
 1249TIP3    H227943   0.419   1.037  15.390 -1.2138 -0.0832 -0.5697
 1250TIP3   OH227944   5.032   5.115  16.481  0.3724 -0.7299 -0.2607
 1250TIP3    H127945   4.942   5.083  16.486 -0.1667  0.0199 -3.2731
 1250TIP3    H227946   5.024   5.209  16.471  1.5496 -0.5708  0.0949
 1251TIP3   OH227947   3.925   4.213  17.604 -0.3631  0.3934  0.1990
 1251TIP3    H127948   3.911   4.213  17.698  1.3156  1.2984  0.4805
 1251TIP3    H227949   3.850   4.166  17.569 -2.4611  2.3569  1.7575
 1252TIP3   OH227950   3.383   6.124  17.362  0.3361  0.6046 -0.0171
 1252TIP3    H127951   3.426   6.188  17.419  0.3045 -0.5000  1.2957
 1252TIP3    H227952   3.439   6.047  17.367 -1.5506 -0.7808  1.4991
 1253TIP3   OH227953   1.830   7.385  16.813  0.3640 -0.0862  0.5736
 1253TIP3    H127954   1.824   7.329  16.736  1.0576 -0.4476  0.7725
 1253TIP3    H227955   1.739   7.403  16.837  0.1157 -1.4833  0.7625
 1254TIP3   OH227956   1.962   7.884  17.722 -0.0860  0.1133 -0.2484
 1254TIP3    H127957   1.944   7.807  17.668  1.1579  1.2377 -2.3700
 1254TIP3    H227958   2.053   7.906  17.703  0.3060  0.8026  2.0778
 1255TIP3   OH227959   3.924   4.798  16.466 -0.6941 -0.1549  0.1647
 1255TIP3    H127960   4.019   4.789  16.457 -0.2875  1.8062  1.8304
 1255TIP3    H227961   3.894   4.827  16.380  0.4702  0.8522  0.0660
 1256TIP3   OH227962   0.836   6.937  17.422  0.4912  0.0350  0.7458
 1256TIP3    H127963   0.754   6.984  17.407 -0.2515 -1.2495  0.5537
 1256TIP3    H227964   0.893   6.963  17.350 -0.0257  0.3606  0.4481
 1257TIP3   OH227965   2.157   3.649  16.924  0.3358  0.8198 -0.4307
 1257TIP3    H127966   2.104   3.571  16.943  0.0260  1.4048  1.2961
 1257TIP3    H227967   2.106   3.722  16.960  1.2272  1.6742 -0.8539
 1258TIP3   OH227968   4.826   2.902  15.645 -0.2180  0.0363  0.2252
 1258TIP3    H127969   4.892   2.935  15.584 -1.5440  0.2584 -1.1592
 1258TIP3    H227970   4.866   2.825  15.684  0.7275 -0.0575 -0.8673
 1259TIP3   OH227971   8.412   2.992  16.807 -0.4928  0.0575  0.1545
 1259TIP3    H127972   8.457   2.926  16.754 -0.3653 -0.2601  0.6495
 1259TIP3    H227973   8.319   2.971  16.798 -0.5086  0.3038 -0.3277
 1260TIP3   OH227974   4.371   6.934  17.990 -0.0363 -0.4875 -0.1743
 1260TIP3    H127975   4.424   6.856  18.004  0.7603 -0.0345 -0.5958
 1260TIP3    H227976   4.429   7.007  18.013 -0.9330 -0.0257  0.7100
 1261TIP3   OH227977   5.489   1.222  17.674  0.2834  0.5980 -0.1447
 1261TIP3    H127978   5.461   1.264  17.755 -0.2162  0.1504 -0.0801
 1261TIP3    H227979   5.449   1.274  17.604 -0.0604  0.4333 -0.0748
 1262TIP3   OH227980   4.511   2.208  17.077 -0.4604 -0.3821  0.0760
 1262TIP3    H127981   4.520   2.303  17.090  0.4908 -0.1264 -1.9862
 1262TIP3    H227982   4.425   2.187  17.114 -1.0185  1.4380 -0.0771
 1263TIP3   OH227983   0.643   4.990  17.788  0.0292  0.1328  0.0576
 1263TIP3    H127984   0.640   4.895  17.800  2.3153  0.0405  0.3383
 1263TIP3    H227985   0.734   5.008  17.765 -0.3046  2.2973  0.2487
 1264TIP3   OH227986   4.957   0.844  15.805 -0.2333 -0.2486 -0.2228
 1264TIP3    H127987   4.865   0.849  15.832 -0.2984 -2.8334  0.2994
 1264TIP3    H227988   4.954   0.816  15.714  0.0161 -0.8459 -0.0538
 1265TIP3   OH227989   5.165   4.643  16.666 -0.5425 -0.3719  0.2897
 1265TIP3    H127990   5.185   4.732  16.695  0.5856 -0.4474 -0.1947
 1265TIP3    H227991   5.110   4.607  16.735 -2.2574  1.1704 -0.1912
 1266TIP3   OH227992   6.985   4.050  17.302  0.4279 -0.2012  0.0106
 1266TIP3    H127993   6.972   3.979  17.365  0.3738 -0.7766 -0.6417
 1266TIP3    H227994   7.073   4.084  17.322 -0.0640  0.4521  1.1986
 1267TIP3   OH227995   3.821   5.908  16.937 -0.4495  0.2491  0.2639
 1267TIP3    H127996   3.897   5.867  16.896 -0.5143  1.2657 -0.9335
 1267TIP3    H227997   3.777   5.954  16.865 -1.7974  0.2681  1.0729
 1268TIP3   OH227998   1.253   6.512  16.938  0.1272  0.2705 -0.0997
 1268TIP3    H127999   1.171   6.515  16.987  0.5661  0.9292  0.6075
 1268TIP3    H228000   1.274   6.419  16.934  0.1938  0.2142  1.1645
 1269TIP3   OH228001   7.204   0.163  16.616  0.0740  0.1366 -0.3964
 1269TIP3    H128002   7.296   0.177  16.635 -0.5193  2.4121  1.1176
 1269TIP3    H228003   7.194   0.187  16.524  0.9244  0.0806 -0.5062
 1270TIP3   OH228004   4.833   7.072  17.171 -1.0052  0.3417  0.2138
 1270TIP3    H128005   4.829   7.167  17.167 -1.7988  0.2962 -0.3457
 1270TIP3    H228006   4.827   7.051  17.264  2.2403  0.9231  0.6807
 1271TIP3   OH228007   3.153   5.874  16.461  0.2652 -0.5538 -0.6633
 1271TIP3    H128008   3.152   5.876  16.366  1.4776  2.6174 -0.7067
 1271TIP3    H228009   3.146   5.965  16.488 -3.0010 -1.4918  2.4197
 1272TIP3   OH228010   4.095   0.515  16.848 -0.3540 -0.0047 -0.0285
 1272TIP3    H128011   4.022   0.454  16.847 -1.0149  0.7657  0.3579
 1272TIP3    H228012   4.093   0.557  16.762 -0.9421  0.6776  0.3114
 1273TIP3   OH228013   1.034   5.661  16.906  0.1961  0.3189 -0.1564
 1273TIP3    H128014   1.096   5.639  16.837 -0.5389 -0.5475 -0.5613
 1273TIP3    H228015   0.948   5.656  16.864 -0.2220  0.4042  0.6604
 1274TIP3   OH228016   7.406   4.564  16.425  0.0175 -0.0546 -0.4391
 1274TIP3    H128017   7.498   4.572  16.400  0.3349 -2.2544 -0.1819
 1274TIP3    H228018   7.378   4.482  16.384 -1.6324  0.2095  0.1021
 1275TIP3   OH228019   0.271   7.896  17.259  0.3122 -0.6145 -0.1065
 1275TIP3    H128020   0.262   7.852  17.175  2.3087  2.4441 -2.1498
 1275TIP3    H228021   0.366   7.907  17.270  0.0215  0.5383  1.6932
 1276TIP3   OH228022   7.757   3.261  16.046  0.4164 -0.4072  0.0692
 1276TIP3    H128023   7.766   3.177  16.091 -2.3723 -0.6419  0.3971
 1276TIP3    H228024   7.663   3.267  16.027  0.9537  1.2653 -2.6544
 1277TIP3   OH228025   4.976   3.583  16.182  0.1242 -0.1288 -0.1754
 1277TIP3    H128026   5.006   3.655  16.126  0.3208  0.6592  0.8992
 1277TIP3    H228027   5.048   3.571  16.245 -0.8188  0.2050  0.9918
 1278TIP3   OH228028   6.663   3.296  16.453  0.5537  0.4589  0.2135
 1278TIP3    H128029   6.662   3.374  16.510 -0.8471  0.4526  0.2327
 1278TIP3    H228030   6.620   3.228  16.505  1.5257 -0.2714  0.0868
 1279TIP3   OH228031   6.703   0.337  17.216 -0.1230 -0.4225  0.1720
 1279TIP3    H128032   6.787   0.376  17.242 -0.3521  0.6363 -0.5944
 1279TIP3    H228033   6.724   0.246  17.196  1.6731  0.5766 -3.4850
 1280TIP3   OH228034   1.338   3.775  16.424 -0.2849  0.5750  0.3459
 1280TIP3    H128035   1.278   3.841  16.458 -1.7026 -0.0521 -0.8066
 1280TIP3    H228036   1.327   3.700  16.482 -0.0161  0.7396  0.6077
 1281TIP3   OH228037   5.282   5.536  16.312 -0.1213  0.4278  0.0190
 1281TIP3    H128038   5.310   5.493  16.230  1.1402  0.0972  0.5925
 1281TIP3    H228039   5.305   5.473  16.380  0.2413  1.3437  0.7529
 1282TIP3   OH228040   2.875   0.732  17.259  0.0376  0.3113  0.2401
 1282TIP3    H128041   2.847   0.672  17.190  1.0033  0.6635 -0.4747
 1282TIP3    H228042   2.903   0.675  17.330 -0.3449 -0.0609  0.1020
 1283TIP3   OH228043   2.134   3.858  16.000  0.3879  0.5899  0.2631
 1283TIP3    H128044   2.220   3.843  16.040  0.8599  3.1705  0.3719
 1283TIP3    H228045   2.152   3.913  15.924 -1.0372 -0.0874 -0.6007
 1284TIP3   OH228046   7.297   4.029  15.462  0.0233  0.1015  0.2928
 1284TIP3    H128047   7.324   3.946  15.501 -0.7742  0.4470  1.6779
 1284TIP3    H228048   7.250   4.005  15.383  0.9963 -0.6819 -0.0686
 1285TIP3   OH228049   6.342   8.033  17.516  0.1225  0.1092  0.0854
 1285TIP3    H128050   6.437   8.026  17.522  0.1084 -0.0384  0.1194
 1285TIP3    H228051   6.321   8.116  17.559  0.4316  1.1588 -1.6638
 1286TIP3   OH228052   5.375   0.900  15.921  0.6303  0.4068 -0.3398
 1286TIP3    H128053   5.449   0.931  15.869  2.5666 -0.8808  1.4546
 1286TIP3    H228054   5.325   0.843  15.862  1.5703  0.6209 -1.3571
 1287TIP3   OH228055   1.096   1.989  16.017  0.6054  0.0444  0.5000
 1287TIP3    H128056   1.084   2.070  15.967 -2.0065 -1.1940 -1.1279
 1287TIP3    H228057   1.183   1.958  15.991  0.6861  1.1680 -0.6873
 1288TIP3   OH228058   1.359   0.028  17.114 -0.0032  0.3486 -0.0430
 1288TIP3    H128059   1.266   0.012  17.129  0.2361  0.1707  1.4534
 1288TIP3    H228060   1.385  -0.039  17.051 -0.4340 -1.0294  1.1837
 1289TIP3   OH228061   7.135   4.951  17.258 -0.2609 -0.5645  0.5816
 1289TIP3    H128062   7.140   4.922  17.349 -1.0973 -0.3689  0.7014
 1289TIP3    H228063   7.084   5.032  17.262 -0.2367 -0.5155 -0.0499
 1290TIP3   OH228064   0.322   1.325  17.185  0.6977 -0.2807 -0.0200
 1290TIP3    H128065   0.283   1.263  17.246  1.1662  1.9432  2.7934
 1290TIP3    H228066   0.300   1.411  17.221  3.0773  1.1602 -1.6722
 1291TIP3   OH228067   5.447   2.901  17.693  0.0009 -0.5182 -0.5629
 1291TIP3    H128068   5.403   2.841  17.752 -0.7605 -0.1239 -0.7181
 1291TIP3    H228069   5.467   2.849  17.615 -0.5978 -0.5839 -0.6719
 1292TIP3   OH228070   4.812   0.284  15.786  0.1935 -0.4499  0.1440
 1292TIP3    H128071   4.907   0.277  15.788  0.4707  1.4571 -1.7496
 1292TIP3    H228072   4.792   0.356  15.845  0.0754  0.0068 -0.4433
 1293TIP3   OH228073   0.241   2.630  15.292 -0.2104 -0.4236  0.5496
 1293TIP3    H128074   0.306   2.569  15.326 -1.5444 -1.8713  0.6017
 1293TIP3    H228075   0.221   2.596  15.205  0.5232  1.1697 -0.2941
 1294TIP3   OH228076   2.098   5.095  16.072  0.0324  0.3500  0.4921
 1294TIP3    H128077   2.060   5.061  16.154  0.0260  2.2207  1.3274
 1294TIP3    H228078   2.094   5.022  16.011  1.0799 -1.4788  2.4898
 1295TIP3   OH228079   6.025   7.020  17.379  0.2111  0.2519  0.1554
 1295TIP3    H128080   6.028   7.096  17.437  1.1855 -0.4697  1.0966
 1295TIP3    H228081   6.116   6.991  17.373 -0.0317 -0.3580 -0.8610
 1296TIP3   OH228082   2.752   2.437  17.157 -0.0446 -0.1111 -0.0242
 1296TIP3    H128083   2.764   2.353  17.114  0.0821  0.6147 -1.4531
 1296TIP3    H228084   2.676   2.476  17.113 -0.8394  0.0439  1.4155
 1297TIP3   OH228085   5.788   1.147  16.581 -0.2140  0.1367 -0.0937
 1297TIP3    H128086   5.755   1.059  16.601  0.9730 -0.3099  0.0088
 1297TIP3    H228087   5.739   1.174  16.504 -1.6231 -0.0123  0.7288
 1298TIP3   OH228088   3.957   4.963  16.203 -0.9653  0.5437  0.2545
 1298TIP3    H128089   3.993   4.878  16.180  0.9947  0.9559  1.5752
 1298TIP3    H228090   3.937   5.004  16.118  2.2908  0.4896 -0.6850
 1299TIP3   OH228091   1.835   1.585  16.881 -0.7817 -0.1613  0.0819
 1299TIP3    H128092   1.809   1.657  16.939 -1.1188  0.4699 -0.8276
 1299TIP3    H228093   1.766   1.520  16.890 -0.9933  0.0724  0.1511
 1300TIP3   OH228094   1.136   1.368  16.875  0.3020  0.0638 -0.5208
 1300TIP3    H128095   1.184   1.341  16.797  0.1431  1.2799 -1.0664
 1300TIP3    H228096   1.180   1.448  16.904  0.5384 -0.5169  0.8222
 1301TIP3   OH228097   2.251   7.197  17.768 -0.0224 -0.1300  0.3156
 1301TIP3    H128098   2.254   7.292  17.758 -0.1969 -0.0000  1.3843
 1301TIP3    H228099   2.334   7.167  17.732  0.7106  0.5766  1.3633
 1302TIP3   OH228100   7.099   3.301  16.198 -0.4174 -0.1896  0.3383
 1302TIP3    H128101   7.012   3.341  16.192 -0.0826  0.3473 -1.8931
 1302TIP3    H228102   7.086   3.223  16.251 -2.2156 -0.0191  0.2200
 1303TIP3   OH228103   2.309   3.517  17.136  0.2103  0.6780  0.4161
 1303TIP3    H128104   2.396   3.499  17.101  0.1105  1.3146 -0.1803
 1303TIP3    H228105   2.284   3.601  17.097 -0.1379  1.1494  1.5867
 1304TIP3   OH228106   4.160   7.394  17.080 -0.0304  0.3689  0.6038
 1304TIP3    H128107   4.228   7.335  17.114 -0.1827 -0.0724  0.1552
 1304TIP3    H228108   4.087   7.384  17.142  0.3880  1.0114  1.2128
 1305TIP3   OH228109   6.258   6.834  16.420  0.3174  0.3936  0.4139
 1305TIP3    H128110   6.171   6.855  16.383  0.5164 -0.1478 -0.3789
 1305TIP3    H228111   6.305   6.793  16.348  0.9226 -0.1680  1.1222
 1306TIP3   OH228112   4.822   2.135  17.570 -0.1483 -0.1505  0.1892
 1306TIP3    H128113   4.737   2.100  17.598 -0.0543  0.2085  0.9426
 1306TIP3    H228114   4.817   2.228  17.591  0.3358 -0.0815 -0.0103
 1307TIP3   OH228115   3.211   1.933  16.788 -0.4738 -0.2834 -0.0843
 1307TIP3    H128116   3.282   1.909  16.848  0.4190  1.2996 -0.4454
 1307TIP3    H228117   3.231   1.886  16.707  2.1293  2.5916 -1.3048
 1308TIP3   OH228118   1.278   7.120  17.428 -0.1079 -0.0593  0.1693
 1308TIP3    H128119   1.297   7.082  17.342  0.6722  1.0162 -0.1664
 1308TIP3    H228120   1.304   7.053  17.490 -0.6105 -0.8245 -0.4327
 1309TIP3   OH228121   7.392   1.409  17.579  0.1531  0.2039 -0.8251
 1309TIP3    H128122   7.314   1.382  17.628 -0.8691  1.6908 -1.5602
 1309TIP3    H228123   7.436   1.327  17.556  0.8721 -0.5799  2.7829
 1310TIP3   OH228124   6.178   0.251  17.879 -0.0166 -0.1522  0.3399
 1310TIP3    H128125   6.205   0.320  17.940  0.7116  0.6294 -0.8250
 1310TIP3    H228126   6.148   0.179  17.935  0.1062  0.7467  1.5956
 1311TIP3   OH228127   4.137   7.997  16.341  0.0962 -0.1235 -0.2015
 1311TIP3    H128128   4.147   8.088  16.369 -0.2732  0.3489 -1.5125
 1311TIP3    H228129   4.172   7.996  16.252  1.8364 -1.7008  0.4418
 1312TIP3   OH228130   5.607   0.580  17.045  0.1550  0.4950  0.2260
 1312TIP3    H128131   5.610   0.591  17.140 -0.1798 -1.6959  0.5418
 1312TIP3    H228132   5.698   0.573  17.019  0.2251  0.4922  0.4698
 1313TIP3   OH228133   8.038   3.657  18.038 -0.1702 -0.4214  0.1171
 1313TIP3    H128134   8.092   3.687  17.965  0.7561 -1.8716  0.1634
 1313TIP3    H228135   7.956   3.706  18.029  0.1777 -0.0729 -1.4876
 1314TIP3   OH228136   6.013   8.285  18.130  0.9387  0.0960 -0.0946
 1314TIP3    H128137   6.047   8.204  18.167 -1.5042  0.2286  2.7836
 1314TIP3    H228138   5.933   8.259  18.084 -0.9598  0.9146  2.4922
 1315TIP3   OH228139   0.759   3.058  16.570 -0.0153  0.1749 -0.0164
 1315TIP3    H128140   0.710   3.140  16.572  1.2685  0.9565  0.6341
 1315TIP3    H228141   0.748   3.022  16.658 -1.8643 -1.1841 -0.7386
 1316TIP3   OH228142   6.830   6.125  17.540  0.1920 -0.7816 -0.0676
 1316TIP3    H128143   6.755   6.091  17.589 -0.6696  0.0419 -0.7873
 1316TIP3    H228144   6.794   6.148  17.454  1.4851 -1.3628 -0.8010
 1317TIP3   OH228145   7.919   6.183  16.139  0.1962 -0.4703  0.4317
 1317TIP3    H128146   7.949   6.106  16.090  0.9462 -0.0687  0.2445
 1317TIP3    H228147   7.993   6.243  16.136  0.0025 -0.1644  1.4980
 1318TIP3   OH228148   6.525   4.412  17.631  0.1576  0.2685 -0.0432
 1318TIP3    H128149   6.523   4.346  17.700 -0.0471  1.3907  1.0692
 1318TIP3    H228150   6.452   4.390  17.574  0.3333 -0.6868  0.0936
 1319TIP3   OH228151   0.275   0.476  17.520 -0.2975 -0.1036  0.2963
 1319TIP3    H128152   0.202   0.529  17.489 -0.7913 -0.1312  1.3562
 1319TIP3    H228153   0.329   0.538  17.571  0.5538 -0.0286 -0.6728
 1320TIP3   OH228154   1.063   7.098  16.665  0.5637  0.1237 -0.5713
 1320TIP3    H128155   1.138   7.112  16.722  2.3787 -1.2174 -2.4712
 1320TIP3    H228156   1.069   7.167  16.599 -0.8897  1.0057  0.1512
 1321TIP3   OH228157   2.218   1.654  17.024 -0.0372 -0.1852  0.2420
 1321TIP3    H128158   2.210   1.561  17.005  2.7038 -0.9428  2.1446
 1321TIP3    H228159   2.167   1.668  17.103  0.5089 -0.3665  0.6332
 1322TIP3   OH228160   6.597   3.762  16.596 -0.0345  0.5895  0.2919
 1322TIP3    H128161   6.512   3.732  16.564  0.5865  0.4784 -1.3531
 1322TIP3    H228162   6.584   3.855  16.614 -0.8703  0.2658  1.4547
 1323TIP3   OH228163   6.671   2.502  16.547  0.2890 -0.2535  0.3522
 1323TIP3    H128164   6.640   2.417  16.578 -0.3164 -0.5510 -1.0047
 1323TIP3    H228165   6.722   2.536  16.620 -0.9347 -0.9806  1.6110
 1324TIP3   OH228166   4.662   1.573  17.151 -0.0209 -0.0027  0.0460
 1324TIP3    H128167   4.597   1.549  17.217  0.8442 -0.1773  0.8595
 1324TIP3    H228168   4.701   1.654  17.184  1.1927 -0.6744  0.3343
 1325TIP3   OH228169   8.220   8.077  16.709  0.2895 -0.5523  0.0996
 1325TIP3    H128170   8.186   8.098  16.623  0.6044  1.3197  0.3896
 1325TIP3    H228171   8.154   8.020  16.749  0.1062 -1.3596 -1.3151
 1326TIP3   OH228172   4.729   1.268  17.100  0.0409  0.0975 -0.2900
 1326TIP3    H128173   4.785   1.207  17.052  1.7562  0.9770  0.4827
 1326TIP3    H228174   4.740   1.352  17.054 -0.0164  0.4525  0.3324
 1327TIP3   OH228175   5.110   2.755  16.518  0.4786 -0.1873 -1.1689
 1327TIP3    H128176   5.139   2.773  16.607  0.4537 -1.4478 -0.8780
 1327TIP3    H228177   5.118   2.660  16.509 -4.1450 -0.8280 -0.7917
 1328TIP3   OH228178   2.449   2.649  16.651 -0.0778 -0.0216  0.2197
 1328TIP3    H128179   2.458   2.742  16.673 -1.5389 -0.1430  1.5308
 1328TIP3    H228180   2.356   2.637  16.633  0.1897 -1.1294 -0.5389
 1329TIP3   OH228181   2.590   0.167  16.972 -0.1731  0.6252 -0.4722
 1329TIP3    H128182   2.526   0.134  16.909  0.3151 -0.1494 -0.5747
 1329TIP3    H228183   2.673   0.130  16.944  0.0302  0.1240  0.7304
 1330TIP3   OH228184   3.453   7.226  17.758  0.0445 -0.4502 -0.0056
 1330TIP3    H128185   3.430   7.180  17.677 -0.1028 -0.6310  0.1388
 1330TIP3    H228186   3.481   7.156  17.818 -1.8271 -0.5720  0.8012
 1331TIP3   OH228187   3.320   2.910  16.008  0.3660 -0.1492 -0.2121
 1331TIP3    H128188   3.374   2.920  15.930 -0.7414 -0.7963 -1.0866
 1331TIP3    H228189   3.232   2.935  15.980 -0.4410 -2.2503  0.2908
 1332TIP3   OH228190   4.771   4.954  16.339  0.1917  0.2233  0.1880
 1332TIP3    H128191   4.813   5.028  16.294  0.1761  0.5655  0.7167
 1332TIP3    H228192   4.783   4.880  16.280  0.3836  0.6061 -0.2636
 1333TIP3   OH228193   6.502   0.268  15.690  0.6103 -0.3890 -0.2584
 1333TIP3    H128194   6.506   0.354  15.650 -1.5081 -1.0719 -2.1407
 1333TIP3    H228195   6.566   0.215  15.643  0.7196 -0.2768 -0.2349
 1334TIP3   OH228196   7.906   1.937  15.240 -0.4625 -0.0299 -0.0817
 1334TIP3    H128197   7.908   1.873  15.312  2.0287 -0.6308 -0.5855
 1334TIP3    H228198   7.997   1.965  15.231 -1.0702  1.6066 -1.6618
 1335TIP3   OH228199   7.364   5.221  16.474  0.4319  0.0057  0.6156
 1335TIP3    H128200   7.373   5.145  16.415 -0.1703  0.8151 -0.5515
 1335TIP3    H228201   7.374   5.297  16.417 -0.4075  0.8235  1.5279
 1336TIP3   OH228202   0.889   7.507  16.053  0.2864 -0.1045 -0.5079
 1336TIP3    H128203   0.827   7.579  16.041 -1.7660 -1.1145  2.5345
 1336TIP3    H228204   0.846   7.432  16.011  0.1543 -0.4705  0.2554
 1337TIP3   OH228205   2.321   2.767  17.129 -0.0553 -0.0817 -0.4184
 1337TIP3    H128206   2.330   2.834  17.196 -0.4145 -0.0381 -0.4163
 1337TIP3    H228207   2.239   2.787  17.085 -0.4668 -0.8720 -0.0273
 1338TIP3   OH228208   4.942   6.473  15.484 -0.0647  0.1129  0.0282
 1338TIP3    H128209   4.888   6.492  15.408  0.8388  0.2087 -0.6083
 1338TIP3    H228210   4.888   6.497  15.559 -1.2806 -0.7603 -0.5359
 1339TIP3   OH228211   7.130   2.675  16.939 -0.1271 -0.4693 -0.0972
 1339TIP3    H128212   7.208   2.627  16.968 -0.7247 -1.1350  0.4222
 1339TIP3    H228213   7.133   2.669  16.843  0.5881 -0.2738 -0.0934
 1340TIP3   OH228214   2.979   4.769  16.272 -0.1464  0.0051 -0.1981
 1340TIP3    H128215   2.889   4.735  16.271 -0.0966 -0.1261 -0.5978
 1340TIP3    H228216   2.992   4.801  16.361 -0.1956 -1.0363  0.1925
 1341TIP3   OH228217   5.515   0.521  15.773 -0.0050  0.3290 -0.3279
 1341TIP3    H128218   5.582   0.534  15.706  0.9337  1.1208  0.7125
 1341TIP3    H228219   5.564   0.491  15.850 -0.8987  0.4735  0.3209
 1342TIP3   OH228220   6.670   0.906  15.702  0.5733 -0.8904  0.2058
 1342TIP3    H128221   6.750   0.858  15.681  1.7006  1.3327 -1.0176
 1342TIP3    H228222   6.687   0.996  15.672 -1.4718  0.2616  2.1551
 1343TIP3   OH228223   2.418   7.074  16.055 -0.3352 -0.2068  0.0881
 1343TIP3    H128224   2.368   7.002  16.018  1.4817 -1.4048 -0.1604
 1343TIP3    H228225   2.385   7.084  16.144 -0.1457 -1.8557  0.3695
 1344TIP3   OH228226   3.795   1.666  17.785  0.0587 -0.2681  0.3037
 1344TIP3    H128227   3.821   1.758  17.794 -0.5461 -0.2549  2.7259
 1344TIP3    H228228   3.703   1.671  17.758  0.0320 -0.1397  0.4123
 1345TIP3   OH228229   1.367   5.081  16.887  0.3879  0.2208  0.2671
 1345TIP3    H128230   1.380   5.174  16.871  0.3997  0.3591  1.0698
 1345TIP3    H228231   1.276   5.074  16.918 -0.1157 -0.2255 -1.1997
 1346TIP3   OH228232   5.363   4.084  17.106 -0.6844 -0.4480  0.3232
 1346TIP3    H128233   5.400   3.996  17.099  0.5910  0.0379  0.5587
 1346TIP3    H228234   5.440   4.142  17.106 -1.5373  0.8918 -2.8831
 1347TIP3   OH228235   7.709   1.803  15.751  0.3336 -0.3438  0.1013
 1347TIP3    H128236   7.766   1.872  15.785  1.1714 -0.6728 -0.5957
 1347TIP3    H228237   7.729   1.800  15.658 -1.3775  0.0352 -0.3077
 1348TIP3   OH228238   0.822   7.046  16.394 -0.4130 -0.2927  0.3427
 1348TIP3    H128239   0.758   7.001  16.339 -0.7615  0.6126 -0.0165
 1348TIP3    H228240   0.899   7.056  16.339 -0.8174  0.7545 -0.0510
 1349TIP3   OH228241   7.593   4.972  17.633 -0.0111  0.1634  0.2658
 1349TIP3    H128242   7.498   4.965  17.641  0.2059 -1.9220  1.9637
 1349TIP3    H228243   7.617   4.901  17.574  0.4929  0.8061 -0.3112
 1350TIP3   OH228244   6.909   6.368  16.143 -0.9896  0.1836  0.8359
 1350TIP3    H128245   6.957   6.388  16.223 -1.7872  0.3736  1.2738
 1350TIP3    H228246   6.838   6.310  16.171 -1.3516  0.3565  0.2910
 1351TIP3   OH228247   4.583   0.657  16.091 -0.2367  0.7497 -0.3418
 1351TIP3    H128248   4.519   0.650  16.021 -1.7326 -0.0716  1.0529
 1351TIP3    H228249   4.607   0.567  16.111 -0.8701  0.8718  1.0864
 1352TIP3   OH228250   1.027   4.999  16.846  0.5170 -0.4019  0.4030
 1352TIP3    H128251   1.046   4.970  16.935  0.6360 -1.7381 -0.0289
 1352TIP3    H228252   1.022   4.918  16.795  0.4195  0.3318 -0.8030
 1353TIP3   OH228253   2.728   7.305  17.003  0.4919 -0.5899  0.1908
 1353TIP3    H128254   2.789   7.306  17.077  0.1945 -2.6937  0.5302
 1353TIP3    H228255   2.665   7.236  17.025  0.5287 -1.4380 -2.1176
 1354TIP3   OH228256   1.551   7.442  16.080 -0.1252 -0.7203 -0.0311
 1354TIP3    H128257   1.618   7.454  16.147 -1.1328 -1.7646  1.2016
 1354TIP3    H228258   1.597   7.459  15.997  0.8872  1.6411  0.9236
 1355TIP3   OH228259   0.829   4.210  16.056  0.3007 -0.1317  0.3746
 1355TIP3    H128260   0.865   4.269  16.123  0.6587 -0.4166  0.4290
 1355TIP3    H228261   0.881   4.227  15.978  1.3584 -1.4058  0.7777
 1356TIP3   OH228262   2.234   2.901  17.388  0.4893  0.5164 -0.0696
 1356TIP3    H128263   2.184   2.982  17.400 -3.0592 -1.8102  2.9264
 1356TIP3    H228264   2.299   2.903  17.458  0.3920  0.7252  0.0151
 1357TIP3   OH228265   0.384   3.739  16.299  0.2635 -0.6105  0.4031
 1357TIP3    H128266   0.347   3.827  16.309  0.9476 -0.4437  1.8281
 1357TIP3    H228267   0.312   3.680  16.322 -0.0863 -0.4194 -0.1821
 1358TIP3   OH228268   2.229   2.716  17.766 -0.0054  0.1858  0.1617
 1358TIP3    H128269   2.316   2.680  17.784 -0.0260 -0.1372 -0.3670
 1358TIP3    H228270   2.240   2.811  17.771  0.3928  0.1462  0.0458
 1359TIP3   OH228271   3.415   1.783  16.235 -0.0027  0.1823  0.1602
 1359TIP3    H128272   3.477   1.788  16.308 -0.0491 -0.6395  0.2683
 1359TIP3    H228273   3.459   1.726  16.171  0.0285  0.8843 -0.4471
 1360TIP3   OH228274   5.869   7.819  17.536  0.3665  0.2792 -0.4989
 1360TIP3    H128275   5.775   7.818  17.554  0.0169 -0.4190 -2.1793
 1360TIP3    H228276   5.909   7.781  17.615 -1.0604 -2.7573 -1.1007
 1361TIP3   OH228277   0.006   7.298  17.946  0.1435  0.4221 -0.6134
 1361TIP3    H128278   0.039   7.208  17.941 -0.2489  0.2998 -1.0076
 1361TIP3    H228279  -0.051   7.307  17.870 -0.0738  0.9024 -0.3938
 1362TIP3   OH228280   8.139   0.341  17.245 -0.5447  0.6693  0.4083
 1362TIP3    H128281   8.090   0.308  17.170 -1.1252  0.5563  0.8317
 1362TIP3    H228282   8.159   0.432  17.222  0.5813  0.2079 -0.5215
 1363TIP3   OH228283   4.174   5.938  16.957  0.3429  0.3256  0.1959
 1363TIP3    H128284   4.259   5.912  16.993 -0.7672  0.2130  2.9439
 1363TIP3    H228285   4.193   6.017  16.906  1.8249  1.7234  2.7236
 1364TIP3   OH228286   3.300   8.235  17.377  0.5257 -0.0519 -0.0232
 1364TIP3    H128287   3.308   8.174  17.451 -0.5523  1.0033  0.9938
 1364TIP3    H228288   3.212   8.220  17.343 -0.0857  1.5181  0.7951
 1365TIP3   OH228289   7.812   4.678  17.776 -0.2803 -0.1180 -0.1708
 1365TIP3    H128290   7.716   4.685  17.778 -0.1964  0.9843  0.3545
 1365TIP3    H228291   7.843   4.768  17.782  0.8044 -0.4959  0.0669
 1366TIP3   OH228292   2.077   3.287  16.378 -0.0851  0.1698  0.2933
 1366TIP3    H128293   2.150   3.349  16.380  0.7899 -0.7821 -0.8993
 1366TIP3    H228294   2.000   3.339  16.402  0.8516  1.3699  0.7761
 1367TIP3   OH228295   2.325   8.197  17.622 -0.3220 -0.5027  0.2259
 1367TIP3    H128296   2.289   8.235  17.702  0.9674 -1.0108  1.0723
 1367TIP3    H228297   2.324   8.103  17.637 -0.2770 -0.6127 -0.4430
 1368TIP3   OH228298   3.600   2.675  17.878 -0.2925 -0.3782  0.0539
 1368TIP3    H128299   3.616   2.674  17.973 -0.8410 -2.4192  0.1832
 1368TIP3    H228300   3.677   2.633  17.841 -0.0044  0.5681 -0.4455
 1369TIP3   OH228301   6.536   6.455  16.168 -0.1025  0.0137  0.4713
 1369TIP3    H128302   6.612   6.456  16.226  0.3592  0.8088 -0.1398
 1369TIP3    H228303   6.528   6.363  16.141  1.0193  0.0232  0.0485
 1370TIP3   OH228304   0.465   4.306  17.879  0.1016  0.4992  0.0311
 1370TIP3    H128305   0.528   4.323  17.949 -0.2913 -0.3612  0.6126
 1370TIP3    H228306   0.510   4.331  17.799  0.8670  0.7056  0.5187
 1371TIP3   OH228307   8.204   2.635  16.127 -0.2018  0.4275  0.2245
 1371TIP3    H128308   8.130   2.642  16.187  0.0203  0.1586  0.5335
 1371TIP3    H228309   8.247   2.553  16.151 -0.7244 -0.2298 -1.0059
 1372TIP3   OH228310   6.381   8.258  14.907  0.1939 -0.3882  0.2432
 1372TIP3    H128311   6.422   8.246  14.993 -0.8874 -1.3565  0.6397
 1372TIP3    H228312   6.431   8.330  14.868  1.7809 -1.0063  1.0004
 1373TIP3   OH228313   1.900   7.627  17.578  0.1192  0.5257  0.1076
 1373TIP3    H128314   1.845   7.554  17.606  0.4889  0.0388 -0.4316
 1373TIP3    H228315   1.990   7.597  17.594  0.2992  0.6165 -0.6809
 1374TIP3   OH228316   0.885   7.307  17.352  0.0611  0.1843  0.0858
 1374TIP3    H128317   0.818   7.267  17.297 -0.1598 -2.7669  2.2625
 1374TIP3    H228318   0.961   7.317  17.295 -0.1326 -2.7677 -0.8290
 1375TIP3   OH228319   8.254   7.330  15.942  0.4820 -0.1993  0.0893
 1375TIP3    H128320   8.282   7.336  16.033 -0.5560  1.2780  0.3574
 1375TIP3    H228321   8.335   7.317  15.892  1.1129 -0.5133  1.1781
 1376TIP3   OH228322   4.296   6.706  17.697 -0.1039  0.1500 -0.1733
 1376TIP3    H128323   4.277   6.798  17.711  0.2435  0.0315  1.2301
 1376TIP3    H228324   4.387   6.704  17.668 -0.6748  0.3621 -2.1018
 1377TIP3   OH228325   3.805   2.623  17.699  0.3322 -0.5157  0.3078
 1377TIP3    H128326   3.839   2.713  17.697 -0.1215 -0.3569 -0.6626
 1377TIP3    H228327   3.725   2.627  17.648 -1.6067 -0.7389  3.1020
 1378TIP3   OH228328   2.500   0.942  16.448 -0.1734  0.4130 -0.0582
 1378TIP3    H128329   2.568   0.880  16.421 -1.1946 -0.8619  0.1874
 1378TIP3    H228330   2.458   0.968  16.366  0.8089  1.4740 -0.2458
 1379TIP3   OH228331   3.416   6.493  17.715 -0.1570 -0.0873  0.0208
 1379TIP3    H128332   3.483   6.474  17.781  0.6812 -0.5550 -0.9311
 1379TIP3    H228333   3.447   6.573  17.673 -0.5284  0.0420 -0.0098
 1380TIP3   OH228334   4.997   0.960  17.995  0.2289  0.0920 -0.2870
 1380TIP3    H128335   5.034   1.047  18.006 -0.4687  0.5706 -1.5147
 1380TIP3    H228336   5.060   0.901  18.038  0.6607  1.1866  0.6399
 1381TIP3   OH228337   8.303   5.808  17.305 -0.0401  0.0327  0.3984
 1381TIP3    H128338   8.283   5.901  17.311 -0.0863 -0.0685  2.8538
 1381TIP3    H228339   8.219   5.764  17.317  0.3822 -0.2882  2.8465
 1382TIP3   OH228340   1.067   3.917  15.510  0.0612  0.0161 -0.3925
 1382TIP3    H128341   1.046   3.991  15.567  0.3548 -0.1987  0.0065
 1382TIP3    H228342   0.986   3.898  15.464 -0.4574 -0.3932  0.6415
 1383TIP3   OH228343   4.646   3.730  16.725 -0.1200 -0.0648  0.6308
 1383TIP3    H128344   4.652   3.643  16.766 -1.1006 -1.0644 -1.1766
 1383TIP3    H228345   4.562   3.765  16.756 -1.3553 -1.2465 -1.1151
 1384TIP3   OH228346   4.339   2.756  17.227 -0.3728 -0.4884 -0.2049
 1384TIP3    H128347   4.290   2.674  17.228 -1.1447 -0.0396  0.9093
 1384TIP3    H228348   4.388   2.754  17.145 -0.7603 -1.8327 -0.4273
 1385TIP3   OH228349   2.950   8.211  15.505  0.5543  0.2952  0.1347
 1385TIP3    H128350   2.914   8.219  15.416  2.0015 -0.5682 -0.5609
 1385TIP3    H228351   2.891   8.150  15.549  0.2653  0.1237 -0.4762
 1386TIP3   OH228352   6.809   1.034  17.325 -0.5456  0.0490  0.7219
 1386TIP3    H128353   6.756   0.956  17.306 -0.6543  0.1612  0.5612
 1386TIP3    H228354   6.899   1.005  17.312 -0.6211  0.1501 -0.0762
 1387TIP3   OH228355   8.158   4.657  17.368 -0.1744 -0.6162  0.6633
 1387TIP3    H128356   8.118   4.740  17.394 -0.8894 -1.0971  1.1280
 1387TIP3    H228357   8.133   4.646  17.276  3.3948  1.7039 -0.7940
 1388TIP3   OH228358   8.416   8.334  16.958  0.8836  0.0474 -0.0620
 1388TIP3    H128359   8.400   8.394  16.885  0.7067 -0.7048 -0.6590
 1388TIP3    H228360   8.434   8.391  17.033  0.3328  0.8431 -0.5205
 1389TIP3   OH228361   4.147   3.991  16.830 -0.3762  0.2001 -0.2162
 1389TIP3    H128362   4.097   4.065  16.796  0.1154  0.7640  0.2522
 1389TIP3    H228363   4.135   3.996  16.925  0.6388  0.4115 -0.0866
 1390TIP3   OH228364   2.541   1.541  15.877 -0.1276 -0.6668 -0.3683
 1390TIP3    H128365   2.595   1.530  15.799 -1.2584  4.4976 -2.2737
 1390TIP3    H228366   2.453   1.559  15.843 -0.4484  2.8198  1.8501
 1391TIP3   OH228367   6.817   2.998  17.728 -0.1492  0.0218 -0.1699
 1391TIP3    H128368   6.854   2.914  17.757  0.5159 -0.0348 -1.1291
 1391TIP3    H228369   6.763   2.975  17.652 -2.8042  0.0062  1.5798
 1392TIP3   OH228370   4.395   3.401  16.799 -0.2254 -0.1069  0.0787
 1392TIP3    H128371   4.300   3.409  16.809 -0.5733  0.2220 -2.6763
 1392TIP3    H228372   4.412   3.431  16.710  2.3325 -1.3674  0.0602
 1393TIP3   OH228373   1.380   4.622  17.692  0.0664  0.3664 -0.1615
 1393TIP3    H128374   1.299   4.666  17.717  0.6229  1.4174 -0.1633
 1393TIP3    H228375   1.352   4.535  17.664 -1.0212  0.6010  0.1493
 1394TIP3   OH228376   8.246   3.663  16.475 -0.5083  0.3034  0.7416
 1394TIP3    H128377   8.289   3.587  16.435  1.5990  1.7900  0.0169
 1394TIP3    H228378   8.317   3.724  16.495 -2.1908  2.7295 -0.1095
 1395TIP3   OH228379   0.568   4.252  16.632  0.1686  0.0085  0.0059
 1395TIP3    H128380   0.567   4.348  16.632  1.3397  0.0578  1.0163
 1395TIP3    H228381   0.528   4.227  16.549 -0.6767  1.3572 -0.0278
 1396TIP3   OH228382   8.376   2.079  16.679 -0.3360  0.8390 -0.1491
 1396TIP3    H128383   8.459   2.084  16.726  0.7526  0.2442 -1.9012
 1396TIP3    H228384   8.310   2.090  16.747  1.1028 -0.7432  1.6648
 1397TIP3   OH228385   0.102   6.369  17.503 -0.1452 -0.3107 -0.3459
 1397TIP3    H128386   0.102   6.390  17.596  0.3072 -0.4198 -0.3194
 1397TIP3    H228387   0.027   6.417  17.468 -0.1394 -0.0271  0.0206
 1398TIP3   OH228388   4.251   2.337  16.544 -0.1793  0.2106 -0.7575
 1398TIP3    H128389   4.307   2.292  16.607  2.1879  1.9613 -1.4573
 1398TIP3    H228390   4.259   2.285  16.464 -1.0588 -0.5521 -0.3614
 1399TIP3   OH228391   4.598   3.603  15.996  0.3483 -0.7375  0.0778
 1399TIP3    H128392   4.591   3.524  15.941  1.1595 -0.4171 -0.4994
 1399TIP3    H228393   4.610   3.674  15.933 -2.0154  0.1087  0.4820
 1400TIP3   OH228394   4.118   4.860  17.533 -0.1689 -0.2457  0.4580
 1400TIP3    H128395   4.191   4.899  17.581 -0.1232 -0.8791  0.9179
 1400TIP3    H228396   4.052   4.843  17.599 -0.9925  0.8660 -0.0424
 1401TIP3   OH228397   0.947   3.786  17.762 -0.3880 -0.1120 -0.0795
 1401TIP3    H128398   0.856   3.800  17.736 -0.0824  1.4031 -0.4534
 1401TIP3    H228399   0.998   3.842  17.703  0.7140 -0.2652  0.6791
 1402TIP3   OH228400   4.785   2.866  17.382  0.0622  0.6079 -0.4677
 1402TIP3    H128401   4.779   2.876  17.288  0.9583 -1.7332 -0.8518
 1402TIP3    H228402   4.836   2.941  17.412  0.5613  0.8905 -1.9533
 1403TIP3   OH228403   7.885   2.636  16.711 -0.4308 -0.5258  0.1830
 1403TIP3    H128404   7.921   2.552  16.739  0.4917 -0.5702 -1.0342
 1403TIP3    H228405   7.882   2.689  16.790  2.6274 -0.4129  0.3294
 1404TIP3   OH228406   7.483   8.242  17.044 -0.1580  0.4973  0.0131
 1404TIP3    H128407   7.401   8.287  17.022  0.0494  1.3475  0.9201
 1404TIP3    H228408   7.463   8.196  17.127  0.2707  0.6734  0.2142
 1405TIP3   OH228409   4.475   6.953  16.694  0.3275 -0.4527  0.1588
 1405TIP3    H128410   4.475   6.930  16.787  0.6461  1.2967  0.6265
 1405TIP3    H228411   4.396   7.005  16.682 -0.4615 -1.8322 -0.8969
 1406TIP3   OH228412   1.554   8.336  17.678 -0.2640  0.4232 -0.3451
 1406TIP3    H128413   1.528   8.428  17.686 -1.6594 -0.1021  2.0400
 1406TIP3    H228414   1.649   8.338  17.683 -0.2996  1.7123  0.4244
 1407TIP3   OH228415   0.510   0.082  15.741 -0.2009 -0.7128  0.0085
 1407TIP3    H128416   0.509  -0.014  15.742 -0.3927 -0.7373 -1.0001
 1407TIP3    H228417   0.572   0.104  15.672 -1.0764 -0.1329 -0.6137
 1408TIP3   OH228418   5.604   0.409  18.022 -0.2195 -0.2141  0.0479
 1408TIP3    H128419   5.679   0.350  18.029  0.4037  0.1523 -2.6317
 1408TIP3    H228420   5.641   0.496  18.036  0.8794  0.4366 -5.0717
 1409TIP3   OH228421   7.896   7.862  17.188 -0.3088 -0.1313 -0.0593
 1409TIP3    H128422   7.977   7.870  17.138 -1.2248 -0.6052 -1.6952
 1409TIP3    H228423   7.838   7.928  17.151 -1.3289 -1.1207 -0.2859
 1410TIP3   OH228424   6.805   6.878  17.315 -0.2143  0.2869 -1.0875
 1410TIP3    H128425   6.801   6.901  17.407 -1.1777 -3.1013 -0.1482
 1410TIP3    H228426   6.899   6.871  17.296 -0.0297 -0.3804  0.0379
 1411TIP3   OH228427   2.736   5.324  16.987 -0.0554  0.4812  0.0120
 1411TIP3    H128428   2.696   5.397  17.035  0.7441  1.1772 -0.3605
 1411TIP3    H228429   2.815   5.303  17.037  0.4031  0.7382 -0.5972
 1412TIP3   OH228430   3.087   7.720  16.995 -0.0549 -0.6464 -0.3231
 1412TIP3    H128431   3.129   7.635  17.007 -1.7061 -1.6013 -0.9554
 1412TIP3    H228432   3.078   7.728  16.900 -1.6170 -0.6780 -0.2056
 1413TIP3   OH228433   6.796   1.950  16.586  0.5816 -0.2248 -0.1391
 1413TIP3    H128434   6.883   1.916  16.564  1.0947  0.7136  0.3874
 1413TIP3    H228435   6.789   2.032  16.538 -0.2621 -0.5810 -0.6460
 1414TIP3   OH228436   0.468   1.473  17.548  0.4972 -0.1203 -0.4074
 1414TIP3    H128437   0.451   1.401  17.608 -1.1991  1.0791  0.6497
 1414TIP3    H228438   0.530   1.529  17.595 -1.4306  1.2238  0.6695
 1415TIP3   OH228439   5.411   4.474  17.479 -0.1132 -0.2810 -0.6939
 1415TIP3    H128440   5.362   4.392  17.483  1.1244 -1.0067  0.9653
 1415TIP3    H228441   5.407   4.507  17.569  0.0582  1.0948 -1.1775
 1416TIP3   OH228442   1.214   3.461  17.385  0.8216 -0.1985  0.5924
 1416TIP3    H128443   1.233   3.458  17.291 -0.6973  0.5653  0.2297
 1416TIP3    H228444   1.301   3.465  17.427  1.5081  0.9559 -0.8402
 1417TIP3   OH228445   4.207   3.735  17.746  0.1168 -0.3040  0.4909
 1417TIP3    H128446   4.254   3.703  17.670 -2.2511 -1.5889 -0.5431
 1417TIP3    H228447   4.222   3.830  17.746 -0.0638 -0.2358 -1.7667
 1418TIP3   OH228448   4.620   6.685  17.206  0.2415  0.5839 -0.6630
 1418TIP3    H128449   4.634   6.779  17.199  0.7380  0.4047 -2.5338
 1418TIP3    H228450   4.538   6.670  17.159 -1.0586  0.3233  1.5426
 1419TIP3   OH228451   0.109   5.724  17.259 -0.0400 -0.2922  0.1775
 1419TIP3    H128452   0.024   5.767  17.269 -0.7088 -0.8083 -2.6064
 1419TIP3    H228453   0.094   5.634  17.288 -0.6577 -0.5591 -0.9260
 1420TIP3   OH228454   6.969   7.619  15.989  0.2228 -0.0076  0.3500
 1420TIP3    H128455   6.873   7.624  15.988  0.2660  1.1627  0.4001
 1420TIP3    H228456   6.989   7.548  16.050 -0.6081 -0.1394  0.4828
 1421TIP3   OH228457   7.587   2.055  17.362 -0.0411  1.0172 -0.1054
 1421TIP3    H128458   7.498   2.056  17.398  0.5173 -0.0909  1.4067
 1421TIP3    H228459   7.617   2.146  17.372 -0.5560  1.1245  0.6009
 1422TIP3   OH228460   3.107   8.204  17.068 -0.2793 -0.2422  0.0147
 1422TIP3    H128461   3.146   8.117  17.055 -0.9389 -0.4815 -0.4579
 1422TIP3    H228462   3.018   8.195  17.034  0.0500  0.9769 -1.2904
 1423TIP3   OH228463   4.432   6.541  17.384  0.0706 -0.2984 -0.0591
 1423TIP3    H128464   4.486   6.595  17.326  0.2811 -0.9790 -0.5153
 1423TIP3    H228465   4.492   6.509  17.451 -0.0135 -0.1031  0.1085
 1424TIP3   OH228466   4.277   8.418  17.004  0.8412  0.1692 -1.2360
 1424TIP3    H128467   4.288   8.413  16.909  0.6822 -0.6109 -1.2212
 1424TIP3    H228468   4.183   8.427  17.017  0.8206 -0.1457 -1.1460
 1425TIP3   OH228469   3.406   2.561  16.714 -0.3876  0.4819  0.2746
 1425TIP3    H128470   3.455   2.536  16.636 -0.1785 -0.7838  0.7880
 1425TIP3    H228471   3.315   2.566  16.684 -0.3245 -0.1002 -0.0389
 1426TIP3   OH228472   0.319   0.732  17.698  0.0050 -0.2821 -0.4918
 1426TIP3    H128473   0.293   0.682  17.776  0.0776  0.7536  0.2199
 1426TIP3    H228474   0.243   0.785  17.678  0.0365 -0.4491 -1.0609
 1427TIP3   OH228475   1.953   5.699  17.464 -0.7764 -0.3677 -0.6008
 1427TIP3    H128476   1.885   5.746  17.416 -0.4846  2.3737  1.3779
 1427TIP3    H228477   2.035   5.742  17.438 -0.2305 -1.1604 -0.2301
 1428TIP3   OH228478   1.612   5.668  17.600 -0.0390 -0.0066  0.1343
 1428TIP3    H128479   1.569   5.622  17.528  0.1022 -0.9405  0.6231
 1428TIP3    H228480   1.699   5.690  17.567 -0.5593  1.0623 -0.5433
 1429TIP3   OH228481   2.109   6.548  16.484 -0.2688 -0.1686 -0.3284
 1429TIP3    H128482   2.126   6.632  16.528  0.1642  0.4234 -1.5770
 1429TIP3    H228483   2.112   6.483  16.554  0.0483  0.7827  0.5643
 1430TIP3   OH228484   6.073   4.043  15.868 -0.2145  0.6002 -0.7421
 1430TIP3    H128485   6.036   4.106  15.807 -1.0125  0.5763 -0.2972
 1430TIP3    H228486   6.071   3.960  15.820 -0.3092  0.6865 -0.8892
 1431TIP3   OH228487   2.180   7.948  17.333 -0.4963 -0.0640  0.4438
 1431TIP3    H128488   2.272   7.954  17.310 -0.6856  1.8117 -0.0019
 1431TIP3    H228489   2.140   7.900  17.261  0.1681 -1.2095  0.8202
 1432TIP3   OH228490   5.059   0.597  16.418  0.5885  0.2382  0.1571
 1432TIP3    H128491   5.064   0.683  16.375  0.2288 -0.4427 -1.3012
 1432TIP3    H228492   4.986   0.605  16.479 -0.5000  0.5062 -1.1261
 1433TIP3   OH228493   4.369   0.222  16.491  0.9468 -0.0846  0.0312
 1433TIP3    H128494   4.359   0.291  16.425  0.3811  1.2480  1.4733
 1433TIP3    H228495   4.281   0.209  16.526  1.3801 -0.1929  1.1077
 1434TIP3   OH228496   2.582   3.223  17.441  0.0464 -0.2142 -0.2704
 1434TIP3    H128497   2.671   3.215  17.405 -0.3285  0.1434 -1.3364
 1434TIP3    H228498   2.533   3.152  17.400  0.2152 -1.4930  1.6322
 1435TIP3   OH228499   1.209   2.522  17.813  0.2482  0.0912 -0.2750
 1435TIP3    H128500   1.192   2.603  17.861  0.3242 -0.4110  0.6180
 1435TIP3    H228501   1.302   2.507  17.823 -0.1135 -1.2531  1.4437
 1436TIP3   OH228502   7.687   5.016  17.895 -0.5541  0.4918 -0.4164
 1436TIP3    H128503   7.674   5.000  17.802  0.3164  0.6096 -0.5622
 1436TIP3    H228504   7.638   5.097  17.912 -0.6655  0.5041 -0.7847
 1437TIP3   OH228505   1.643   7.252  16.463 -0.3115  0.1005 -0.3838
 1437TIP3    H128506   1.551   7.260  16.487 -0.2305 -1.3443  0.4991
 1437TIP3    H228507   1.676   7.181  16.518  1.3374  0.6018 -0.6814
 1438TIP3   OH228508   2.750   3.373  17.951 -0.0240 -0.6408 -0.3564
 1438TIP3    H128509   2.843   3.352  17.942  0.0658  0.2763 -2.0234
 1438TIP3    H228510   2.715   3.364  17.863 -0.8053  2.0455 -0.4258
 1439TIP3   OH228511   3.936   0.029  16.241  0.1080  0.1785 -0.6290
 1439TIP3    H128512   3.949  -0.011  16.327  1.5736 -0.0432 -0.9337
 1439TIP3    H228513   3.980   0.114  16.247 -0.4865  0.5099 -0.9087
 1440TIP3   OH228514   8.324   1.396  16.970  0.0844 -0.3858  0.1933
 1440TIP3    H128515   8.260   1.464  16.948 -0.5283 -1.1832 -0.5199
 1440TIP3    H228516   8.319   1.333  16.898  2.8440  0.3162 -0.7579
 1441TIP3   OH228517   7.699   4.262  16.448 -0.0282  0.7084  0.0635
 1441TIP3    H128518   7.689   4.303  16.362 -0.9271  1.4742  0.5211
 1441TIP3    H228519   7.750   4.325  16.499  0.9973  0.0077 -0.0582
 1442TIP3   OH228520   1.242   6.792  16.265 -0.2916  0.0874 -0.4005
 1442TIP3    H128521   1.223   6.831  16.180  1.2078  0.0251 -0.7941
 1442TIP3    H228522   1.336   6.806  16.278 -0.6939  1.2739  1.8605
 1443TIP3   OH228523   5.861   3.135  16.368 -0.2735  0.2772  0.3176
 1443TIP3    H128524   5.875   3.130  16.273 -0.2664 -0.5893  0.3543
 1443TIP3    H228525   5.942   3.171  16.402 -0.3641  0.8193 -0.0294
 1444TIP3   OH228526   6.365   6.675  17.320 -0.0794  0.3678  0.8817
 1444TIP3    H128527   6.275   6.687  17.290 -0.6462  2.7852  3.1104
 1444TIP3    H228528   6.356   6.644  17.410  1.4219 -1.7784  0.3630
 1445TIP3   OH228529   3.938   1.285  17.825 -0.1633 -0.2438 -0.1784
 1445TIP3    H128530   3.977   1.348  17.886  1.0536 -1.0490 -0.0833
 1445TIP3    H228531   3.954   1.323  17.738  1.0058 -0.6219 -0.1504
 1446TIP3   OH228532   7.077   0.329  16.176 -0.0346  0.3831  0.0736
 1446TIP3    H128533   7.057   0.422  16.178 -0.2315  0.3312  0.7670
 1446TIP3    H228534   7.005   0.288  16.224  1.7313  0.2004  2.7522
 1447TIP3   OH228535   7.969   2.224  15.486 -0.0498 -0.4099  0.4409
 1447TIP3    H128536   7.880   2.194  15.505  0.8639 -1.4769  3.7586
 1447TIP3    H228537   8.018   2.144  15.466  0.6578 -0.1543  1.1006
 1448TIP3   OH228538   7.831   0.865  16.298 -0.0915 -1.2865 -0.1122
 1448TIP3    H128539   7.760   0.920  16.332  0.3658 -0.6105 -0.2367
 1448TIP3    H228540   7.796   0.829  16.217 -0.1458 -0.6380 -0.3787
 1449TIP3   OH228541   1.583   2.286  16.451  0.0630  0.0311  0.4877
 1449TIP3    H128542   1.674   2.257  16.436 -0.0825 -0.1484 -0.0886
 1449TIP3    H228543   1.551   2.309  16.364  0.1653  1.9566  0.9048
 1450TIP3   OH228544   4.326   7.771  15.868  0.1348 -0.0886 -0.1614
 1450TIP3    H128545   4.281   7.754  15.785  0.1837  0.7476 -0.3670
 1450TIP3    H228546   4.257   7.800  15.927  0.2575  0.3245 -0.2171
 1451TIP3   OH228547   7.433   2.327  17.027  0.2069  0.1362 -0.0851
 1451TIP3    H128548   7.507   2.388  17.021  0.0301  0.5894  1.9248
 1451TIP3    H228549   7.360   2.380  17.060 -1.0282 -0.3345 -1.8961
 1452TIP3   OH228550   4.515   3.511  16.549  0.2801 -0.1592 -0.2056
 1452TIP3    H128551   4.609   3.493  16.545  0.1725 -0.6224 -0.7538
 1452TIP3    H228552   4.482   3.492  16.461 -0.3656 -0.2164  0.0369
 1453TIP3   OH228553   4.151   6.780  16.511  0.3529 -0.0465 -0.2793
 1453TIP3    H128554   4.203   6.730  16.448  1.7043  0.9492  0.0099
 1453TIP3    H228555   4.162   6.871  16.485 -1.5413  0.1867 -0.3980
 1454TIP3   OH228556   5.880   4.414  17.707 -0.1528 -0.0168  0.5187
 1454TIP3    H128557   5.894   4.500  17.667 -1.0683  0.2235  0.6833
 1454TIP3    H228558   5.967   4.375  17.713  0.0853  0.2281 -1.0578
 1455TIP3   OH228559   0.744   4.427  17.999 -0.1659 -0.4475 -0.3555
 1455TIP3    H128560   0.790   4.363  17.945 -1.4184 -0.7060 -1.1587
 1455TIP3    H228561   0.810   4.459  18.061  0.6485 -2.0034 -0.3897
 1456TIP3   OH228562   6.430   1.280  17.062 -0.4357 -0.2218 -0.3760
 1456TIP3    H128563   6.411   1.258  16.970 -0.7392  0.8735 -0.5941
 1456TIP3    H228564   6.434   1.375  17.063  0.7769 -0.2609  0.5260
 1457TIP3   OH228565   3.147   7.510  17.368 -0.2423 -0.0245 -0.7480
 1457TIP3    H128566   3.079   7.555  17.318  0.2162  0.2074 -1.1719
 1457TIP3    H228567   3.133   7.418  17.350 -0.5005  0.0176 -0.7619
 1458TIP3   OH228568   6.795   4.854  16.450 -0.2244 -0.0784 -0.2485
 1458TIP3    H128569   6.732   4.804  16.501 -1.3994  0.8578 -0.7470
 1458TIP3    H228570   6.863   4.790  16.426 -0.6963 -0.9766  0.7405
 1459TIP3   OH228571   1.493   2.045  16.791  0.0369  0.4524  0.2037
 1459TIP3    H128572   1.411   2.035  16.838 -0.4310  1.3598 -0.3927
 1459TIP3    H228573   1.468   2.050  16.699  0.7157  1.0255  0.0334
 1460TIP3   OH228574   2.052   6.072  17.541 -0.4785 -0.3162 -0.0730
 1460TIP3    H128575   2.125   6.126  17.512 -1.1614  0.5698 -0.2039
 1460TIP3    H228576   2.091   6.009  17.602  0.2274  0.8615  0.7415
 1461TIP3   OH228577   0.511   8.013  17.180  0.1987  0.2119 -0.5561
 1461TIP3    H128578   0.547   7.929  17.150 -2.8439 -0.9713 -1.3145
 1461TIP3    H228579   0.531   8.074  17.110  2.4902  0.2195  0.0178
 1462TIP3   OH228580   6.343   5.588  17.200 -0.1497 -0.2160  0.2161
 1462TIP3    H128581   6.260   5.556  17.165 -0.5837 -1.1914  1.9752
 1462TIP3    H228582   6.382   5.511  17.243  2.3484 -0.1445 -1.6843
 1463TIP3   OH228583   4.525   7.138  18.042  0.5167  0.6090  0.7622
 1463TIP3    H128584   4.617   7.153  18.020  0.5050  0.5076  0.6388
 1463TIP3    H228585   4.476   7.187  17.976  0.4770 -0.2803  0.1015
 1464TIP3   OH228586   0.054   7.601  15.919  0.1741 -0.1069  0.1111
 1464TIP3    H128587   0.089   7.532  15.975  1.0670 -0.5345 -0.9532
 1464TIP3    H228588  -0.030   7.624  15.959 -0.5606 -2.4051  0.0068
 1465TIP3   OH228589   7.742   8.032  17.037 -0.2072  0.3048  0.1475
 1465TIP3    H128590   7.714   7.972  16.968 -0.0113 -1.2663  1.3805
 1465TIP3    H228591   7.662   8.078  17.063 -0.6591 -0.4577  0.1474
 1466TIP3   OH228592   3.629   5.529  17.525  0.2024  0.3750  0.5432
 1466TIP3    H128593   3.617   5.623  17.517 -0.4163  0.1463 -2.1294
 1466TIP3    H228594   3.564   5.502  17.590 -0.7241  1.5934  0.1582
 1467TIP3   OH228595   4.879   7.264  15.815  0.0405 -0.8003 -0.3309
 1467TIP3    H128596   4.807   7.269  15.878  1.1774 -0.2084  0.9934
 1467TIP3    H228597   4.873   7.176  15.778 -0.0407 -1.5700  1.4117
 1468TIP3   OH228598   6.254   0.660  17.799 -0.3028 -0.1972  0.0503
 1468TIP3    H128599   6.271   0.747  17.764  2.5908 -1.1053 -1.0990
 1468TIP3    H228600   6.265   0.601  17.725  0.6912 -1.7455  1.3465
 1469TIP3   OH228601   0.774   3.521  17.089 -0.2554 -0.2607  0.0815
 1469TIP3    H128602   0.804   3.445  17.038 -1.0118 -0.3938 -0.1738
 1469TIP3    H228603   0.833   3.524  17.164 -1.0122 -1.8595  0.7670
 1470TIP3   OH228604   6.061   6.369  17.033  0.0479 -0.5368 -0.3184
 1470TIP3    H128605   6.046   6.319  17.114 -0.8458  0.4983  0.1808
 1470TIP3    H228606   5.982   6.357  16.982 -1.0682  1.9295  0.6861
 1471TIP3   OH228607   5.264   8.332  17.439 -0.0267 -0.1414  0.2992
 1471TIP3    H128608   5.297   8.247  17.409  0.0862  0.2257 -0.6767
 1471TIP3    H228609   5.169   8.324  17.429 -0.0698 -0.3836  0.8644
 1472TIP3   OH228610   2.509   6.562  16.706 -0.0876 -0.0424 -0.4860
 1472TIP3    H128611   2.580   6.574  16.642  0.1451  1.1850 -0.0389
 1472TIP3    H228612   2.460   6.645  16.702 -0.0257  0.0917  0.9609
 1473TIP3   OH228613   4.699   7.083  16.561 -0.1344 -0.1498  0.8339
 1473TIP3    H128614   4.619   7.055  16.606 -0.5815 -1.6566 -0.7681
 1473TIP3    H228615   4.761   7.012  16.575  1.0142  1.0634  2.1598
 1474TIP3   OH228616   1.944   1.944  17.414  0.0842 -0.5154  0.4338
 1474TIP3    H128617   1.925   2.037  17.427 -0.6787 -0.5191 -0.5635
 1474TIP3    H228618   1.886   1.899  17.476 -1.2992 -0.4110 -0.7478
 1475TIP3   OH228619   2.758   1.220  15.492  0.1311 -0.4817  0.2482
 1475TIP3    H128620   2.790   1.303  15.456  1.6254 -1.0142  0.2866
 1475TIP3    H228621   2.665   1.218  15.469  0.1743  0.9826 -0.1595
 1476TIP3   OH228622   3.485   1.582  15.928  0.0328  0.0199 -0.5906
 1476TIP3    H128623   3.479   1.606  15.835  1.1792 -0.4813 -0.8188
 1476TIP3    H228624   3.565   1.530  15.933  2.0809  3.0286  1.3003
 1477TIP3   OH228625   0.769   0.464  15.888 -0.1883 -0.4908  0.0128
 1477TIP3    H128626   0.687   0.467  15.839  0.8033 -1.2127 -1.7778
 1477TIP3    H228627   0.800   0.374  15.877  0.7765 -0.2718  0.8053
 1478TIP3   OH228628   5.687   7.699  18.072  0.1051 -0.3018  0.0812
 1478TIP3    H128629   5.687   7.660  18.159  1.9853 -1.3342 -0.3246
 1478TIP3    H228630   5.623   7.648  18.023 -1.8805  1.0607  1.1106
 1479TIP3   OH228631   4.596   2.026  17.695  0.1962 -0.3202 -0.0614
 1479TIP3    H128632   4.617   1.976  17.773 -1.7718  0.0112  0.7401
 1479TIP3    H228633   4.527   1.975  17.652 -0.1022  0.4668 -0.5366
 1480TIP3   OH228634   3.051   6.757  16.495  0.6006  0.0414  0.2080
 1480TIP3    H128635   3.076   6.735  16.585  0.5148 -0.1633  0.1827
 1480TIP3    H228636   3.135   6.775  16.451  0.6258  0.3633  0.3876
 1481TIP3   OH228637   6.118   6.843  16.153 -0.1689 -0.5948  0.3444
 1481TIP3    H128638   6.141   6.925  16.108  0.4941 -1.1372 -0.3364
 1481TIP3    H228639   6.025   6.852  16.172  0.3299  1.2682  2.3133
 1482TIP3   OH228640   2.520   2.585  17.068 -0.5290  0.3363 -0.3821
 1482TIP3    H128641   2.514   2.540  16.984  2.1234  0.6995 -0.8591
 1482TIP3    H228642   2.445   2.645  17.068 -2.1029 -1.5084 -1.2585
 1483TIP3   OH228643   6.725   5.380  16.117  0.1685  0.8169  0.1361
 1483TIP3    H128644   6.642   5.333  16.124 -0.1984  1.4354  0.0761
 1483TIP3    H228645   6.720   5.448  16.184  0.3558  1.2496 -0.2770
 1484TIP3   OH228646   7.256   5.605  16.641 -0.8386  0.3939  0.1542
 1484TIP3    H128647   7.163   5.626  16.633 -0.9341  1.4173  2.7648
 1484TIP3    H228648   7.280   5.638  16.728  1.4507 -1.7179  0.4386
 1485TIP3   OH228649   5.879   7.287  16.534  0.3010  0.1404 -0.3314
 1485TIP3    H128650   5.881   7.243  16.619 -0.8368 -0.3205 -0.5238
 1485TIP3    H228651   5.968   7.321  16.522  0.3637  0.6116  1.2394
 1486TIP3   OH228652   8.174   5.523  17.182  0.0961 -0.1132  0.1678
 1486TIP3    H128653   8.260   5.549  17.150 -0.1803  1.8780  0.9042
 1486TIP3    H228654   8.117   5.597  17.161 -1.3561 -1.2282  0.0563
 1487TIP3   OH228655   1.424   1.866  17.235  0.2236  0.0035  0.1153
 1487TIP3    H128656   1.435   1.961  17.226  1.2441 -0.0300  0.9374
 1487TIP3    H228657   1.360   1.856  17.305  0.2053  0.0711  0.1088
 1488TIP3   OH228658   8.132   2.178  17.374  0.6320 -0.1124  0.5771
 1488TIP3    H128659   8.067   2.166  17.444 -0.5125  0.1457 -0.4089
 1488TIP3    H228660   8.189   2.249  17.406  0.1434 -0.0174  1.2628
 1489TIP3   OH228661   6.561   2.686  15.493  0.6619  0.3196 -0.3561
 1489TIP3    H128662   6.556   2.646  15.580 -1.2903  0.0749 -0.5336
 1489TIP3    H228663   6.470   2.710  15.473  0.9363 -0.3700 -2.6738
 1490TIP3   OH228664   5.316   7.408  16.183  0.8313  0.7206 -0.1781
 1490TIP3    H128665   5.371   7.333  16.159 -0.3712 -0.4477  0.5795
 1490TIP3    H228666   5.239   7.369  16.224  0.3038  2.4001  0.5079
 1491TIP3   OH228667   8.124   8.318  17.794 -0.5599  0.0430 -0.0697
 1491TIP3    H128668   8.155   8.388  17.852 -0.5495 -0.7865  0.9659
 1491TIP3    H228669   8.203   8.270  17.769 -0.7998 -1.1858  1.3884
 1492TIP3   OH228670   4.216   7.345  16.820  0.4480  0.3007 -0.0157
 1492TIP3    H128671   4.300   7.388  16.834  1.8918 -2.5750  0.9052
 1492TIP3    H228672   4.166   7.362  16.900  1.1623 -0.0351  0.5098
 1493TIP3   OH228673   6.695   5.997  17.729 -0.0318 -0.0259 -0.5936
 1493TIP3    H128674   6.762   6.024  17.791  2.0328 -1.0360 -2.2467
 1493TIP3    H228675   6.682   5.904  17.748 -2.5546  0.5612  1.0289
 1494TIP3   OH228676   0.275   7.646  16.562 -0.3634  0.6878 -0.0734
 1494TIP3    H128677   0.277   7.563  16.609  2.2158  0.8853  0.3561
 1494TIP3    H228678   0.272   7.713  16.630 -2.6460  1.0142 -0.4187
 1495TIP3   OH228679   8.007   7.245  16.610 -0.3167  0.0833 -0.6254
 1495TIP3    H128680   7.997   7.181  16.680  1.5397  2.6834  2.2706
 1495TIP3    H228681   7.919   7.256  16.574 -1.6129 -0.5045  2.1451
 1496TIP3   OH228682   0.186   0.417  16.472 -0.3460 -0.2066 -0.3583
 1496TIP3    H128683   0.129   0.345  16.496 -0.1358  0.3150  1.9215
 1496TIP3    H228684   0.233   0.438  16.552  1.9050  0.4217 -1.7652
 1497TIP3   OH228685   2.958   4.841  16.546 -0.3564 -0.4386  0.2167
 1497TIP3    H128686   2.914   4.848  16.630  0.3611 -1.2388  0.6694
 1497TIP3    H228687   2.967   4.747  16.531  2.4376 -0.3525  0.8276
 1498TIP3   OH228688   1.086   1.905  16.264  0.0447  0.0544  0.4101
 1498TIP3    H128689   1.067   1.932  16.175 -2.4777 -0.1066  0.8401
 1498TIP3    H228690   1.174   1.940  16.281  1.2406 -1.1753 -2.5687
 1499TIP3   OH228691   3.358   0.619  16.970 -0.0566 -0.2193  0.6251
 1499TIP3    H128692   3.271   0.645  17.000 -0.2246  2.6008 -1.8174
 1499TIP3    H228693   3.407   0.600  17.050 -2.5663 -0.8194  2.1153
 1500TIP3   OH228694   1.642   5.637  16.653  0.6163 -0.3030  0.1917
 1500TIP3    H128695   1.664   5.586  16.575 -0.7212 -1.3251  0.4378
 1500TIP3    H228696   1.557   5.676  16.633  0.6148  0.0456  0.8425
 1501TIP3   OH228697   2.836   3.132  17.402  0.1563  0.7886  0.6263
 1501TIP3    H128698   2.886   3.205  17.365  0.3179  0.4862  0.2386
 1501TIP3    H228699   2.853   3.059  17.343 -0.0934  0.4640  0.9490
 1502TIP3   OH228700   5.670   3.704  17.635  0.4471  0.3533  0.2301
 1502TIP3    H128701   5.756   3.682  17.597  0.3505  1.1440 -0.4651
 1502TIP3    H228702   5.669   3.658  17.718  1.2341 -0.3067 -0.1060
 1503TIP3   OH228703   3.983   3.521  17.410 -0.0196  0.0156 -0.3456
 1503TIP3    H128704   3.941   3.444  17.448 -0.9298  0.3282 -0.6899
 1503TIP3    H228705   3.915   3.588  17.411 -0.0638  0.0492 -2.4669
 1504TIP3   OH228706   0.210   8.226  17.741 -0.8807 -0.0012 -0.2208
 1504TIP3    H128707   0.259   8.307  17.758 -1.2912  0.1874  0.0648
 1504TIP3    H228708   0.127   8.255  17.704 -1.0424 -0.2921 -0.0897
 1505TIP3   OH228709   7.132   6.090  17.222  0.2696 -0.2266 -0.1903
 1505TIP3    H128710   7.201   6.037  17.182 -0.5672 -0.2347 -1.7314
 1505TIP3    H228711   7.099   6.037  17.294  0.5839 -1.0796 -0.6572
 1506TIP3   OH228712   5.169   8.177  18.068  0.4444 -0.5484  0.0106
 1506TIP3    H128713   5.131   8.179  17.980  3.1674  3.1944 -1.3639
 1506TIP3    H228714   5.146   8.262  18.106  2.0000 -0.7822  1.6011
 1507TIP3   OH228715   1.243   4.986  17.721 -0.1954 -0.3372  0.2836
 1507TIP3    H128716   1.306   4.963  17.653 -1.5709 -2.3901 -0.4125
 1507TIP3    H228717   1.171   5.026  17.674 -1.0685 -1.5865  0.4969
 1508TIP3   OH228718   1.781   0.970  16.817  0.1424 -0.0811 -0.0998
 1508TIP3    H128719   1.870   0.955  16.786 -0.0454 -0.0337 -0.6905
 1508TIP3    H228720   1.733   0.994  16.738  0.1875  2.5576  0.5497
 1509TIP3   OH228721   6.745   2.836  15.974  0.2825  0.7836  0.1857
 1509TIP3    H128722   6.789   2.832  15.889  0.6864  0.6847  0.3946
 1509TIP3    H228723   6.652   2.825  15.954  0.5614 -1.7058 -0.0208
 1510TIP3   OH228724   1.383   1.942  16.313  0.1694  0.1240  0.3390
 1510TIP3    H128725   1.392   1.990  16.396 -1.6505  0.3245  0.4600
 1510TIP3    H228726   1.442   1.987  16.253 -1.0446  2.2210  0.6098
 1511TIP3   OH228727   3.094   2.213  16.122 -0.6108 -0.1573 -0.1198
 1511TIP3    H128728   3.062   2.301  16.142  0.4877  0.2726 -0.1641
 1511TIP3    H228729   3.189   2.219  16.133 -0.3571 -0.9361 -1.5876
 1512TIP3   OH228730   4.091   1.525  16.487  0.0389 -0.0522 -0.1360
 1512TIP3    H128731   4.130   1.568  16.412  1.3499  0.6901  0.9197
 1512TIP3    H228732   4.164   1.480  16.530 -0.5425  0.0786  1.0450
 1513TIP3   OH228733   1.694   0.317  16.888  0.0704 -0.5935 -0.3296
 1513TIP3    H128734   1.695   0.222  16.879  1.1300 -0.7387  0.9138
 1513TIP3    H228735   1.747   0.349  16.815  1.9451 -1.1690  0.7106
 1514TIP3   OH228736   3.864   2.294  16.265  0.0259  0.4418  0.4088
 1514TIP3    H128737   3.865   2.244  16.183  0.0835  2.2826 -0.7819
 1514TIP3    H228738   3.864   2.228  16.334 -0.0330 -1.1723 -1.0761
 1515TIP3   OH228739   8.448   7.232  17.377  0.1679  0.4585 -0.3268
 1515TIP3    H128740   8.439   7.323  17.350  1.7778  0.3611 -1.2975
 1515TIP3    H228741   8.537   7.225  17.411  0.3419 -0.8992 -0.9638
 1516TIP3   OH228742   4.636   4.793  15.809 -0.3343 -0.7351  0.4478
 1516TIP3    H128743   4.590   4.835  15.736  0.9491  0.0261  0.0477
 1516TIP3    H228744   4.610   4.844  15.885 -0.2417 -0.3708  0.2389
 1517TIP3   OH228745   8.231   1.527  17.538  0.2783 -0.4562 -0.0703
 1517TIP3    H128746   8.220   1.433  17.526  0.1385 -0.3228 -1.0472
 1517TIP3    H228747   8.256   1.560  17.452  0.2294  0.4172  0.2371
 1518TIP3   OH228748   2.460   3.452  16.903 -0.3035  0.2187 -0.2295
 1518TIP3    H128749   2.528   3.485  16.962 -1.1222  1.4668  0.0463
 1518TIP3    H228750   2.470   3.357  16.907  1.0075  0.3518  0.2915
 1519TIP3   OH228751   5.242   4.787  17.069 -0.2683  0.6639  0.1637
 1519TIP3    H128752   5.330   4.761  17.097  0.2748  0.0061 -1.9669
 1519TIP3    H228753   5.187   4.713  17.094 -0.0401  0.6318  0.5884
 1520TIP3   OH228754   0.450   7.829  17.700  0.1936 -0.1616  0.1605
 1520TIP3    H128755   0.424   7.778  17.623  0.2031  2.1402 -1.4647
 1520TIP3    H228756   0.387   7.804  17.768 -1.2015 -0.6589 -1.2658
 1521TIP3   OH228757   0.614   7.599  15.980 -0.3162  0.6753  0.0246
 1521TIP3    H128758   0.551   7.662  16.015 -0.5140 -0.0009  0.9291
 1521TIP3    H228759   0.561   7.524  15.955  0.1610 -0.1172  1.2971
 1522TIP3   OH228760   6.591   2.428  16.923 -0.1177 -0.0857  0.4376
 1522TIP3    H128761   6.498   2.406  16.913 -0.2864  1.0908 -1.0520
 1522TIP3    H228762   6.637   2.355  16.884 -0.3893 -0.7956  1.4104
 1523TIP3   OH228763   4.058   0.975  15.968  0.2413 -0.0873  0.0282
 1523TIP3    H128764   4.056   0.998  15.876  0.1389  0.2996  0.1283
 1523TIP3    H228765   3.981   0.919  15.980  1.1477 -1.4950 -0.4733
 1524TIP3   OH228766   6.699   7.777  15.842  0.6817  1.0383  0.3245
 1524TIP3    H128767   6.786   7.806  15.815  2.0341 -3.3586 -0.9652
 1524TIP3    H228768   6.716   7.712  15.910 -1.2304 -1.8139 -1.6824
 1525TIP3   OH228769   5.237   3.588  16.288 -0.3229 -0.2366  0.0983
 1525TIP3    H128770   5.261   3.532  16.361 -0.6148  0.6355  0.8975
 1525TIP3    H228771   5.268   3.675  16.313  0.2253 -0.0395 -1.1553
 1526TIP3   OH228772   1.277   1.366  16.636  0.1405 -0.0712  0.4944
 1526TIP3    H128773   1.354   1.395  16.587  0.9967 -3.7681 -0.6589
 1526TIP3    H228774   1.221   1.324  16.571 -1.6988  0.3124  1.7479
 1527TIP3   OH228775   1.099   5.996  16.436  0.0441 -0.0783 -0.2280
 1527TIP3    H128776   1.052   5.919  16.467 -0.0694  0.0179 -0.1597
 1527TIP3    H228777   1.037   6.068  16.446  1.1286  0.6068  2.7200
 1528TIP3   OH228778   1.950   6.581  17.174  0.2774  0.1341 -0.5348
 1528TIP3    H128779   1.932   6.667  17.138  0.5973 -0.3274 -1.8422
 1528TIP3    H228780   2.028   6.593  17.228  0.3262  0.6532 -0.7206
 1529TIP3   OH228781   7.939   2.752  15.914 -0.0126  0.5395  0.5449
 1529TIP3    H128782   7.955   2.790  15.827 -0.0827  1.0804  0.7617
 1529TIP3    H228783   7.868   2.690  15.900  0.1974  0.3831  0.1540
 1530TIP3   OH228784   7.158   6.805  16.963  0.0633  0.4078 -0.0788
 1530TIP3    H128785   7.191   6.806  16.873 -1.0424  0.2207 -0.5011
 1530TIP3    H228786   7.235   6.784  17.016  0.2727 -2.0407 -1.2078
 1531TIP3   OH228787   3.220   6.809  17.163  0.2367 -0.2606 -0.8430
 1531TIP3    H128788   3.302   6.849  17.134  1.3865 -2.4706 -0.8243
 1531TIP3    H228789   3.202   6.741  17.099 -0.6460 -0.9458  0.1019
 1532TIP3   OH228790   4.953   6.205  15.771  0.3208  0.3073 -0.5214
 1532TIP3    H128791   4.903   6.167  15.843 -1.2090 -0.4156 -1.9092
 1532TIP3    H228792   5.037   6.158  15.774  0.3115  0.3217  0.7741
 1533TIP3   OH228793   7.190   4.052  16.466 -0.4855 -0.1834 -0.1457
 1533TIP3    H128794   7.225   4.026  16.380  0.3479 -0.7889  0.3622
 1533TIP3    H228795   7.109   4.002  16.473 -0.4402 -0.3168 -0.4869
 1534TIP3   OH228796   0.794   3.853  15.785  0.7182  0.2620  0.0188
 1534TIP3    H128797   0.760   3.933  15.745 -0.7142 -0.3861 -0.1321
 1534TIP3    H228798   0.873   3.833  15.734 -0.8390 -0.3291 -2.3630
 1535TIP3   OH228799   1.019   2.055  17.500  0.4501 -0.2257  0.6616
 1535TIP3    H128800   0.955   2.093  17.439 -0.8183 -2.0382  0.7885
 1535TIP3    H228801   1.038   2.127  17.561  1.0533  1.3510 -1.2594
 1536TIP3   OH228802   2.483   6.283  16.595  0.0618 -0.3893 -0.1278
 1536TIP3    H128803   2.457   6.366  16.634 -0.0803 -1.3498  1.9744
 1536TIP3    H228804   2.569   6.265  16.632 -0.3766 -1.6728  0.3196
 1537TIP3   OH228805   7.881   1.856  17.180  0.2543  0.0693 -0.0247
 1537TIP3    H128806   7.800   1.805  17.182  1.3344 -1.7218  0.7281
 1537TIP3    H228807   7.904   1.859  17.087  0.9878 -2.3179  0.0045
 1538TIP3   OH228808   4.161   0.623  17.305  0.1413 -0.5712  0.2185
 1538TIP3    H128809   4.128   0.697  17.253 -1.6376  0.1870  2.2958
 1538TIP3    H228810   4.256   0.635  17.305 -0.0818  1.5941  0.3054
 1539TIP3   OH228811   2.896   1.385  16.775 -0.0429 -0.2217  0.2999
 1539TIP3    H128812   2.958   1.312  16.780  1.9996  1.5426  2.3761
 1539TIP3    H228813   2.928   1.439  16.703  1.2974  1.0228  1.7796
 1540TIP3   OH228814   0.702   8.183  17.712 -0.4051 -0.5759 -0.2556
 1540TIP3    H128815   0.610   8.157  17.702 -1.1179  0.5345  2.4865
 1540TIP3    H228816   0.741   8.112  17.764  0.3681 -1.0977 -1.5011
 1541TIP3   OH228817   6.109   2.247  17.516  0.1379  0.3132  0.6064
 1541TIP3    H128818   6.112   2.211  17.605 -1.1059  2.1595  1.4619
 1541TIP3    H228819   6.058   2.183  17.466 -2.9297  1.2184  2.3127
 1542TIP3   OH228820   0.616   3.488  15.386  0.2500  0.3225 -0.6507
 1542TIP3    H128821   0.646   3.579  15.392 -1.9769  1.0430  1.0409
 1542TIP3    H228822   0.524   3.495  15.363  0.4914 -1.6528 -2.5753
 1543TIP3   OH228823   5.591   5.352  16.106  0.6297 -0.0748  0.3840
 1543TIP3    H128824   5.596   5.314  16.193 -1.6755 -0.5585  0.3739
 1543TIP3    H228825   5.498   5.365  16.090  0.9536 -0.1645 -2.0821
 1544TIP3   OH228826   1.396   5.138  16.152  0.1501  0.1000 -0.4996
 1544TIP3    H128827   1.352   5.079  16.090  0.7041 -1.0995  0.2115
 1544TIP3    H228828   1.484   5.103  16.161 -0.2848 -0.6037  1.9587
 1545TIP3   OH228829   7.958   1.619  16.364 -0.5078  0.3761  0.1585
 1545TIP3    H128830   7.873   1.656  16.340 -0.1634  1.4131  0.4878
 1545TIP3    H228831   7.949   1.597  16.456 -0.2346  1.0657  0.3585
 1546TIP3   OH228832   3.068   1.713  17.166 -0.1264  0.2125 -0.2910
 1546TIP3    H128833   2.987   1.702  17.118  0.5860  0.8358 -1.6965
 1546TIP3    H228834   3.050   1.678  17.253 -1.0971 -2.1388 -1.3558
 1547TIP3   OH228835   3.457   0.218  17.080  0.4824 -0.3896 -0.5724
 1547TIP3    H128836   3.431   0.129  17.105  1.8757 -0.2806  1.5684
 1547TIP3    H228837   3.399   0.275  17.132 -0.6741  0.0236 -2.2261
 1548TIP3   OH228838   6.235   2.852  16.437  0.3854 -0.9241 -0.0515
 1548TIP3    H128839   6.250   2.757  16.440  1.4059 -0.7536  2.7420
 1548TIP3    H228840   6.168   2.868  16.503  2.0662  0.5492  1.3852
 1549TIP3   OH228841   1.661   1.606  17.331  0.0518  0.1910  0.0284
 1549TIP3    H128842   1.579   1.629  17.375  0.9955  2.0287  0.8888
 1549TIP3    H228843   1.660   1.656  17.250  0.9844  1.4248  0.7502
 1550TIP3   OH228844   2.957   5.092  16.384 -0.3351 -0.1929 -0.2679
 1550TIP3    H128845   3.037   5.144  16.382 -0.0467 -0.6559 -1.0508
 1550TIP3    H228846   2.979   5.016  16.439  0.0705 -0.7907 -1.2324
 1551TIP3   OH228847   6.955   6.302  17.183  0.9011 -0.3551  0.1181
 1551TIP3    H128848   7.003   6.384  17.180  1.2221 -0.5668 -1.1923
 1551TIP3    H228849   7.020   6.236  17.205  0.9370 -0.4576 -0.2947
 1552TIP3   OH228850   0.445   6.476  16.472 -0.0003 -0.1619 -0.4511
 1552TIP3    H128851   0.447   6.387  16.507  2.3184  0.3088  0.8454
 1552TIP3    H228852   0.399   6.527  16.539 -0.7530 -0.2586 -0.8873
 1553TIP3   OH228853   0.501   6.425  17.137  0.7194  0.3191 -0.1625
 1553TIP3    H128854   0.434   6.491  17.118  0.8270  0.7362  0.7887
 1553TIP3    H228855   0.520   6.438  17.230  1.9848  0.0815 -0.3762
 1554TIP3   OH228856   6.702   2.564  17.476  0.0543  1.0927  0.4443
 1554TIP3    H128857   6.682   2.494  17.415  0.8550  0.4654  0.8803
 1554TIP3    H228858   6.791   2.590  17.454  0.7547  0.1421  1.9908
 1555TIP3   OH228859   7.279   0.764  16.587  0.0596 -0.1133 -0.5551
 1555TIP3    H128860   7.294   0.850  16.547 -0.5868  1.2225  1.8597
 1555TIP3    H228861   7.366   0.731  16.609  0.3102 -0.0954 -1.4915
 1556TIP3   OH228862   0.130   4.987  17.576  0.0899  0.2118 -0.0692
 1556TIP3    H128863   0.215   5.022  17.605  1.3204 -2.2807 -0.4189
 1556TIP3    H228864   0.106   4.923  17.643 -0.0382 -1.2213 -1.4213
 1557TIP3   OH228865   2.543   0.433  16.877  0.0324  0.1594 -0.3012
 1557TIP3    H128866   2.562   0.350  16.920 -0.9189  0.4910  0.8160
 1557TIP3    H228867   2.547   0.498  16.948 -0.9485  0.8178 -0.8256
 1558TIP3   OH228868   1.418   2.706  17.144 -0.7315 -0.1682 -1.0998
 1558TIP3    H128869   1.453   2.663  17.066  2.3611  1.9938 -1.0788
 1558TIP3    H228870   1.347   2.761  17.112 -2.3394 -2.3955 -1.6403
 1559TIP3   OH228871   0.631   8.438  17.762 -0.7601  0.3452  0.1698
 1559TIP3    H128872   0.694   8.365  17.769  0.5563  1.6367  3.5807
 1559TIP3    H228873   0.545   8.396  17.768 -0.1326 -1.0718 -0.1497
 1560TIP3   OH228874   1.341   8.158  15.984  0.1327 -0.0770  0.3293
 1560TIP3    H128875   1.415   8.166  16.044  0.3086 -0.5885  0.1867
 1560TIP3    H228876   1.367   8.089  15.923  0.5077  1.3461 -1.1748
 1561TIP3   OH228877   1.248   6.637  16.689 -0.1476  0.0732 -0.3455
 1561TIP3    H128878   1.251   6.592  16.774 -0.3019 -2.4638 -1.6008
 1561TIP3    H228879   1.219   6.726  16.710 -2.8902 -1.2248  1.9875
 1562TIP3   OH228880   1.119   4.075  16.338  1.0964  0.5752  0.4518
 1562TIP3    H128881   1.177   4.095  16.265  0.5362  1.4787  0.2349
 1562TIP3    H228882   1.035   4.056  16.297  0.7594  1.1637  0.8620
 1563TIP3   OH228883   7.731   2.181  15.589 -0.0378 -0.2469 -0.2191
 1563TIP3    H128884   7.712   2.254  15.529  1.0228 -0.1382 -0.4370
 1563TIP3    H228885   7.653   2.175  15.645 -0.5608  0.3940 -0.8619
 1564TIP3   OH228886   5.933   3.949  16.767  0.0482  0.1243  0.4657
 1564TIP3    H128887   5.945   3.918  16.856  1.5927  0.0534  0.2685
 1564TIP3    H228888   5.934   4.045  16.774 -0.7947  0.1249  0.6259
 1565TIP3   OH228889   7.660   1.192  16.903 -0.2369  0.0738 -0.0917
 1565TIP3    H128890   7.712   1.257  16.856  1.1117 -1.0629 -0.2396
 1565TIP3    H228891   7.604   1.243  16.962  0.4204  1.3680 -0.5615
 1566TIP3   OH228892   3.655   4.894  16.149  0.2817 -0.0368 -0.6823
 1566TIP3    H128893   3.726   4.953  16.126  0.6256 -0.0409  0.3048
 1566TIP3    H228894   3.697   4.808  16.155  0.7902  0.3103  2.3617
 1567TIP3   OH228895   0.508   6.355  16.765 -0.3600  0.0733  0.1531
 1567TIP3    H128896   0.587   6.409  16.764  0.1903 -0.5994  2.1460
 1567TIP3    H228897   0.440   6.413  16.800 -0.2348  0.0532  0.4347
 1568TIP3   OH228898   5.158   7.462  17.479  0.7120  0.4598 -0.3133
 1568TIP3    H128899   5.159   7.379  17.430  3.5560  0.2113  0.0029
 1568TIP3    H228900   5.168   7.529  17.413 -1.0942  0.5736 -0.5216
 1569TIP3   OH228901   4.220   0.395  15.994  0.0022  0.2735 -0.0002
 1569TIP3    H128902   4.314   0.405  15.982  0.1277 -0.0030  0.7289
 1569TIP3    H228903   4.184   0.400  15.905  0.7519 -0.1797 -0.3366
 1570TIP3   OH228904   6.090   6.117  16.725  0.2024 -0.1800 -0.6202
 1570TIP3    H128905   6.043   6.160  16.654  0.5315 -1.2661 -1.5292
 1570TIP3    H228906   6.103   6.027  16.694  0.7838 -0.5438  0.6120
 1571TIP3   OH228907   1.670   2.019  15.442  0.3661  0.5154  0.0206
 1571TIP3    H128908   1.740   2.084  15.453  0.0476  0.5756  1.8823
 1571TIP3    H228909   1.704   1.940  15.483  0.4570 -0.3375 -1.6059
 1572TIP3   OH228910   7.719   4.329  17.516  0.0395 -0.2539 -0.3921
 1572TIP3    H128911   7.809   4.360  17.502  0.1591 -0.9771 -1.3330
 1572TIP3    H228912   7.669   4.409  17.530  0.4323  0.3747 -2.2459
 1573TIP3   OH228913   0.860   2.212  17.316 -0.0884  0.2586  0.2993
 1573TIP3    H128914   0.908   2.295  17.314  0.0517  0.2024  1.1269
 1573TIP3    H228915   0.769   2.237  17.297  0.2214  0.3831 -1.1067
 1574TIP3   OH228916   1.612   4.963  16.846  0.3048 -0.0587  0.3389
 1574TIP3    H128917   1.519   4.983  16.860 -0.4285 -1.4442 -1.9368
 1574TIP3    H228918   1.626   4.881  16.893  0.1589 -0.2318  0.0866
 1575TIP3   OH228919   8.214   4.806  17.848  0.4531 -0.0299 -0.6173
 1575TIP3    H128920   8.211   4.721  17.891  2.3339  1.1606  2.1031
 1575TIP3    H228921   8.124   4.839  17.856  0.1865 -0.8891  0.1399
 1576TIP3   OH228922   2.541   0.941  16.747 -0.7101  0.0531  0.0708
 1576TIP3    H128923   2.522   0.921  16.655  2.3579 -0.5745 -0.5307
 1576TIP3    H228924   2.505   0.867  16.796 -1.9136  0.1393 -0.6418
 1577TIP3   OH228925   8.124   6.763  16.826  0.5299  0.5635  0.1262
 1577TIP3    H128926   8.077   6.689  16.788 -1.0827  1.1487  0.9283
 1577TIP3    H228927   8.065   6.798  16.892  2.5186  0.6839  1.9401
 1578TIP3   OH228928   5.184   4.190  16.586 -0.6763 -0.0454  0.4263
 1578TIP3    H128929   5.198   4.238  16.668  2.0798  1.0822 -0.5903
 1578TIP3    H228930   5.123   4.245  16.537  0.0793  0.8841  0.4994
 1579TIP3   OH228931   5.725   1.431  17.926 -0.4497 -0.0975  0.4815
 1579TIP3    H128932   5.815   1.409  17.905 -1.0857 -1.4126 -1.1841
 1579TIP3    H228933   5.710   1.516  17.884 -0.7761 -1.2528 -1.9510
 1580TIP3   OH228934   8.153   4.360  16.176  0.5231 -0.3941  0.4141
 1580TIP3    H128935   8.239   4.318  16.169  0.8216  0.5077 -3.1685
 1580TIP3    H228936   8.099   4.316  16.110 -1.3458  0.0698  1.5602
 1581TIP3   OH228937   5.652   4.754  17.630 -0.3805  0.0596 -0.0462
 1581TIP3    H128938   5.606   4.805  17.564  2.0960  1.3099 -0.9452
 1581TIP3    H228939   5.590   4.686  17.656 -2.2678  0.9541 -1.9413
 1582TIP3   OH228940   1.657   6.704  17.283 -0.0151 -0.1479  0.0886
 1582TIP3    H128941   1.574   6.683  17.239 -0.2416 -0.2126  0.5427
 1582TIP3    H228942   1.703   6.620  17.288 -0.4161 -0.3291  0.8547
 1583TIP3   OH228943   8.151   8.231  17.186  0.6198 -0.1524  0.7906
 1583TIP3    H128944   8.125   8.236  17.095  2.8847 -0.1730  0.0643
 1583TIP3    H228945   8.199   8.148  17.192 -1.1636 -1.1525  2.5249
 1584TIP3   OH228946   2.063   6.789  16.630  0.3186  0.4413  0.3124
 1584TIP3    H128947   2.017   6.860  16.586  0.8840  0.9567  0.5352
 1584TIP3    H228948   2.039   6.797  16.722  1.0609  0.9003  0.4803
 1585TIP3   OH228949   4.167   5.063  16.861  0.4116 -0.3436  0.2284
 1585TIP3    H128950   4.180   5.158  16.866  1.3429 -0.4788  0.6492
 1585TIP3    H228951   4.220   5.029  16.933  1.2645 -1.2934 -0.8217
 1586TIP3   OH228952   3.291   1.638  17.546  0.3547 -0.0796 -0.4804
 1586TIP3    H128953   3.345   1.716  17.542  1.6402 -0.9364 -0.2393
 1586TIP3    H228954   3.351   1.567  17.568 -0.6478 -1.2687 -1.3719
 1587TIP3   OH228955   1.049   4.729  16.766  0.5677 -0.3951 -0.1619
 1587TIP3    H128956   1.057   4.658  16.830  0.1950 -0.3785 -0.0951
 1587TIP3    H228957   1.131   4.726  16.716  0.1603 -1.5215 -0.8123
 1588TIP3   OH228958   6.193   5.891  16.905 -0.0043  0.3298 -0.5096
 1588TIP3    H128959   6.250   5.819  16.932  0.0676 -0.8584 -3.4539
 1588TIP3    H228960   6.248   5.943  16.845 -0.8606  1.3579 -0.4244
 1589TIP3   OH228961   3.918   5.099  15.631 -0.1489  0.0654 -0.0598
 1589TIP3    H128962   3.907   5.010  15.598 -0.7702 -0.4696  1.5155
 1589TIP3    H228963   3.829   5.133  15.639  0.1006  1.0377 -1.1389
 1590TIP3   OH228964   2.683   7.399  17.600 -0.3438  0.5929 -0.1615
 1590TIP3    H128965   2.737   7.477  17.585  1.4650 -0.6516 -0.3378
 1590TIP3    H228966   2.743   7.335  17.638 -1.1535 -1.5364 -2.2553
 1591TIP3   OH228967   4.415   6.339  17.733  0.1627 -0.0067  0.7703
 1591TIP3    H128968   4.459   6.275  17.677  0.0959  1.6931 -1.3999
 1591TIP3    H228969   4.486   6.382  17.781  0.3943 -0.3711  0.7588
 1592TIP3   OH228970   8.091   4.207  16.547 -0.0274  0.0110  0.0101
 1592TIP3    H128971   8.029   4.153  16.498  0.1592 -0.8693  0.7284
 1592TIP3    H228972   8.151   4.144  16.588  2.2216  0.8327 -1.7689
 1593TIP3   OH228973   3.536   0.469  16.609  0.1805 -0.6573  0.0418
 1593TIP3    H128974   3.465   0.408  16.628 -0.1238 -0.1573  0.5323
 1593TIP3    H228975   3.523   0.541  16.671 -0.2405  0.5326 -1.3736
 1594TIP3   OH228976   4.203   0.695  16.120  0.3346 -0.4403 -0.1029
 1594TIP3    H128977   4.117   0.664  16.090  0.1010 -1.0338  1.1140
 1594TIP3    H228978   4.264   0.669  16.051 -0.5678  0.7428 -1.4015
 1595TIP3   OH228979   7.396   5.041  16.233 -0.4340  0.0183  0.6709
 1595TIP3    H128980   7.465   5.030  16.167  0.1440  0.7604  1.1383
 1595TIP3    H228981   7.316   5.056  16.182 -0.6768 -2.7641  0.0494
 1596TIP3   OH228982   5.044   4.478  17.326  1.0895  0.1499  0.3035
 1596TIP3    H128983   4.960   4.436  17.308  1.5778 -1.1522  0.9203
 1596TIP3    H228984   5.030   4.526  17.407  1.4706 -1.8064  1.5998
 1597TIP3   OH228985   0.726   2.650  17.182  0.0185  0.2682 -0.3283
 1597TIP3    H128986   0.656   2.715  17.171  0.0746  0.3992  0.0685
 1597TIP3    H228987   0.770   2.676  17.262 -0.1947 -0.4797  0.0404
 1598TIP3   OH228988   3.153   4.024  16.620 -0.5168  0.1571  0.5776
 1598TIP3    H128989   3.158   4.043  16.714 -0.5016 -1.1608  0.8575
 1598TIP3    H228990   3.078   3.966  16.611 -0.6832  0.4947 -0.2717
 1599TIP3   OH228991   6.947   4.624  17.296 -0.0508  0.9864  0.2571
 1599TIP3    H128992   6.876   4.577  17.339  0.5196  0.1140  0.2553
 1599TIP3    H228993   7.012   4.557  17.277  1.1164  1.8937  0.9569
 1600TIP3   OH228994   5.545   5.069  17.263  0.0688  0.3419  0.7229
 1600TIP3    H128995   5.632   5.071  17.222 -1.3566 -0.1212 -2.6188
 1600TIP3    H228996   5.512   4.981  17.245 -1.4934  0.8352  1.0231
 1601TIP3   OH228997   2.782   4.723  16.914  0.4205  0.2453  0.3919
 1601TIP3    H128998   2.792   4.819  16.915 -0.0680  0.2920  1.1568
 1601TIP3    H228999   2.715   4.707  16.848  1.0460  0.3671 -0.2921
 1602TIP3   OH229000   0.809   0.160  16.322  0.1716  0.3706  0.2744
 1602TIP3    H129001   0.874   0.147  16.252  0.2198  1.3875  0.1157
 1602TIP3    H229002   0.739   0.098  16.301  0.8638 -0.3884  0.1715
 1603TIP3   OH229003   4.478   4.357  16.744 -0.2303 -0.2939 -0.6143
 1603TIP3    H129004   4.468   4.284  16.682  1.4505 -3.5896  2.6235
 1603TIP3    H229005   4.447   4.323  16.827  1.5894  2.3395  1.3336
 1604TIP3   OH229006   2.224   8.265  17.899 -1.0530  0.2274  0.3098
 1604TIP3    H129007   2.284   8.202  17.937 -1.5798 -0.6095 -0.2035
 1604TIP3    H229008   2.138   8.221  17.902 -1.0557 -0.0982 -2.2320
 1605TIP3   OH229009   7.515   0.276  16.995 -0.2599 -0.6267  0.1304
 1605TIP3    H129010   7.547   0.187  16.978 -0.2368 -0.3654 -1.3417
 1605TIP3    H229011   7.452   0.265  17.066 -1.3853 -2.0888 -1.0101
 1606TIP3   OH229012   2.501   4.465  16.247  0.0321 -0.0766  0.3869
 1606TIP3    H129013   2.430   4.521  16.278 -0.2351 -1.0891  1.7284
 1606TIP3    H229014   2.576   4.491  16.300 -0.4625 -1.9237  2.1553
 1607TIP3   OH229015   0.947   2.584  16.454 -0.6340 -0.3491 -0.0556
 1607TIP3    H129016   0.988   2.524  16.517 -0.4086  0.6271  0.7452
 1607TIP3    H229017   0.948   2.669  16.497  0.3618  0.5465 -1.7477
 1608TIP3   OH229018   7.275   1.988  17.546 -0.4926 -0.3556 -0.9155
 1608TIP3    H129019   7.286   2.082  17.561 -2.0695 -0.1241 -1.0341
 1608TIP3    H229020   7.349   1.947  17.591  0.1059  0.9242 -0.7011
 1609TIP3   OH229021   2.365   8.132  17.175  0.0666  0.5622  0.3249
 1609TIP3    H129022   2.430   8.197  17.202 -1.3960  1.9259  0.7203
 1609TIP3    H229023   2.399   8.049  17.207  2.1532  1.0593 -0.4762
 1610TIP3   OH229024   1.857   3.036  16.118 -0.0505  0.3760  0.1374
 1610TIP3    H129025   1.785   3.023  16.055  0.9428 -0.5916 -0.8518
 1610TIP3    H229026   1.914   3.100  16.075 -0.0673  0.7593  0.6877
 1611TIP3   OH229027   0.557   4.147  17.578  0.0663 -0.0758 -0.5681
 1611TIP3    H129028   0.633   4.198  17.551  0.6314 -0.8538 -0.4765
 1611TIP3    H229029   0.486   4.178  17.521  0.2874  1.0929 -0.2351
 1612TIP3   OH229030   1.841   3.283  17.365  0.1937  0.3267  0.3543
 1612TIP3    H129031   1.745   3.281  17.368  0.1243  2.2888  1.3666
 1612TIP3    H229032   1.862   3.287  17.272 -0.3756 -5.1346 -0.3502
 1613TIP3   OH229033   7.857   3.523  15.987 -0.3132 -0.6068  0.2590
 1613TIP3    H129034   7.925   3.517  15.920 -3.0327  2.7089 -3.2601
 1613TIP3    H229035   7.820   3.435  15.991  0.6263 -1.1786 -1.8783
 1614TIP3   OH229036   4.538   5.004  16.416  0.1778 -0.0034  0.1797
 1614TIP3    H129037   4.629   4.975  16.415  0.1076 -0.2253 -0.0633
 1614TIP3    H229038   4.501   4.969  16.334 -0.1303  0.0616  0.2883
 1615TIP3   OH229039   4.550   4.666  16.863  0.0077  0.0767  0.0496
 1615TIP3    H129040   4.504   4.725  16.804 -2.0333 -1.1941  0.2882
 1615TIP3    H229041   4.552   4.582  16.818  0.4463 -0.3562  0.8440
 1616TIP3   OH229042   5.772   7.647  17.316  0.4210 -0.3689 -0.2123
 1616TIP3    H129043   5.781   7.742  17.310  0.4972 -0.3155  0.6642
 1616TIP3    H229044   5.835   7.613  17.252  1.8451  0.1469  0.8590
 1617TIP3   OH229045   7.439   8.378  15.912 -0.1164  0.4009 -0.2243
 1617TIP3    H129046   7.494   8.445  15.953 -0.4785  0.4259  0.2357
 1617TIP3    H229047   7.372   8.360  15.978 -0.5900  0.2910 -0.7346
 1618TIP3   OH229048   6.023   4.074  16.129 -0.4400 -0.2062  0.5455
 1618TIP3    H129049   6.117   4.071  16.147 -0.3767  0.8495  0.4423
 1618TIP3    H229050   6.017   4.063  16.034 -0.1919  2.5649  0.1283
 1619TIP3   OH229051   5.014   7.309  17.963  0.4178  0.1498  0.6123
 1619TIP3    H129052   4.966   7.390  17.984 -1.0196 -0.4152 -0.3387
 1619TIP3    H229053   5.063   7.330  17.884 -1.0973 -0.3020 -0.4813
 1620TIP3   OH229054   4.294   3.019  17.244  0.3805  0.6664 -0.0741
 1620TIP3    H129055   4.283   3.028  17.150 -1.3719  0.0386  0.0374
 1620TIP3    H229056   4.315   2.926  17.257  1.6152  0.9472  0.1025
 1621TIP3   OH229057   1.680   2.534  17.396  0.3993  0.1739 -0.1630
 1621TIP3    H129058   1.659   2.538  17.302 -0.3291 -0.2613 -0.0293
 1621TIP3    H229059   1.765   2.491  17.400  0.3302 -0.0097 -0.6093
 1622TIP3   OH229060   4.390   2.174  16.741  0.5327  0.6762 -0.3964
 1622TIP3    H129061   4.297   2.149  16.741  0.4879  0.6567  1.7743
 1622TIP3    H229062   4.401   2.225  16.821  2.4056  0.6714 -0.6184
 1623TIP3   OH229063   6.077   3.333  16.461  0.1412 -0.2428  0.0298
 1623TIP3    H129064   6.154   3.312  16.514 -0.8937 -2.0406  0.9347
 1623TIP3    H229065   6.006   3.342  16.524 -0.5250  0.8397 -0.8313
 1624TIP3   OH229066   1.294   8.075  16.918  0.0960  0.1134 -0.1757
 1624TIP3    H129067   1.355   8.034  16.979 -0.2583  2.0592  1.5746
 1624TIP3    H229068   1.208   8.065  16.959 -0.4670 -0.4687 -1.4430
 1625TIP3   OH229069   3.493   1.890  16.671  0.1615 -0.2644 -0.1473
 1625TIP3    H129070   3.529   1.956  16.612  1.3953 -0.0370  0.8094
 1625TIP3    H229071   3.484   1.935  16.755  0.0124 -1.0325  0.2570
 1626TIP3   OH229072   7.620   2.623  15.843  0.3377 -0.1346  0.1838
 1626TIP3    H129073   7.634   2.583  15.757 -0.2529  0.6948 -0.3213
 1626TIP3    H229074   7.586   2.553  15.897 -0.4355 -0.3951 -0.6083
 1627TIP3   OH229075   1.557   6.802  16.239 -0.0447 -0.6180 -0.4022
 1627TIP3    H129076   1.592   6.718  16.211 -0.9241 -1.3378  0.5694
 1627TIP3    H229077   1.614   6.829  16.312  0.0323 -0.5399 -0.4908
 1628TIP3   OH229078   4.335   1.394  16.511  0.5098 -0.3416 -0.2227
 1628TIP3    H129079   4.375   1.338  16.577  0.4891 -0.7091 -0.5160
 1628TIP3    H229080   4.317   1.335  16.437 -1.0505 -0.2900  0.0869
 1629TIP3   OH229081   1.330   5.555  17.491  0.5229  0.1581  0.0408
 1629TIP3    H129082   1.287   5.639  17.475  0.3839 -0.1033 -1.0542
 1629TIP3    H229083   1.267   5.505  17.542 -0.6578 -0.3302 -1.7961
 1630TIP3   OH229084   1.318   4.737  16.689  0.5769 -0.0374  0.3890
 1630TIP3    H129085   1.348   4.725  16.599  2.1115 -0.0847  0.8735
 1630TIP3    H229086   1.345   4.826  16.711  0.3797 -0.0923  0.8685
 1631TIP3   OH229087   3.389   8.151  17.645  0.1509  0.0286 -0.0667
 1631TIP3    H129088   3.399   8.240  17.681  1.8229  0.4698 -1.4906
 1631TIP3    H229089   3.449   8.098  17.698 -0.5172 -0.1900  0.4909
 1632TIP3   OH229090   5.201   4.319  15.707  0.0363 -0.2331 -0.2631
 1632TIP3    H129091   5.213   4.242  15.651  2.0998 -0.6251  0.6239
 1632TIP3    H229092   5.108   4.341  15.699 -0.7849 -3.2396  0.0178
 1633TIP3   OH229093   2.781   5.868  15.744  0.1202  0.2285  0.2065
 1633TIP3    H129094   2.824   5.929  15.804  1.4092 -0.3873 -0.0606
 1633TIP3    H229095   2.701   5.842  15.789  0.2795  0.9933  0.9545
 1634TIP3   OH229096   8.218   6.999  16.676  1.0498  0.3823 -0.5198
 1634TIP3    H129097   8.285   7.047  16.725  0.8292 -0.5952  0.7736
 1634TIP3    H229098   8.197   6.924  16.731  0.1537 -0.2791 -1.7267
 1635TIP3   OH229099   5.187   7.522  15.805 -0.0075 -0.1199 -0.8904
 1635TIP3    H129100   5.261   7.466  15.781  0.8680  1.3519 -1.7836
 1635TIP3    H229101   5.202   7.541  15.898  0.3725 -0.3715 -0.8972
 1636TIP3   OH229102   2.623   6.533  16.253  0.4129 -0.0573 -0.1917
 1636TIP3    H129103   2.533   6.539  16.220  0.7739  1.9517 -0.9435
 1636TIP3    H229104   2.659   6.454  16.212 -0.6824 -0.3336 -0.6528
 1637TIP3   OH229105   4.987   8.344  17.405 -0.1101 -0.5084  0.0530
 1637TIP3    H129106   4.931   8.375  17.334  0.5046  0.5037 -0.0145
 1637TIP3    H229107   4.993   8.419  17.465  1.4231 -0.4641 -0.1132
 1638TIP3   OH229108   0.443   6.410  18.096  0.0045  0.3063  0.6445
 1638TIP3    H129109   0.538   6.397  18.087 -0.1808 -0.2369 -0.8401
 1638TIP3    H229110   0.406   6.322  18.087 -0.6931  0.6283  0.3240
 1639TIP3   OH229111   3.435   7.838  17.564  0.1796 -0.0570  0.1572
 1639TIP3    H129112   3.426   7.889  17.644 -0.1030 -0.5193  0.4247
 1639TIP3    H229113   3.527   7.851  17.538 -0.1380  1.3530 -0.3229
 1640TIP3   OH229114   5.462   3.709  16.726  0.0926  0.2212  0.5004
 1640TIP3    H129115   5.452   3.774  16.656 -1.2078  0.6166  1.0165
 1640TIP3    H229116   5.552   3.721  16.757  0.8694 -0.2788 -1.3843
 1641TIP3   OH229117   7.887   8.062  16.564 -0.2665 -0.0818  0.0795
 1641TIP3    H129118   7.904   8.009  16.642  1.1279 -2.5358 -1.7418
 1641TIP3    H229119   7.794   8.082  16.569 -0.0824  0.4648  2.6920
 1642TIP3   OH229120   0.085   4.583  17.040  0.7273  0.5646  0.4305
 1642TIP3    H129121   0.050   4.636  17.111 -0.4351 -0.0239  0.3145
 1642TIP3    H229122   0.084   4.494  17.074 -1.1301  0.0755 -0.7703
 1643TIP3   OH229123   1.265   0.970  16.595 -0.4868  0.0881 -0.0514
 1643TIP3    H129124   1.207   0.899  16.623  0.7403 -1.2516 -0.7619
 1643TIP3    H229125   1.241   0.986  16.503 -0.6784  0.5188  0.0699
 1644TIP3   OH229126   8.213   3.197  16.338 -0.1694 -0.1797 -0.2196
 1644TIP3    H129127   8.216   3.219  16.245 -2.3004 -0.2837 -0.3661
 1644TIP3    H229128   8.160   3.117  16.343  2.2214 -1.7912  0.8793
 1645TIP3   OH229129   7.491   0.289  17.370  0.2033 -0.3410  0.1088
 1645TIP3    H129130   7.433   0.233  17.319  0.7773 -0.2055 -0.7277
 1645TIP3    H229131   7.578   0.252  17.356  0.4319 -0.0131  0.6152
 1646TIP3   OH229132   6.679   2.669  17.728  0.5112  0.5573 -0.3672
 1646TIP3    H129133   6.597   2.705  17.762  1.2716  1.3180  0.7307
 1646TIP3    H229134   6.663   2.658  17.634 -1.7800 -1.9310  0.1823
 1647TIP3   OH229135   3.341   4.599  15.846  0.4333 -0.3028  0.6622
 1647TIP3    H129136   3.381   4.659  15.782 -1.3152 -0.2339 -0.4607
 1647TIP3    H229137   3.327   4.518  15.797 -1.6125 -0.0120  0.6684
 1648TIP3   OH229138   2.214   1.048  15.657  0.5582 -0.1783  0.2540
 1648TIP3    H129139   2.257   0.962  15.657 -0.0603 -0.5311 -1.5675
 1648TIP3    H229140   2.146   1.041  15.591 -0.7972  1.1331  1.4284
 1649TIP3   OH229141   0.878   1.802  17.489  0.0796  0.1108 -0.1737
 1649TIP3    H129142   0.794   1.845  17.476 -0.9012 -1.1537  1.5876
 1649TIP3    H229143   0.937   1.872  17.516 -1.4008  0.5156  2.3331
 1650TIP3   OH229144   3.591   2.033  16.443  0.2029 -0.3013 -0.6676
 1650TIP3    H129145   3.603   2.048  16.349  0.1732 -1.4770 -0.8746
 1650TIP3    H229146   3.680   2.038  16.479  0.0635  1.6921 -0.4852
 1651TIP3   OH229147   6.052   7.856  16.711  0.0442  0.0875  0.6541
 1651TIP3    H129148   6.047   7.761  16.708  1.6182  0.0042 -0.2389
 1651TIP3    H229149   6.093   7.875  16.795 -0.9273  0.0308  1.1537
 1652TIP3   OH229150   1.933   4.716  16.404 -0.3992  0.0765  0.3908
 1652TIP3    H129151   1.898   4.756  16.325  0.0696  0.8978  0.5870
 1652TIP3    H229152   1.995   4.651  16.372 -0.3625  0.2602  0.0830
 1653TIP3   OH229153   1.071   7.568  17.437  0.1141  0.2429  0.3381
 1653TIP3    H129154   1.133   7.516  17.386 -0.0285  2.0395 -1.8461
 1653TIP3    H229155   1.030   7.506  17.497  1.3944 -1.7098 -0.7268
 1654TIP3   OH229156   3.962   6.203  16.898 -0.5715  0.7541 -0.2735
 1654TIP3    H129157   3.959   6.253  16.980  0.5131  0.3844  0.0011
 1654TIP3    H229158   3.993   6.266  16.833  0.9400  0.4293  0.1030
 1655TIP3   OH229159   2.044   4.547  17.856 -0.3578  0.2757 -0.6000
 1655TIP3    H129160   2.012   4.598  17.782  0.6081  0.9005 -0.6103
 1655TIP3    H229161   2.138   4.540  17.841 -0.1848  0.2245  0.4549
 1656TIP3   OH229162   2.804   1.324  17.051 -0.0435  0.1725 -0.1918
 1656TIP3    H129163   2.760   1.244  17.020  0.1419  0.3068 -0.8269
 1656TIP3    H229164   2.856   1.353  16.976 -0.1741  0.9392  0.0033
 1657TIP3   OH229165   1.410   4.315  17.387  0.1662  0.1950 -0.1236
 1657TIP3    H129166   1.494   4.272  17.405  0.4957  0.1670 -1.6039
 1657TIP3    H229167   1.434   4.396  17.343 -0.5656  0.6630  0.3242
 1658TIP3   OH229168   7.905   8.088  16.263  0.3423 -0.4544 -0.0796
 1658TIP3    H129169   7.880   8.100  16.354  0.5799 -0.9221  0.0513
 1658TIP3    H229170   7.825   8.059  16.219 -0.9450  3.7465 -0.9244
 1659TIP3   OH229171   8.392   1.745  16.361  0.1757 -0.3029  0.1983
 1659TIP3    H129172   8.451   1.692  16.308 -0.7535 -1.1687  0.0102
 1659TIP3    H229173   8.430   1.833  16.359  1.3847 -0.8192 -0.0139
 1660TIP3   OH229174   5.731   4.379  16.920  0.3401 -0.7285  0.3581
 1660TIP3    H129175   5.801   4.423  16.871  0.1589 -0.6296  0.1894
 1660TIP3    H229176   5.694   4.316  16.858 -0.0249 -0.4606  0.3043
 1661TIP3   OH229177   5.522   3.151  16.297  1.0675  0.3484 -0.0895
 1661TIP3    H129178   5.583   3.161  16.370  0.5049 -2.6841  0.9368
 1661TIP3    H229179   5.578   3.149  16.219  2.1077 -0.5643  0.6577
 1662TIP3   OH229180   5.811   2.484  16.746  0.0651  0.6620  0.1947
 1662TIP3    H129181   5.807   2.567  16.697  1.3455  0.8124  0.3062
 1662TIP3    H229182   5.729   2.482  16.796 -0.0295  1.8289  0.1328
 1663TIP3   OH229183   7.904   2.561  17.441  0.2727 -0.4365 -0.2065
 1663TIP3    H129184   7.894   2.486  17.499 -2.8559 -0.5131 -0.6512
 1663TIP3    H229185   7.857   2.632  17.485 -0.1176  0.1619 -1.5096
 1664TIP3   OH229186   5.523   4.544  16.954  0.1244 -0.5676  0.4104
 1664TIP3    H129187   5.472   4.522  17.032 -0.9452 -1.6932 -0.5696
 1664TIP3    H229188   5.600   4.487  16.960  0.9778  0.6067  1.5021
 1665TIP3   OH229189   3.656   6.879  17.411  0.0523  0.3161 -0.7931
 1665TIP3    H129190   3.636   6.951  17.471  0.8223 -0.3481  0.2940
 1665TIP3    H229191   3.577   6.824  17.413  0.2316  0.0762 -0.0511
 1666TIP3   OH229192   1.767   1.760  15.530 -0.3021 -0.0410  0.2155
 1666TIP3    H129193   1.768   1.713  15.447  1.3967  0.9092 -0.3278
 1666TIP3    H229194   1.753   1.691  15.596  1.6980 -1.2941 -0.5911
 1667TIP3   OH229195   7.344   4.306  16.379 -0.1563  0.5740  0.1544
 1667TIP3    H129196   7.264   4.254  16.384 -0.5428  0.5914 -3.3570
 1667TIP3    H229197   7.396   4.264  16.310  2.8800  0.6544  2.1923
 1668TIP3   OH229198   8.229   6.193  15.851  0.2114 -0.2391  0.0690
 1668TIP3    H129199   8.217   6.100  15.830  2.4668 -0.5344 -0.2516
 1668TIP3    H229200   8.256   6.192  15.943  1.6473 -0.0843 -0.3228
 1669TIP3   OH229201   6.262   7.650  15.654  0.4854 -0.0433 -0.1536
 1669TIP3    H129202   6.209   7.601  15.591  0.2590 -1.1417  0.8575
 1669TIP3    H229203   6.308   7.583  15.704  0.0478  0.7406  1.3697
 1670TIP3   OH229204   6.158   6.768  16.681  0.0262  0.3635  0.0823
 1670TIP3    H129205   6.221   6.717  16.732  0.2008 -0.4912 -0.9583
 1670TIP3    H229206   6.200   6.781  16.596 -0.6167  1.0315 -0.1496
 1671TIP3   OH229207   5.320   8.294  16.726 -0.1030  0.2078 -0.8654
 1671TIP3    H129208   5.297   8.237  16.800 -0.3522  1.7340  0.2880
 1671TIP3    H229209   5.294   8.382  16.755 -0.0865  0.8697 -2.7328
 1672TIP3   OH229210   4.379   5.161  16.671 -0.0839  0.6562 -0.9347
 1672TIP3    H129211   4.418   5.199  16.592  1.9066 -0.8261 -0.7350
 1672TIP3    H229212   4.376   5.233  16.734  1.4505  1.0648 -1.2871
 1673TIP3   OH229213   6.925   1.255  16.893 -0.6281  0.0266 -0.0835
 1673TIP3    H129214   6.899   1.335  16.939 -1.9787  0.7124 -1.8998
 1673TIP3    H229215   6.941   1.284  16.803  0.0877 -1.5480 -0.4873
 1674TIP3   OH229216   7.859   1.288  16.534  0.0745  0.4525  0.5074
 1674TIP3    H129217   7.771   1.326  16.532 -0.7268 -1.3569 -0.4113
 1674TIP3    H229218   7.846   1.196  16.556  1.8577  0.3818  1.5152
 1675TIP3   OH229219   2.861   2.938  16.933 -0.3900  0.2367 -0.2939
 1675TIP3    H129220   2.918   2.972  16.864  1.2335  1.8083  1.6633
 1675TIP3    H229221   2.856   2.844  16.917 -1.3219  0.7148 -3.3428
 1676TIP3   OH229222   2.124   2.643  15.298  0.1920  0.0218  0.5636
 1676TIP3    H129223   2.173   2.685  15.368 -1.1406  0.3989  1.3088
 1676TIP3    H229224   2.160   2.555  15.291  0.5431  0.0911  1.5145
 1677TIP3   OH229225   7.603   7.908  17.443 -0.1483 -0.4457 -0.7979
 1677TIP3    H129226   7.694   7.878  17.433  0.1539  0.0402  0.2889
 1677TIP3    H229227   7.589   7.910  17.538 -0.8761  0.7072 -0.9102
 1678TIP3   OH229228   6.437   0.872  16.934 -0.9754 -0.0315  0.2896
 1678TIP3    H129229   6.476   0.785  16.932 -2.4185 -0.7128  0.5741
 1678TIP3    H229230   6.466   0.913  16.853  0.0378 -0.6273  0.3345
 1679TIP3   OH229231   3.593   0.733  17.188  0.1938 -0.1666 -0.0149
 1679TIP3    H129232   3.577   0.645  17.152  0.1737 -0.1378 -0.0760
 1679TIP3    H229233   3.638   0.780  17.117  1.6264 -0.6055  0.5726
 1680TIP3   OH229234   6.428   2.764  17.779 -0.1221 -0.4333 -0.4103
 1680TIP3    H129235   6.391   2.809  17.703 -0.7203 -1.1600 -0.5615
 1680TIP3    H229236   6.355   2.712  17.813 -0.2840  0.9290  1.5019
 1681TIP3   OH229237   7.541   3.028  17.752  0.1546 -1.1208 -0.1849
 1681TIP3    H129238   7.509   3.021  17.842 -0.4880  3.0206  0.1064
 1681TIP3    H229239   7.484   2.969  17.702  0.1771 -3.1011  1.9376
 1682TIP3   OH229240   3.020   0.244  17.595 -0.4510  0.0919  0.0189
 1682TIP3    H129241   3.045   0.169  17.541 -0.3961 -0.1570  0.3906
 1682TIP3    H229242   3.093   0.256  17.655 -0.6599  0.1640  0.2576
 1683TIP3   OH229243   4.458   0.592  17.317 -0.4470 -0.3957 -0.0524
 1683TIP3    H129244   4.497   0.617  17.401 -1.0322 -0.0755  0.1274
 1683TIP3    H229245   4.515   0.522  17.285  0.0329 -0.2255  0.4036
 1684TIP3   OH229246   2.016   1.737  17.206  0.6657 -0.0193  0.0442
 1684TIP3    H129247   1.950   1.783  17.154 -0.6416 -0.1185  1.5503
 1684TIP3    H229248   2.032   1.794  17.281  2.3933  0.0405 -0.3346
 1685TIP3   OH229249   7.232   6.833  16.691 -0.4595 -0.3853  0.0567
 1685TIP3    H129250   7.187   6.785  16.621  0.2229 -1.1098  0.1118
 1685TIP3    H229251   7.212   6.925  16.672  0.4965 -0.4864 -1.6781
 1686TIP3   OH229252   0.526   7.504  17.953  0.6416 -0.4259 -0.3013
 1686TIP3    H129253   0.441   7.492  17.994  0.9030 -2.4092 -0.2495
 1686TIP3    H229254   0.547   7.596  17.969 -1.2169 -0.0373  0.1740
 1687TIP3   OH229255   0.735   3.344  17.424  0.2297  0.0308  0.2807
 1687TIP3    H129256   0.668   3.405  17.456  1.2978  1.1309  0.5051
 1687TIP3    H229257   0.809   3.400  17.402  0.6202 -1.0297 -1.2207
 1688TIP3   OH229258   2.736   3.933  16.873 -0.2542 -0.6519 -0.7236
 1688TIP3    H129259   2.716   3.944  16.966 -0.6743 -1.8533 -0.6619
 1688TIP3    H229260   2.672   3.987  16.828  1.1760  1.5289 -0.2782
 1689TIP3   OH229261   6.677   2.811  16.434  0.1513 -0.3408  0.0720
 1689TIP3    H129262   6.693   2.723  16.401 -0.5543  0.2914 -2.1368
 1689TIP3    H229263   6.747   2.864  16.395 -0.5192  0.3898 -0.1626
 1690TIP3   OH229264   7.812   7.486  18.045 -0.0069 -0.5304 -0.1592
 1690TIP3    H129265   7.795   7.500  18.138  1.3477  0.0396  0.0301
 1690TIP3    H229266   7.745   7.537  18.000 -0.7428 -0.9052  0.4962
 1691TIP3   OH229267   6.344   8.043  17.174  0.2619 -0.2417  0.3462
 1691TIP3    H129268   6.391   8.064  17.256  1.6050 -2.4325  0.2302
 1691TIP3    H229269   6.385   7.962  17.144 -0.4867  0.2876 -2.3141
 1692TIP3   OH229270   1.013   5.219  17.302 -0.3936  0.4540 -0.2603
 1692TIP3    H129271   1.040   5.243  17.213 -0.6231  0.6784 -0.2728
 1692TIP3    H229272   0.967   5.136  17.291  0.1432  0.1513 -0.2615
 1693TIP3   OH229273   0.630   1.473  16.450 -0.7149  0.4308 -0.0225
 1693TIP3    H129274   0.654   1.486  16.358 -0.7047 -0.4253 -0.1497
 1693TIP3    H229275   0.536   1.453  16.447 -0.5819 -0.2590  0.0751
 1694TIP3   OH229276   5.924   6.195  16.510 -0.3479  0.3122  0.4273
 1694TIP3    H129277   5.861   6.124  16.495  1.5156 -1.2050 -0.7055
 1694TIP3    H229278   5.934   6.237  16.425  0.7610 -0.0177  0.3758
 1695TIP3   OH229279   5.206   3.642  17.255  0.4888 -0.4738 -0.2417
 1695TIP3    H129280   5.288   3.651  17.302  0.8269  1.1178 -1.0477
 1695TIP3    H229281   5.139   3.644  17.323  1.0977 -2.2705  0.4632
 1696TIP3   OH229282   2.070   3.383  15.563 -0.1008 -0.2077 -0.6751
 1696TIP3    H129283   1.993   3.343  15.605 -0.0585  0.3932 -0.0033
 1696TIP3    H229284   2.038   3.411  15.478 -1.1650  1.6985  0.2854
 1697TIP3   OH229285   6.248   1.045  16.661 -0.4453 -0.2660 -0.1764
 1697TIP3    H129286   6.307   0.981  16.621 -0.9105  0.0923 -1.4878
 1697TIP3    H229287   6.162   1.026  16.624 -0.7184  0.6856 -0.0678
 1698TIP3   OH229288   5.404   3.996  16.556  0.2485  0.1555  0.6443
 1698TIP3    H129289   5.448   4.036  16.481 -1.7118  0.3280 -0.4931
 1698TIP3    H229290   5.329   4.053  16.573 -1.1414 -1.5808  0.6743
 1699TIP3   OH229291   2.800   4.304  15.971 -0.4213 -0.0924 -0.6592
 1699TIP3    H129292   2.865   4.239  15.946 -1.3191 -0.3934 -2.3360
 1699TIP3    H229293   2.839   4.388  15.945  0.2277 -0.0442  0.4134
 1700TIP3   OH229294   0.297   4.570  17.317  0.0524 -0.3330  0.6259
 1700TIP3    H129295   0.241   4.605  17.387  0.6263 -0.1659  1.0141
 1700TIP3    H229296   0.315   4.645  17.261 -0.3307 -0.4470  0.3473
 1701TIP3   OH229297   0.558   5.213  16.530  1.2400 -0.3528 -0.1556
 1701TIP3    H129298   0.577   5.298  16.491  2.7525 -0.9710 -0.8208
 1701TIP3    H229299   0.604   5.150  16.475 -0.2631 -1.6739  0.0246
 1702TIP3   OH229300   4.270   2.217  17.189 -0.4643  0.0068  0.7536
 1702TIP3    H129301   4.264   2.217  17.284 -0.8277 -2.1741  0.7762
 1702TIP3    H229302   4.222   2.139  17.162 -0.5465  0.6953 -1.2455
 1703TIP3   OH229303   0.418   5.647  17.226  0.3776  0.0814  0.1563
 1703TIP3    H129304   0.420   5.721  17.286  0.5423  0.6331 -0.5218
 1703TIP3    H229305   0.324   5.629  17.213  0.3164  0.7558 -0.3809
 1704TIP3   OH229306   4.295   3.437  16.077  0.2395 -0.1701 -0.0353
 1704TIP3    H129307   4.330   3.419  15.990 -2.8459  0.7129 -1.6405
 1704TIP3    H229308   4.287   3.533  16.080 -0.5880 -0.2528  0.8092
 1705TIP3   OH229309   1.683   7.163  16.019  0.2445  0.2021 -0.7462
 1705TIP3    H129310   1.695   7.198  16.108 -2.6048  1.7386 -0.8649
 1705TIP3    H229311   1.706   7.236  15.962  0.1904 -0.1543 -1.2269
 1706TIP3   OH229312   6.524   7.512  16.855 -0.1537  0.1887 -0.0310
 1706TIP3    H129313   6.549   7.531  16.946 -0.5970  0.1534  0.1017
 1706TIP3    H229314   6.534   7.417  16.847  0.2146  0.2326 -0.1234
 1707TIP3   OH229315   3.979   0.780  16.306  0.5190  0.1826 -0.3799
 1707TIP3    H129316   4.035   0.846  16.265 -0.8819  1.7736  0.1572
 1707TIP3    H229317   3.958   0.719  16.235  1.5552  0.4951 -0.9719
 1708TIP3   OH229318   2.964   8.100  16.730 -0.3298  0.0245  0.5488
 1708TIP3    H129319   2.923   8.157  16.795 -0.3475  0.9039 -0.2139
 1708TIP3    H229320   2.890   8.061  16.683 -0.3723  1.8648 -1.0461
 1709TIP3   OH229321   0.857   1.153  17.457 -0.5130 -0.3297 -0.0951
 1709TIP3    H129322   0.823   1.081  17.509  0.5376 -0.4995  0.3898
 1709TIP3    H229323   0.943   1.172  17.495  0.6413 -0.9478 -2.1750
 1710TIP3   OH229324   1.585   8.346  17.317 -0.1971  0.2537 -0.3067
 1710TIP3    H129325   1.580   8.438  17.342  0.8546 -0.1077  1.3993
 1710TIP3    H229326   1.678   8.324  17.325 -0.5394 -1.1537  0.0994
 1711TIP3   OH229327   4.500   4.024  15.975 -0.6969 -0.7166 -0.0031
 1711TIP3    H129328   4.446   3.993  15.902 -0.2802 -0.7914 -0.2784
 1711TIP3    H229329   4.569   4.076  15.934 -0.4749 -0.7387  0.3393
 1712TIP3   OH229330   6.522   8.324  17.439 -0.3521  0.3133  0.3774
 1712TIP3    H129331   6.593   8.349  17.498  0.0683 -0.6842  0.3149
 1712TIP3    H229332   6.564   8.309  17.355 -0.5174 -0.8804  0.4819
 1713TIP3   OH229333   7.827   5.850  16.733  0.5721 -0.5539 -0.0560
 1713TIP3    H129334   7.793   5.802  16.657  0.7407 -0.9707  0.1269
 1713TIP3    H229335   7.762   5.919  16.749  1.2067  0.3849 -1.3881
 1714TIP3   OH229336   7.101   4.537  16.196  0.3565  0.1947 -0.3011
 1714TIP3    H129337   7.154   4.474  16.146  0.3993  0.9841 -1.2980
 1714TIP3    H229338   7.107   4.618  16.145 -0.7490  0.6504  0.2687
 1715TIP3   OH229339   6.256   3.116  17.682  0.8757 -0.3787 -0.5887
 1715TIP3    H129340   6.161   3.121  17.682  0.6303 -3.1926 -1.5050
 1715TIP3    H229341   6.280   3.123  17.589  1.5173 -0.1238 -0.4093
 1716TIP3   OH229342   0.110   2.410  17.471  0.3890  0.5511  0.1183
 1716TIP3    H129343   0.171   2.337  17.478  0.4324  0.7121  1.9817
 1716TIP3    H229344   0.118   2.457  17.555 -0.0493  2.3676 -0.7984
 1717TIP3   OH229345   3.509   5.060  17.597 -0.0027 -0.1446  0.0612
 1717TIP3    H129346   3.549   5.087  17.514  1.6276 -1.0450  0.5051
 1717TIP3    H229347   3.417   5.046  17.575  0.1803  0.6518 -1.3472
 1718TIP3   OH229348   2.389   4.988  17.558 -0.4234  0.2118 -0.2960
 1718TIP3    H129349   2.313   5.023  17.604 -0.6140 -1.0949  0.4403
 1718TIP3    H229350   2.449   5.062  17.549 -1.6745  1.1983 -0.6697
 1719TIP3   OH229351   0.282   4.002  17.178  0.6337  0.1007 -0.1459
 1719TIP3    H129352   0.294   3.908  17.168 -0.2372  0.0028 -0.2888
 1719TIP3    H229353   0.207   4.011  17.237  1.2629  0.7046  0.5897
 1720TIP3   OH229354   3.361   5.943  16.992 -0.3236  0.0968  0.5027
 1720TIP3    H129355   3.330   6.032  16.977  1.2943  0.9328  1.7846
 1720TIP3    H229356   3.449   5.954  17.029 -0.7613 -1.9764  2.3342
 1721TIP3   OH229357   1.992   1.078  17.290 -0.0336 -0.0554 -0.2158
 1721TIP3    H129358   1.936   1.011  17.330  1.0420 -0.7513  0.1421
 1721TIP3    H229359   2.053   1.104  17.359  0.5172  0.2195 -0.7936
 1722TIP3   OH229360   4.490   0.994  18.040  0.5525 -0.3981  0.1932
 1722TIP3    H129361   4.486   0.901  18.016  0.8349 -0.5058  0.5430
 1722TIP3    H229362   4.400   1.018  18.059  0.4074 -0.4652 -0.3929
 1723TIP3   OH229363   8.070   1.587  17.000 -0.0828  0.4728 -0.2127
 1723TIP3    H129364   8.077   1.655  16.933 -1.5846 -0.5676 -1.5103
 1723TIP3    H229365   7.976   1.583  17.020  0.1914 -0.1205  1.0282
 1724TIP3   OH229366   0.463   4.123  16.161  0.3701  0.9419 -0.2103
 1724TIP3    H129367   0.492   4.050  16.106  1.4976  1.7218 -0.6827
 1724TIP3    H229368   0.536   4.139  16.221  1.2679  3.3066 -1.7900
 1725TIP3   OH229369   3.389   6.931  17.785 -0.4827  0.2471  0.2378
 1725TIP3    H129370   3.446   6.854  17.791 -0.4797  0.1556 -0.8302
 1725TIP3    H229371   3.311   6.899  17.739 -1.3049  0.4332  1.4439
 1726TIP3   OH229372   6.556   2.485  15.693  0.4778 -0.1837 -0.2348
 1726TIP3    H129373   6.534   2.392  15.688 -0.5570  0.0437 -0.1169
 1726TIP3    H229374   6.505   2.517  15.767 -1.7088  1.1397 -2.1740
 1727TIP3   OH229375   2.914   7.720  17.710 -0.2374  0.2103  0.0172
 1727TIP3    H129376   2.929   7.650  17.774  0.7908 -0.0250 -0.4761
 1727TIP3    H229377   2.999   7.760  17.697 -0.5728  0.7202 -0.6822
 1728TIP3   OH229378   5.772   6.408  17.148  0.2183  0.4789 -0.2715
 1728TIP3    H129379   5.721   6.485  17.124 -1.3632 -0.3636  0.2833
 1728TIP3    H229380   5.819   6.435  17.227  0.1634  1.0676 -0.4318
 1729TIP3   OH229381   3.744   4.830  16.773 -0.4498  0.2472  0.3947
 1729TIP3    H129382   3.653   4.855  16.755 -0.4876  0.9615  1.5060
 1729TIP3    H229383   3.797   4.888  16.718 -0.6438  0.2431  0.2009
 1730TIP3   OH229384   0.581   6.936  17.917  0.5871  0.5374 -0.0594
 1730TIP3    H129385   0.658   6.943  17.974  1.4743  0.1149 -1.1654
 1730TIP3    H229386   0.507   6.932  17.977  1.2303  2.9378  1.0122
 1731TIP3   OH229387   7.170   4.317  16.065 -0.0873  0.3932  0.7553
 1731TIP3    H129388   7.230   4.320  15.990 -0.7787 -0.5307  0.1481
 1731TIP3    H229389   7.162   4.224  16.086 -0.8857  0.5475  1.1793
 1732TIP3   OH229390   7.204   5.485  15.859 -0.1288 -0.0979  0.1159
 1732TIP3    H129391   7.124   5.520  15.899 -0.5394 -0.8121 -0.0492
 1732TIP3    H229392   7.267   5.556  15.865 -0.1283 -0.1921  2.1509
 1733TIP3   OH229393   3.856   4.835  17.331 -0.2670  0.3851 -0.3038
 1733TIP3    H129394   3.771   4.799  17.307 -0.0962 -0.4780  0.3413
 1733TIP3    H229395   3.918   4.790  17.273 -0.1991  0.7050 -0.4828
 1734TIP3   OH229396   6.227   3.647  17.411 -0.4903  0.3035 -0.3917
 1734TIP3    H129397   6.296   3.654  17.345  0.7194  0.4455  0.8449
 1734TIP3    H229398   6.173   3.724  17.398 -0.0389  0.5287 -0.9774
 1735TIP3   OH229399   8.394   8.058  17.525  0.6180  0.0977 -0.2899
 1735TIP3    H129400   8.453   7.992  17.489  1.2473 -0.9824  2.4936
 1735TIP3    H229401   8.322   8.008  17.562  0.5307  1.0333  0.8556
 1736TIP3   OH229402   2.237   2.305  16.443  0.0902 -0.0646  0.3958
 1736TIP3    H129403   2.307   2.258  16.488 -0.7409 -0.7333  1.0098
 1736TIP3    H229404   2.206   2.370  16.506 -0.4537 -0.3839  0.4636
 1737TIP3   OH229405   1.357   8.290  17.474 -0.4413  0.0969  0.2141
 1737TIP3    H129406   1.432   8.312  17.419 -1.3560 -0.7263 -1.4520
 1737TIP3    H229407   1.393   8.237  17.545  0.8948  1.8768  0.9117
 1738TIP3   OH229408   6.071   2.802  16.167  0.1251  0.4983 -0.1556
 1738TIP3    H129409   6.158   2.780  16.133 -0.5661  0.4111 -1.9219
 1738TIP3    H229410   6.021   2.721  16.161 -0.2573  0.6922  0.3295
 1739TIP3   OH229411   7.143   7.612  16.335 -0.0358  0.2357  0.4182
 1739TIP3    H129412   7.087   7.550  16.287 -0.5334  0.4965  0.6597
 1739TIP3    H229413   7.204   7.556  16.384  1.1221 -0.0404 -1.2319
 1740TIP3   OH229414   7.341   5.398  16.267 -0.2666 -0.4527 -0.0208
 1740TIP3    H129415   7.363   5.487  16.240  2.0235 -0.3666  1.9105
 1740TIP3    H229416   7.361   5.345  16.190  2.7741  0.2010  0.2043
 1741TIP3   OH229417   2.386   2.916  16.293 -0.0190 -0.2476 -0.3823
 1741TIP3    H129418   2.323   2.970  16.245 -0.1766 -0.7561 -0.7634
 1741TIP3    H229419   2.340   2.890  16.373  0.2565  0.6340  0.0650
 1742TIP3   OH229420   3.331   0.913  17.249 -0.4535  0.2520 -0.3685
 1742TIP3    H129421   3.411   0.866  17.225 -0.1434  0.2498  0.6228
 1742TIP3    H229422   3.261   0.868  17.202  0.1291  0.2815 -1.2780
 1743TIP3   OH229423   5.001   0.117  17.576 -0.0463 -0.0750 -0.1516
 1743TIP3    H129424   5.020   0.140  17.667 -3.7818  0.3329  0.6607
 1743TIP3    H229425   4.942   0.185  17.545  1.0457 -0.2608 -2.9227
 1744TIP3   OH229426   2.151   0.386  17.606  0.3169 -0.3430 -0.4590
 1744TIP3    H129427   2.118   0.359  17.520  1.5321  0.0253 -1.0688
 1744TIP3    H229428   2.230   0.333  17.619  0.0278 -0.5425  0.5324
 1745TIP3   OH229429   2.396   6.328  17.192 -0.3301  0.4521 -0.1001
 1745TIP3    H129430   2.459   6.386  17.233 -1.7479  0.7339  1.8147
 1745TIP3    H229431   2.380   6.368  17.106  0.6329  1.4413  0.1516
 1746TIP3   OH229432   4.803   5.401  17.493 -0.2279 -0.0916  0.3944
 1746TIP3    H129433   4.890   5.425  17.461  0.0742 -0.6999  0.7388
 1746TIP3    H229434   4.769   5.481  17.531  0.2010  0.1462  0.2875
 1747TIP3   OH229435   5.860   5.788  16.141 -0.3994 -0.1845  0.0896
 1747TIP3    H129436   5.833   5.700  16.115 -0.2849 -0.0077 -0.6359
 1747TIP3    H229437   5.854   5.787  16.237 -0.0510 -1.0958  0.1175
 1748TIP3   OH229438   6.929   3.820  16.981  0.2705 -0.0188  0.2516
 1748TIP3    H129439   6.871   3.766  16.929  2.6828 -1.3359 -1.2829
 1748TIP3    H229440   6.959   3.762  17.052 -0.1634  0.5985  0.9567
 1749TIP3   OH229441   4.299   7.909  16.550  0.2167 -0.0126 -0.4190
 1749TIP3    H129442   4.278   7.948  16.465  0.8272 -1.6878 -1.3955
 1749TIP3    H229443   4.220   7.859  16.573  0.0879  0.3611 -0.0424
 1750TIP3   OH229444   6.979   0.796  17.117  0.5727 -0.2967 -0.0756
 1750TIP3    H129445   7.062   0.821  17.077 -0.0143  2.2674  0.1287
 1750TIP3    H229446   6.930   0.752  17.047 -0.0081  3.1034 -2.0309
 1751TIP3   OH229447   5.266   7.645  18.090 -0.3419 -0.2451  0.1618
 1751TIP3    H129448   5.185   7.596  18.094 -0.5295 -0.0839 -1.2086
 1751TIP3    H229449   5.248   7.725  18.139 -0.5172 -0.8504  1.1121
 1752TIP3   OH229450   6.962   1.418  15.763 -0.4403 -0.2816 -0.9741
 1752TIP3    H129451   6.946   1.474  15.687  1.4632  3.2562  0.9743
 1752TIP3    H229452   6.877   1.414  15.808 -1.1400 -0.9118 -2.2881
 1753TIP3   OH229453   1.028   4.939  17.107 -0.0932  0.4624  0.6357
 1753TIP3    H129454   0.938   4.952  17.137 -0.7152  0.9386 -1.3524
 1753TIP3    H229455   1.054   4.856  17.148 -2.2038 -0.8021 -0.4370
 1754TIP3   OH229456   4.902   5.565  15.682 -0.3274 -0.5758  0.1193
 1754TIP3    H129457   4.855   5.640  15.644 -0.2625 -1.8158 -2.5966
 1754TIP3    H229458   4.836   5.496  15.686  0.1614 -1.0156  0.5295
 1755TIP3   OH229459   5.882   1.500  16.403 -0.3658  0.2175  0.1296
 1755TIP3    H129460   5.977   1.510  16.409 -0.3620  1.2463 -1.1589
 1755TIP3    H229461   5.869   1.410  16.375  0.3115  0.4442 -0.9615
 1756TIP3   OH229462   3.124   8.004  16.420 -0.0347 -0.2776  0.3352
 1756TIP3    H129463   3.087   7.928  16.466  0.9491 -0.9447  0.0395
 1756TIP3    H229464   3.174   8.050  16.487 -1.2550  0.5608  0.7063
 1757TIP3   OH229465   5.779   5.414  17.778 -0.5431  0.2347 -0.3733
 1757TIP3    H129466   5.852   5.360  17.748 -1.9452 -1.1952 -1.4384
 1757TIP3    H229467   5.805   5.445  17.864  0.6350 -1.5966 -0.0211
 1758TIP3   OH229468   7.697   5.332  17.937  0.5810 -0.5082  0.4582
 1758TIP3    H129469   7.670   5.400  18.000  1.3106  1.3153 -1.1184
 1758TIP3    H229470   7.614   5.296  17.905  0.1398  0.6899  0.2164
 1759TIP3   OH229471   2.449   3.800  16.974 -0.1368 -0.3743  0.5148
 1759TIP3    H129472   2.369   3.831  17.016 -0.3227 -0.7062  0.4130
 1759TIP3    H229473   2.496   3.879  16.950 -2.4632  0.0824 -3.4519
 1760TIP3   OH229474   6.374   7.204  17.527 -0.4401  0.4535 -0.1821
 1760TIP3    H129475   6.347   7.114  17.547  1.5673  0.1717  1.7992
 1760TIP3    H229476   6.461   7.194  17.487 -0.5633  1.4817 -0.7281
 1761TIP3   OH229477   3.425   1.882  16.950 -0.2524  0.5595  0.5718
 1761TIP3    H129478   3.507   1.833  16.947  1.6347  3.3130  2.3577
 1761TIP3    H229479   3.407   1.894  17.043 -2.1773  0.8727  0.2062
 1762TIP3   OH229480   7.492   1.574  17.782  0.2105 -0.4760  0.4134
 1762TIP3    H129481   7.548   1.538  17.850 -1.7573 -1.5504  1.5503
 1762TIP3    H229482   7.485   1.504  17.717  0.0971 -0.3825  0.3248
 1763TIP3   OH229483   5.299   5.616  17.509  0.0180 -0.0440 -0.1369
 1763TIP3    H129484   5.248   5.664  17.574 -0.2066  1.8592 -1.6000
 1763TIP3    H229485   5.364   5.567  17.560 -1.6273 -0.5055  1.6123
 1764TIP3   OH229486   2.887   6.622  17.727  0.0862 -0.2038 -0.2080
 1764TIP3    H129487   2.877   6.527  17.719  0.6902 -0.2888  0.0313
 1764TIP3    H229488   2.979   6.635  17.750 -0.7637  0.2081  3.4950
 1765TIP3   OH229489   7.646   4.075  17.124 -0.1459  0.5187 -0.5552
 1765TIP3    H129490   7.633   4.128  17.045  3.0459  0.9229 -0.9350
 1765TIP3    H229491   7.643   3.985  17.092 -2.6811  0.4785 -0.3976
 1766TIP3   OH229492   1.991   3.445  17.044  0.0525 -0.0515  0.5787
 1766TIP3    H129493   1.985   3.351  17.026 -0.2904  0.1201 -0.2383
 1766TIP3    H229494   2.046   3.451  17.122  2.4954 -0.7613 -0.9980
 1767TIP3   OH229495   6.020   6.237  17.256 -0.5374  0.9123 -0.0000
 1767TIP3    H129496   5.964   6.239  17.333 -1.0290 -0.5662 -0.2805
 1767TIP3    H229497   6.062   6.151  17.259  0.7419  1.4921 -0.4827
 1768TIP3   OH229498   4.695   4.136  17.947 -0.2312  0.3747  0.1481
 1768TIP3    H129499   4.766   4.072  17.942  0.0560  0.7185 -0.3611
 1768TIP3    H229500   4.615   4.084  17.940 -0.0381 -0.0308  0.8840
 1769TIP3   OH229501   5.427   2.995  17.026 -0.1023 -0.2482 -0.2112
 1769TIP3    H129502   5.439   3.012  17.119  0.2395 -0.9829 -0.1135
 1769TIP3    H229503   5.407   3.081  16.988  0.5865  0.1964  0.4031
 1770TIP3   OH229504   6.734   6.154  16.222  0.6974 -0.2341 -0.1879
 1770TIP3    H129505   6.670   6.153  16.151 -1.0588  2.5053  1.1864
 1770TIP3    H229506   6.722   6.070  16.266 -1.6557 -0.0151 -0.2866
 1771TIP3   OH229507   5.262   4.247  17.528 -0.2675  0.6852 -0.0871
 1771TIP3    H129508   5.238   4.184  17.460  1.5646 -0.9921  0.7187
 1771TIP3    H229509   5.326   4.201  17.582 -1.1891  2.1506  2.4516
 1772TIP3   OH229510   1.886   2.926  17.193  0.2661  0.2217  0.1037
 1772TIP3    H129511   1.815   2.911  17.131  0.7431  2.1909 -1.0168
 1772TIP3    H229512   1.846   2.916  17.279 -0.6789 -1.4247 -0.4945
 1773TIP3   OH229513   4.618   7.077  17.634 -0.0348 -0.0644  0.2182
 1773TIP3    H129514   4.561   7.144  17.671 -0.6900 -0.8652  0.7019
 1773TIP3    H229515   4.589   7.068  17.543 -1.0079 -0.7733  0.5769
 1774TIP3   OH229516   2.304   8.075  16.114 -0.0949 -0.1768  0.4036
 1774TIP3    H129517   2.239   8.010  16.087 -0.4483  0.0422  0.7117
 1774TIP3    H229518   2.332   8.117  16.032  0.4982 -1.0406  0.1539
 1775TIP3   OH229519   2.746   1.772  17.190 -0.4939 -0.1769 -0.3424
 1775TIP3    H129520   2.779   1.733  17.109  0.8362  0.1813 -0.0021
 1775TIP3    H229521   2.709   1.699  17.239 -1.6050 -0.3482 -1.3929
 1776TIP3   OH229522   2.337   1.904  16.325  0.3945  0.4808 -0.2108
 1776TIP3    H129523   2.325   1.826  16.270  0.0507 -0.2316  0.8329
 1776TIP3    H229524   2.372   1.869  16.407  1.8395  1.6349 -0.3114
 1777TIP3   OH229525   1.391   2.464  17.312  0.3831  0.1119  0.3739
 1777TIP3    H129526   1.386   2.487  17.405 -3.3524  0.1031  0.3134
 1777TIP3    H229527   1.417   2.546  17.269  0.9904  0.4246  1.3026
 1778TIP3   OH229528   0.101   1.342  16.304 -0.3845 -0.8550  0.0299
 1778TIP3    H129529   0.138   1.374  16.387 -2.7244  3.0764 -0.1925
 1778TIP3    H229530   0.017   1.304  16.330 -1.5214  1.1540 -0.4504
 1779TIP3   OH229531   4.982   0.112  16.719 -0.6187 -0.0474 -0.3153
 1779TIP3    H129532   4.989   0.201  16.686 -0.0306  1.0344  2.4125
 1779TIP3    H229533   4.971   0.058  16.641  0.5030  2.2344 -2.1900
 1780TIP3   OH229534   0.308   8.094  16.971 -0.2702 -0.1574  0.0007
 1780TIP3    H129535   0.392   8.130  16.944  0.2271 -1.9052 -0.9477
 1780TIP3    H229536   0.319   8.072  17.063 -0.0157  0.4856  0.1287
 1781TIP3   OH229537   4.219   7.089  16.712 -0.2558 -0.5100 -0.0646
 1781TIP3    H129538   4.236   7.169  16.760 -1.5423 -0.1410 -0.1998
 1781TIP3    H229539   4.161   7.038  16.768 -0.0307 -1.0235 -0.2906
 1782TIP3   OH229540   3.832   0.127  16.493  0.2002  0.3064 -0.1727
 1782TIP3    H129541   3.796   0.203  16.446 -0.4782 -0.1021 -0.3166
 1782TIP3    H229542   3.770   0.056  16.476  0.4501 -0.0967  0.5607
 1783TIP3   OH229543   0.352   3.263  16.160 -0.2853  0.1262 -0.1912
 1783TIP3    H129544   0.314   3.179  16.137  0.2223  0.0085 -0.6274
 1783TIP3    H229545   0.412   3.243  16.232 -0.3402  0.1527 -0.1386
 1784TIP3   OH229546   1.261   4.351  18.038 -0.1352 -0.3001 -0.0997
 1784TIP3    H129547   1.245   4.386  18.126 -1.9661  0.2274 -0.5978
 1784TIP3    H229548   1.356   4.354  18.029  0.0046  1.2583  1.2356
 1785TIP3   OH229549   5.323   5.562  17.167  0.4487  0.0759  0.0919
 1785TIP3    H129550   5.374   5.481  17.175  0.2163  0.0552  1.8350
 1785TIP3    H229551   5.234   5.532  17.151  0.4924  0.0056 -0.0179
 1786TIP3   OH229552   7.827   1.784  15.472  0.4797 -0.0924 -0.4454
 1786TIP3    H129553   7.808   1.717  15.407 -0.3804 -0.0203 -0.2787
 1786TIP3    H229554   7.884   1.741  15.535  2.0936  0.0962 -1.7094
 1787TIP3   OH229555   5.051   6.056  16.646 -0.2496 -0.2684 -0.0372
 1787TIP3    H129556   4.973   6.103  16.678  0.3237  0.0758  0.8928
 1787TIP3    H229557   5.055   5.977  16.699  0.2687 -0.0819  0.2024
 1788TIP3   OH229558   2.638   3.371  17.702  0.1820 -0.0580  0.0563
 1788TIP3    H129559   2.703   3.428  17.660  0.1912  0.2578  0.5022
 1788TIP3    H229560   2.618   3.305  17.635  1.1383 -0.2955 -0.0050
 1789TIP3   OH229561   1.269   4.076  14.957 -0.4007 -0.4599 -0.5730
 1789TIP3    H129562   1.307   4.152  14.914  0.5509 -0.2636  0.5622
 1789TIP3    H229563   1.339   4.010  14.955  0.2030  0.0165  1.8582
 1790TIP3   OH229564   4.836   6.653  17.997 -0.6158 -0.0032  0.2729
 1790TIP3    H129565   4.897   6.719  17.964 -2.8169  1.5140 -0.9972
 1790TIP3    H229566   4.819   6.678  18.087  0.4425 -0.3250  0.5753
 1791TIP3   OH229567   0.238   4.137  17.817  0.1566  0.4827  0.0548
 1791TIP3    H129568   0.315   4.187  17.845  0.8334 -0.6994  0.3660
 1791TIP3    H229569   0.255   4.048  17.848 -1.3349  0.1970  0.1062
 1792TIP3   OH229570   2.644   2.769  17.265 -0.2354 -0.3122  0.4242
 1792TIP3    H129571   2.735   2.757  17.291 -0.3419 -0.4793  0.7258
 1792TIP3    H229572   2.629   2.702  17.198 -0.5567 -1.2880  1.4295
 1793TIP3   OH229573   6.268   3.559  16.252  0.1217  0.9228  0.1043
 1793TIP3    H129574   6.315   3.545  16.170 -1.7018  0.3571 -0.9119
 1793TIP3    H229575   6.215   3.479  16.263 -0.5671  1.5065  1.1771
 1794TIP3   OH229576   6.919   1.676  16.845 -0.0835  0.0364 -0.0239
 1794TIP3    H129577   6.870   1.631  16.776  0.2436 -0.5977  0.1441
 1794TIP3    H229578   6.926   1.611  16.915 -0.9888  0.8930  0.8929
 1795TIP3   OH229579   0.643   1.791  16.703 -0.1087  0.1894 -0.1280
 1795TIP3    H129580   0.583   1.860  16.674 -1.0524 -0.3603  0.4602
 1795TIP3    H229581   0.605   1.760  16.786 -0.3042 -1.7472 -0.8978
 1796TIP3   OH229582   5.021   0.312  16.516 -0.2795 -0.1337  0.7020
 1796TIP3    H129583   5.093   0.266  16.474 -1.4300 -0.5184 -0.9937
 1796TIP3    H229584   5.056   0.399  16.535  0.6436 -0.3167 -0.0824
 1797TIP3   OH229585   3.503   6.499  16.579  0.6423  0.5664  0.6358
 1797TIP3    H129586   3.500   6.432  16.511  0.9185  0.1115  1.0662
 1797TIP3    H229587   3.534   6.578  16.533 -1.5228  0.9500 -0.2889
 1798TIP3   OH229588   5.512   3.844  17.086 -0.0084 -0.2258 -0.4308
 1798TIP3    H129589   5.532   3.750  17.086  0.8689 -0.0648  1.0442
 1798TIP3    H229590   5.562   3.878  17.011 -1.1605 -1.0647 -1.6217
 1799TIP3   OH229591   6.729   8.184  16.531 -0.9078 -0.5995  0.0940
 1799TIP3    H129592   6.797   8.118  16.549  1.1179  1.0423 -1.1613
 1799TIP3    H229593   6.752   8.219  16.446 -4.1286 -0.8126 -0.9831
 1800TIP3   OH229594   1.897   7.018  16.562 -0.4316  0.3288 -0.2380
 1800TIP3    H129595   1.837   6.958  16.517  0.1459 -1.4345  1.2511
 1800TIP3    H229596   1.841   7.065  16.624 -0.2912 -1.7062  1.5406
 1801TIP3   OH229597   7.573   6.719  16.820 -0.0496  0.6369  0.4685
 1801TIP3    H129598   7.540   6.712  16.910  1.1149 -0.6565  0.8303
 1801TIP3    H229599   7.630   6.796  16.821  0.5198  0.2144  1.0352
 1802TIP3   OH229600   3.558   8.194  16.649 -0.0914  0.1430 -0.2559
 1802TIP3    H129601   3.535   8.115  16.600 -0.1056  0.5453 -0.9055
 1802TIP3    H229602   3.475   8.242  16.656 -0.0658  0.1406  0.0651
 1803TIP3   OH229603   2.911   2.955  17.217 -0.0466 -0.5523  0.2235
 1803TIP3    H129604   2.998   2.916  17.221  0.2850 -0.0930 -1.3868
 1803TIP3    H229605   2.879   2.931  17.130 -1.4858 -0.6076  0.7468
 1804TIP3   OH229606   8.229   1.164  17.154  0.1583 -0.2297 -0.3941
 1804TIP3    H129607   8.144   1.202  17.133  0.2768  0.3255  0.1127
 1804TIP3    H229608   8.292   1.233  17.135  0.4786 -0.5539 -0.5345
 1805TIP3   OH229609   2.368   6.866  16.352 -0.5539 -0.0469 -0.5121
 1805TIP3    H129610   2.318   6.908  16.282 -0.8456  0.0445 -0.2512
 1805TIP3    H229611   2.314   6.791  16.378 -0.8035  0.3407  0.1135
 1806TIP3   OH229612   7.152   2.239  16.109  0.4266 -0.0307  0.3291
 1806TIP3    H129613   7.104   2.321  16.098  1.7115  0.4890 -1.9666
 1806TIP3    H229614   7.244   2.263  16.097  0.8647 -1.7179  0.1199
 1807TIP3   OH229615   6.949   2.006  17.201 -0.4664 -0.3224 -0.6028
 1807TIP3    H129616   6.909   1.958  17.128 -2.6957  0.0309  0.2972
 1807TIP3    H229617   7.039   1.975  17.204  0.1869  0.7316 -4.4392
 1808TIP3   OH229618   6.406   8.279  16.132  0.1907  0.8476 -0.1452
 1808TIP3    H129619   6.421   8.323  16.215 -2.1584 -0.6609  1.1814
 1808TIP3    H229620   6.480   8.220  16.123  0.3732  0.8770  1.0043
 1809TIP3   OH229621   1.231   5.863  17.900  0.8545 -0.2266 -0.8578
 1809TIP3    H129622   1.307   5.848  17.843  1.1541  1.6000 -0.9874
 1809TIP3    H229623   1.173   5.789  17.882  2.6321 -1.7422 -0.6735
 1810TIP3   OH229624   4.721   7.034  16.923  0.5822 -0.3265 -0.2349
 1810TIP3    H129625   4.770   7.043  17.005 -0.1532  1.9447  0.0307
 1810TIP3    H229626   4.787   7.010  16.858  1.3620 -1.0555  0.7821
 1811TIP3   OH229627   5.081   6.468  16.935  0.0436  0.2335  0.2534
 1811TIP3    H129628   5.053   6.421  17.014  0.8444 -1.8470 -0.6585
 1811TIP3    H229629   5.169   6.498  16.955 -0.1005  0.5334  0.4641
 1812TIP3   OH229630   7.275   6.352  16.195 -0.7933  0.2893 -0.7288
 1812TIP3    H129631   7.335   6.288  16.231 -1.0799 -0.0424 -0.8403
 1812TIP3    H229632   7.331   6.425  16.167 -0.3984 -0.2229 -1.2883
 1813TIP3   OH229633   5.025   6.018  17.650  0.5123  0.4482  0.1324
 1813TIP3    H129634   5.000   5.942  17.598  0.4886  0.7093 -0.2369
 1813TIP3    H229635   4.955   6.026  17.715 -0.1081  0.8670 -0.5737
 1814TIP3   OH229636   7.920   3.423  18.140 -0.4498  0.8102  0.3187
 1814TIP3    H129637   7.982   3.471  18.085  0.0287 -1.3146 -1.0942
 1814TIP3    H229638   7.971   3.395  18.216  0.0030  0.1605 -0.2194
 1815TIP3   OH229639   7.825   3.035  16.872  0.0931 -0.2537 -0.4236
 1815TIP3    H129640   7.878   3.084  16.809  1.7727 -1.2682  0.1161
 1815TIP3    H229641   7.744   3.015  16.824  0.3231  1.0217 -1.4176
 1816TIP3   OH229642   4.832   0.303  17.063  0.2942  0.0586  0.2926
 1816TIP3    H129643   4.905   0.364  17.056  1.4127 -1.1873  0.5803
 1816TIP3    H229644   4.862   0.225  17.017 -1.0404 -0.3348  0.0539
 1817TIP3   OH229645   7.978   5.264  17.885  0.0663 -0.2355  0.0901
 1817TIP3    H129646   7.882   5.271  17.891 -0.4633 -0.1683 -4.7634
 1817TIP3    H229647   7.995   5.169  17.887 -0.3724 -0.3513 -1.0440
 1818TIP3   OH229648   2.842   1.467  15.410 -0.1471 -0.2230 -0.3089
 1818TIP3    H129649   2.874   1.514  15.333  1.4077 -1.1037 -0.2493
 1818TIP3    H229650   2.919   1.459  15.466 -0.5986 -1.9847  0.1019
 1819TIP3   OH229651   3.051   7.853  17.348  0.0932  0.0134 -0.4204
 1819TIP3    H129652   3.005   7.917  17.294  0.5266 -0.1868 -1.0346
 1819TIP3    H229653   3.092   7.904  17.417 -1.7452  0.1265  0.6725
 1820TIP3   OH229654   7.880   7.381  17.298 -0.0978 -0.1482  0.6826
 1820TIP3    H129655   7.857   7.289  17.283 -2.6074  0.4191  0.6545
 1820TIP3    H229656   7.975   7.379  17.316 -0.1499 -2.7719  1.1095
 1821TIP3   OH229657   1.356   2.811  16.253 -0.0964  0.8788  0.2378
 1821TIP3    H129658   1.312   2.874  16.311  1.0176  0.2494  1.8408
 1821TIP3    H229659   1.387   2.743  16.312 -2.0225 -1.7181 -1.5226
 1822TIP3   OH229660   3.203   4.606  16.700  0.3683  0.0218  0.5305
 1822TIP3    H129661   3.143   4.604  16.625  0.4778  0.6661  0.4177
 1822TIP3    H229662   3.183   4.527  16.749 -0.5634  0.2234  0.4883
 1823TIP3   OH229663   8.425   3.221  16.154  0.0759  0.2640  0.3638
 1823TIP3    H129664   8.486   3.151  16.130  0.5895  0.7741  0.1650
 1823TIP3    H229665   8.471   3.302  16.132 -1.0678  0.6433 -0.7707
 1824TIP3   OH229666   7.316   4.886  17.681  0.0943  0.3479  0.3598
 1824TIP3    H129667   7.282   4.840  17.604  0.5020 -0.2388  0.5203
 1824TIP3    H229668   7.239   4.926  17.721 -0.2450 -0.0620  0.1267
 1825TIP3   OH229669   7.775   0.739  16.837  0.1830 -0.0575  0.0108
 1825TIP3    H129670   7.722   0.752  16.916  1.3157  1.7958  0.5232
 1825TIP3    H229671   7.775   0.645  16.824  0.0781 -0.4318  2.3131
 1826TIP3   OH229672   1.234   3.902  16.673  0.1813  0.0691 -0.1240
 1826TIP3    H129673   1.239   3.997  16.667 -0.4848  0.1230  0.0165
 1826TIP3    H229674   1.178   3.886  16.749 -0.1975 -0.4164 -0.4915
 1827TIP3   OH229675   1.251   6.817  17.933 -0.1773 -0.3164 -0.0625
 1827TIP3    H129676   1.240   6.754  17.862 -0.3684 -1.3099  0.8170
 1827TIP3    H229677   1.180   6.796  17.994  0.0403  0.4472  0.4683
 1828TIP3   OH229678   5.699   6.750  15.686  0.3771 -0.5038  0.2224
 1828TIP3    H129679   5.668   6.821  15.742  0.3320 -1.2721  1.2067
 1828TIP3    H229680   5.663   6.770  15.600  0.0086  0.4374  0.5791
 1829TIP3   OH229681   0.172   6.430  16.881 -0.1136  0.4616 -0.1145
 1829TIP3    H129682   0.233   6.495  16.916 -0.5540  1.1865 -0.6522
 1829TIP3    H229683   0.124   6.477  16.813 -1.0311 -0.1966  0.0589
 1830TIP3   OH229684   5.658   4.259  17.494 -0.4193  0.6399 -1.1262
 1830TIP3    H129685   5.650   4.299  17.580  1.4231 -0.0074 -0.6132
 1830TIP3    H229686   5.654   4.164  17.511  2.0731  0.4274 -1.4405
 1831TIP3   OH229687   2.929   1.529  16.018  0.2080  0.5947 -0.0174
 1831TIP3    H129688   2.917   1.566  15.931  1.6613  1.1852  0.0100
 1831TIP3    H229689   3.020   1.499  16.019  0.2771  0.7983  1.3727
 1832TIP3   OH229690   5.334   7.860  17.155 -1.1415 -0.3741 -0.0935
 1832TIP3    H129691   5.416   7.905  17.133 -1.0276 -0.4437  0.1874
 1832TIP3    H229692   5.285   7.859  17.073 -0.6057 -0.8711 -0.4168
 1833TIP3   OH229693   5.563   0.637  17.320 -0.4456 -0.6329 -0.1450
 1833TIP3    H129694   5.550   0.551  17.359 -0.1770 -0.5444  0.1439
 1833TIP3    H229695   5.480   0.683  17.333 -1.2710 -1.4905 -1.9669
 1834TIP3   OH229696   4.600   5.518  15.985  0.1300 -0.1431  0.7746
 1834TIP3    H129697   4.555   5.596  15.954  0.7429  0.4296  1.3169
 1834TIP3    H229698   4.628   5.473  15.905  1.3129  1.0857  0.4591
 1835TIP3   OH229699   6.631   0.557  15.680  0.1342 -0.5168  0.5740
 1835TIP3    H129700   6.686   0.535  15.755  0.8579 -1.0722 -0.0932
 1835TIP3    H229701   6.691   0.554  15.605 -0.7711 -0.9968 -0.1550
 1836TIP3   OH229702   2.672   3.003  16.043  0.0345 -0.5763 -0.2119
 1836TIP3    H129703   2.646   2.919  16.006  0.9396 -0.1701 -1.8553
 1836TIP3    H229704   2.742   3.035  15.986 -0.5420  1.4724  0.1171
 1837TIP3   OH229705   4.108   0.144  16.575  0.5237 -0.2416  0.5418
 1837TIP3    H129706   4.054   0.068  16.597  1.3791 -0.5124  1.7939
 1837TIP3    H229707   4.045   0.215  16.562 -0.3555 -1.3475 -1.6362
 1838TIP3   OH229708   4.371   0.890  15.773 -0.2313 -0.3468  0.4376
 1838TIP3    H129709   4.302   0.954  15.759 -1.2644 -0.3835  4.1861
 1838TIP3    H229710   4.433   0.934  15.832 -0.2101 -2.1934  1.8948
 1839TIP3   OH229711   5.656   2.772  16.199 -0.5464  0.5879 -0.3715
 1839TIP3    H129712   5.638   2.855  16.155  0.3342 -0.2783 -2.4891
 1839TIP3    H229713   5.657   2.707  16.129  0.7603 -0.9150  0.9635
 1840TIP3   OH229714   1.078   0.246  16.783 -0.5936  0.5050  0.2178
 1840TIP3    H129715   1.059   0.159  16.751 -0.3695  0.5908 -0.1568
 1840TIP3    H229716   0.993   0.282  16.808 -0.8717  0.7005 -0.9564
 1841TIP3   OH229717   2.442   5.802  16.356  0.0742  0.0135  0.2147
 1841TIP3    H129718   2.429   5.824  16.448  2.2198  1.0077  0.3493
 1841TIP3    H229719   2.357   5.820  16.315 -1.1261 -1.0819  2.0585
 1842TIP3   OH229720   0.234   3.710  17.439 -0.7000  0.2949 -0.5279
 1842TIP3    H129721   0.157   3.760  17.465 -0.2734  1.0780 -0.7208
 1842TIP3    H229722   0.308   3.765  17.467 -0.1727 -1.0730  0.9374
 1843TIP3   OH229723   6.578   4.044  16.666 -0.3552  0.5073 -0.1434
 1843TIP3    H129724   6.628   4.125  16.680 -1.8246  1.4277 -0.0548
 1843TIP3    H229725   6.508   4.069  16.605 -0.3064 -0.9237 -0.8179
 1844TIP3   OH229726   2.949   2.619  17.218  0.3781 -0.3444 -0.0448
 1844TIP3    H129727   3.000   2.638  17.140 -1.4618  1.7855 -0.8391
 1844TIP3    H229728   2.871   2.573  17.186  0.3550 -0.8654  0.7343
 1845TIP3   OH229729   6.441   7.605  17.542  0.4409 -0.1794  0.2336
 1845TIP3    H129730   6.379   7.657  17.594 -0.3832 -0.8311 -0.0827
 1845TIP3    H229731   6.471   7.665  17.474  1.0919  0.5057  1.1000
 1846TIP3   OH229732   4.015   1.214  16.503 -0.2378  0.0635  0.0192
 1846TIP3    H129733   4.063   1.171  16.574  0.8819  0.6379 -0.3743
 1846TIP3    H229734   4.037   1.306  16.512 -0.3670  0.1856 -0.8690
 1847TIP3   OH229735   0.791   7.619  15.746 -0.1022 -0.0932  0.4881
 1847TIP3    H129736   0.796   7.527  15.722  2.3011 -0.3332  1.6345
 1847TIP3    H229737   0.704   7.630  15.784 -0.9150 -1.5385 -0.8372
 1848TIP3   OH229738   3.678   2.463  16.397 -0.3068  0.4256  0.2713
 1848TIP3    H129739   3.606   2.470  16.333 -0.2177 -0.5799  0.0557
 1848TIP3    H229740   3.741   2.405  16.356  1.1055  2.0437  0.0447
 1849TIP3   OH229741   7.958   7.972  16.833  0.4404 -0.0726  0.3564
 1849TIP3    H129742   7.963   7.882  16.865 -0.9169 -1.1290 -2.1697
 1849TIP3    H229743   7.877   8.006  16.872 -1.3348 -1.4294 -1.9183
 1850TIP3   OH229744   4.493   5.711  16.396 -0.2210  0.3745  0.7889
 1850TIP3    H129745   4.497   5.677  16.485 -0.2939 -1.3032  0.1919
 1850TIP3    H229746   4.547   5.651  16.345 -0.0393  1.4107 -0.2741
 1851TIP3   OH229747   4.109   7.235  15.449 -0.4649 -0.2880  0.0377
 1851TIP3    H129748   4.170   7.288  15.500 -0.5504 -0.2195  0.0685
 1851TIP3    H229749   4.141   7.243  15.359 -0.8174  0.2883 -0.0417
 1852TIP3   OH229750   4.718   4.099  16.905 -0.1761  0.0564 -0.0333
 1852TIP3    H129751   4.783   4.030  16.899 -0.5136 -0.1874 -1.1656
 1852TIP3    H229752   4.654   4.078  16.838 -2.1257 -0.4082  1.8636
 1853TIP3   OH229753   3.994   2.415  16.611  0.2805 -0.0745  0.1318
 1853TIP3    H129754   4.089   2.404  16.611  0.1889 -2.3167  3.4093
 1853TIP3    H229755   3.960   2.333  16.574 -0.3440 -0.1196  0.7675
 1854TIP3   OH229756   7.179   3.611  16.681  0.0461  0.2233 -0.1688
 1854TIP3    H129757   7.272   3.608  16.705 -0.0086  2.0540  0.3836
 1854TIP3    H229758   7.176   3.570  16.595  1.1197 -1.2292  0.4396
 1855TIP3   OH229759   3.607   0.635  16.854  0.7941 -0.0031  0.3034
 1855TIP3    H129760   3.669   0.587  16.909  1.3449 -1.1438 -1.2498
 1855TIP3    H229761   3.521   0.609  16.887  1.0109 -3.1449 -1.2291
 1856TIP3   OH229762   0.069   1.226  15.657 -0.3857  0.1660  0.3389
 1856TIP3    H129763   0.052   1.133  15.676 -0.1469 -0.1951 -1.0551
 1856TIP3    H229764   0.164   1.233  15.655 -0.3756  0.0454 -1.1397
 1857TIP3   OH229765   2.442   3.131  15.727 -0.1386 -0.0188  0.1203
 1857TIP3    H129766   2.468   3.164  15.813 -0.5452  0.9093 -0.0921
 1857TIP3    H229767   2.392   3.203  15.688 -1.2828 -0.9916 -0.2836
 1858TIP3   OH229768   2.637   8.053  17.415 -0.9250  0.1010  0.1328
 1858TIP3    H129769   2.645   8.065  17.509  0.3272  0.0698  0.0405
 1858TIP3    H229770   2.587   8.129  17.385 -1.5623 -0.0256  0.8446
 1859TIP3   OH229771   3.926   7.174  16.283 -0.1153  0.2791 -0.0567
 1859TIP3    H129772   3.919   7.247  16.222 -0.9133  0.8491  0.6991
 1859TIP3    H229773   3.918   7.213  16.370 -2.2608 -0.8510  0.3246
 1860TIP3   OH229774   5.258   3.290  16.405 -0.3682  0.0944  0.0769
 1860TIP3    H129775   5.323   3.339  16.355  0.1218  1.0484  1.5665
 1860TIP3    H229776   5.181   3.287  16.349  0.3600  0.5532 -0.9753
 1861TIP3   OH229777   0.671   6.338  17.693 -0.1779 -0.2182 -0.5352
 1861TIP3    H129778   0.606   6.399  17.727  0.1255 -0.4118  0.4419
 1861TIP3    H229779   0.641   6.252  17.723 -0.4053 -0.5175 -1.5837
 1862TIP3   OH229780   6.643   2.000  16.240 -0.3318  0.1910  0.1500
 1862TIP3    H129781   6.704   2.059  16.283 -0.7721 -0.8446  2.3606
 1862TIP3    H229782   6.689   1.970  16.162  2.6563 -1.6328  2.4050
 1863TIP3   OH229783   2.906   2.365  16.520 -0.1557 -0.1593  0.2107
 1863TIP3    H129784   2.891   2.421  16.445 -0.7124 -0.1406  0.3261
 1863TIP3    H229785   2.864   2.282  16.497  1.7785 -0.9986 -0.5031
 1864TIP3   OH229786   7.087   6.876  17.366 -0.0575  0.3286 -0.1232
 1864TIP3    H129787   7.105   6.935  17.438 -0.0845  1.1358 -0.7681
 1864TIP3    H229788   7.153   6.896  17.300  0.5127 -1.0031  0.0134
 1865TIP3   OH229789   2.526   2.349  15.707 -0.5935 -0.0802  0.1557
 1865TIP3    H129790   2.506   2.395  15.789  0.7596  0.4140  0.2314
 1865TIP3    H229791   2.591   2.283  15.731 -2.3514 -1.9691  0.0028
 1866TIP3   OH229792   0.806   4.215  17.344  0.1836  0.3931 -0.0573
 1866TIP3    H129793   0.840   4.162  17.272 -1.2372  0.0575 -0.5064
 1866TIP3    H229794   0.711   4.211  17.335 -0.1690 -1.2510  2.9387
 1867TIP3   OH229795   4.862   6.890  16.689  0.1221 -0.4086 -0.1129
 1867TIP3    H129796   4.941   6.945  16.687 -0.6338  0.6990 -0.9985
 1867TIP3    H229797   4.878   6.828  16.760  1.6554 -0.0087 -0.0664
 1868TIP3   OH229798   7.989   4.962  16.252 -0.7496  0.4002  0.0989
 1868TIP3    H129799   7.979   4.938  16.160  1.4520  0.1624 -0.1290
 1868TIP3    H229800   7.942   5.046  16.261 -1.9079 -0.1178 -0.9502
 1869TIP3   OH229801   3.765   2.795  16.777 -0.4700 -0.5528  0.0249
 1869TIP3    H129802   3.787   2.713  16.732  1.0809  0.0344 -0.3558
 1869TIP3    H229803   3.742   2.856  16.707 -0.5948 -0.3659  0.2260
 1870TIP3   OH229804   2.175   6.325  18.011 -0.5962 -0.0571 -0.2799
 1870TIP3    H129805   2.159   6.265  18.084 -0.1626  2.4020  2.0039
 1870TIP3    H229806   2.118   6.400  18.030  0.9528  1.4701 -1.4125
 1871TIP3   OH229807   2.719   5.774  16.309 -0.3690 -0.1167  0.0926
 1871TIP3    H129808   2.713   5.869  16.303 -2.4273 -0.1850  0.1877
 1871TIP3    H229809   2.634   5.748  16.345  0.4581 -1.9358  0.8373
 1872TIP3   OH229810   5.850   4.426  17.170  0.0930  0.3317 -0.4517
 1872TIP3    H129811   5.808   4.390  17.092  1.3754 -2.7986  0.1132
 1872TIP3    H229812   5.778   4.459  17.224 -1.2326 -1.0912 -1.2640
 1873TIP3   OH229813   5.788   0.294  16.775  0.6733  0.4177  0.2654
 1873TIP3    H129814   5.840   0.252  16.843 -0.1055 -1.3673 -0.1893
 1873TIP3    H229815   5.710   0.325  16.821 -1.0168 -2.8922 -0.0478
 1874TIP3   OH229816   3.809   0.741  16.500  0.1390  0.2770  0.5920
 1874TIP3    H129817   3.860   0.782  16.430  0.0278 -0.7614 -0.1314
 1874TIP3    H229818   3.780   0.657  16.462 -1.9291  0.7316  1.0380
 1875TIP3   OH229819   2.542   6.960  16.521  0.4451 -0.5124  0.0527
 1875TIP3    H129820   2.591   6.885  16.554  2.3552 -0.0227 -1.4842
 1875TIP3    H229821   2.473   6.921  16.466  1.2062 -1.1689 -0.4536
 1876TIP3   OH229822   6.232   1.561  17.081 -0.5475  0.6597  0.0883
 1876TIP3    H129823   6.327   1.549  17.083 -0.6564 -0.2147  1.4346
 1876TIP3    H229824   6.201   1.519  17.162 -2.3716 -1.9772 -1.7849
 1877TIP3   OH229825   7.502   2.030  16.975 -0.4202  0.4580  0.3159
 1877TIP3    H129826   7.493   2.122  17.001 -1.5378  0.3636  0.3242
 1877TIP3    H229827   7.590   2.024  16.938 -0.7099  1.7795 -0.6592
 1878TIP3   OH229828   2.109   7.224  16.677  0.0598  0.2741 -0.3377
 1878TIP3    H129829   2.053   7.147  16.672  0.5682 -0.0612 -1.1151
 1878TIP3    H229830   2.093   7.270  16.594  1.4081 -0.1729 -0.8668
 1879TIP3   OH229831   3.110   3.430  15.417 -0.3771  0.0439  0.0107
 1879TIP3    H129832   3.182   3.487  15.394  1.2822 -1.3085  1.5604
 1879TIP3    H229833   3.059   3.479  15.481  0.6095  0.0934  0.7737
 1880TIP3   OH229834   6.507   0.885  16.227 -0.3780  1.1092 -0.4047
 1880TIP3    H129835   6.527   0.806  16.276 -0.1924  1.4297  0.0484
 1880TIP3    H229836   6.519   0.861  16.135 -0.5043  0.5655 -0.2792
 1881TIP3   OH229837   2.075   0.952  17.062  0.0945  0.1793 -0.1920
 1881TIP3    H129838   2.105   0.866  17.091 -1.9018 -0.4241  0.1695
 1881TIP3    H229839   2.050   0.997  17.143  1.6223  1.3460 -0.3207
 1882TIP3   OH229840   8.044   0.461  17.464  0.9076  0.3046  0.8928
 1882TIP3    H129841   8.087   0.428  17.542  0.4235 -0.7836  0.7256
 1882TIP3    H229842   8.079   0.408  17.393  0.4540  0.4592  0.5462
 1883TIP3   OH229843   5.254   0.275  16.368 -0.4110  0.4175  0.5107
 1883TIP3    H129844   5.300   0.209  16.317 -0.5561  1.5925 -1.2532
 1883TIP3    H229845   5.315   0.301  16.436 -0.2777 -1.3441  1.1097
 1884TIP3   OH229846   4.981   8.034  17.326 -0.1991  0.1598 -0.4287
 1884TIP3    H129847   4.978   8.127  17.348  1.1289  0.4075 -1.2191
 1884TIP3    H229848   5.068   8.006  17.352 -0.7137 -0.9614  0.1291
 1885TIP3   OH229849   6.746   1.114  16.519  0.6259 -0.0624 -0.1187
 1885TIP3    H129850   6.657   1.116  16.483  0.0145  0.2805  1.3093
 1885TIP3    H229851   6.802   1.095  16.444 -0.3111  2.6642 -1.6547
 1886TIP3   OH229852   0.560   3.951  16.599  0.4076  0.8222  0.0902
 1886TIP3    H129853   0.512   4.013  16.653 -0.4396  1.2613 -1.0967
 1886TIP3    H229854   0.575   3.998  16.516  2.5183  0.5251  0.2549
 1887TIP3   OH229855   0.526   5.873  16.432 -0.3224  0.2245 -0.4198
 1887TIP3    H129856   0.511   5.895  16.340  0.2370 -0.4694 -0.6891
 1887TIP3    H229857   0.616   5.903  16.449 -0.5762  0.7592  0.0394
 1888TIP3   OH229858   7.462   3.307  16.803 -0.3200  0.1442 -0.0641
 1888TIP3    H129859   7.456   3.402  16.817  0.2401  0.0631  0.7547
 1888TIP3    H229860   7.554   3.291  16.785 -0.5488 -0.1482 -1.0524
 1889TIP3   OH229861   1.606   2.372  16.709 -0.1218 -0.2652 -0.5025
 1889TIP3    H129862   1.692   2.334  16.724  0.0416  0.1745 -0.3020
 1889TIP3    H229863   1.582   2.344  16.621  0.9037  0.8878 -1.1810
 1890TIP3   OH229864   3.447   0.460  17.526 -0.0961 -0.2729  0.0493
 1890TIP3    H129865   3.509   0.403  17.480 -0.6840 -0.3449 -0.6698
 1890TIP3    H229866   3.500   0.534  17.557  0.3591 -0.3630 -0.5093
 1891TIP3   OH229867   0.218   6.100  15.956 -0.1867  0.2488 -0.2824
 1891TIP3    H129868   0.263   6.017  15.941 -0.5284  0.0001  0.0691
 1891TIP3    H229869   0.288   6.166  15.953 -0.0174  0.0419 -1.3612
 1892TIP3   OH229870   7.645   1.052  16.050 -0.1151  0.1905 -0.5198
 1892TIP3    H129871   7.691   1.129  16.083 -1.6609  0.5102  0.9860
 1892TIP3    H229872   7.554   1.065  16.074 -0.4368 -2.0957 -0.2306
 1893TIP3   OH229873   7.079   7.965  17.810 -0.2074  0.1581  0.5372
 1893TIP3    H129874   7.026   8.044  17.822 -0.5155  0.2912 -1.3221
 1893TIP3    H229875   7.033   7.897  17.859 -1.9985  0.3290 -0.8169
 1894TIP3   OH229876   5.513   1.518  15.950  0.4060  0.2003  0.1072
 1894TIP3    H129877   5.434   1.553  15.910  0.5955 -0.4352 -0.8517
 1894TIP3    H229878   5.523   1.431  15.913  1.0330 -0.1097  0.9494
 1895TIP3   OH229879   1.401   1.999  15.728 -0.4345 -0.1027 -0.6911
 1895TIP3    H129880   1.439   1.954  15.652  0.5333 -1.7727  0.6988
 1895TIP3    H229881   1.309   1.975  15.726 -0.5877  0.5366 -1.7763
 1896TIP3   OH229882   3.215   7.960  17.004 -0.5577 -0.0651  0.3140
 1896TIP3    H129883   3.163   7.884  17.032  0.4248 -0.6547  0.6013
 1896TIP3    H229884   3.255   7.932  16.921 -1.5166  0.7768 -0.4629
 1897TIP3   OH229885   3.619   1.080  15.670 -0.2554  0.2590  0.3344
 1897TIP3    H129886   3.573   1.088  15.754  0.2587  1.4180  0.5203
 1897TIP3    H229887   3.657   1.167  15.655  1.9025 -0.6339  0.2148
 1898TIP3   OH229888   3.430   8.419  17.709 -0.7782  0.2627  0.2329
 1898TIP3    H129889   3.360   8.473  17.745 -0.9737 -0.0466  0.3217
 1898TIP3    H229890   3.449   8.457  17.624 -1.6179 -0.1395 -0.1454
 1899TIP3   OH229891   1.350   1.168  16.412  0.2044  0.2873 -0.0706
 1899TIP3    H129892   1.416   1.100  16.398 -0.0709 -0.0157  0.1021
 1899TIP3    H229893   1.387   1.245  16.369 -0.1943 -0.3791 -1.6734
 1900TIP3   OH229894   7.650   7.592  17.830 -0.2461 -0.2706 -0.1621
 1900TIP3    H129895   7.626   7.672  17.785 -2.6404 -1.6406 -1.5397
 1900TIP3    H229896   7.722   7.555  17.778 -0.4942  0.0013 -0.7009
 1901TIP3   OH229897   1.638   6.756  17.574 -0.3300 -0.1118 -0.4588
 1901TIP3    H129898   1.670   6.720  17.491  0.1659 -1.2765  0.2156
 1901TIP3    H229899   1.712   6.748  17.634 -1.3444 -1.3508  0.6971
 1902TIP3   OH229900   5.636   7.400  17.878 -0.4567 -0.1578 -0.5308
 1902TIP3    H129901   5.653   7.306  17.872 -1.0359 -0.2630 -0.5620
 1902TIP3    H229902   5.633   7.417  17.972  1.8104  0.2421 -0.4712
 1903TIP3   OH229903   4.993   4.289  16.102 -0.2481  0.0529 -0.3098
 1903TIP3    H129904   4.934   4.331  16.039 -1.1561  0.9517  1.0851
 1903TIP3    H229905   4.974   4.196  16.095 -3.2043  0.4059  1.3213
 1904TIP3   OH229906   8.100   0.063  16.151 -0.7862  0.1497  0.2168
 1904TIP3    H129907   8.166   0.127  16.124  0.4094 -1.6030 -1.2728
 1904TIP3    H229908   8.131  -0.020  16.115 -3.6821 -0.8238 -0.2935
 1905TIP3   OH229909   5.659   4.516  17.358 -0.1799 -0.2884 -0.1445
 1905TIP3    H129910   5.571   4.554  17.354 -0.7861 -1.6452 -0.7034
 1905TIP3    H229911   5.645   4.431  17.400  0.9705 -0.2662  0.2933
 1906TIP3   OH229912   0.032   6.063  17.460 -0.4944 -0.2097 -0.2610
 1906TIP3    H129913  -0.053   6.073  17.415 -0.9859  1.1202  0.8887
 1906TIP3    H229914   0.084   6.136  17.427 -0.4048 -0.0018  0.3473
 1907TIP3   OH229915   1.613   3.442  17.643  0.2566 -0.0160 -0.0713
 1907TIP3    H129916   1.668   3.517  17.620  0.3163 -0.1286 -0.3021
 1907TIP3    H229917   1.675   3.371  17.660  0.2551  0.2912  1.3151
 1908TIP3   OH229918   6.799   6.100  17.041  0.0268  0.2395 -0.2632
 1908TIP3    H129919   6.778   6.175  17.096 -1.1758  0.3378 -0.8240
 1908TIP3    H229920   6.764   6.025  17.088  0.3019  0.1535 -0.1960
 1909TIP3   OH229921   5.501   7.462  18.109 -0.2606 -0.0911  0.0777
 1909TIP3    H129922   5.422   7.514  18.096  0.1033  0.0687 -1.7652
 1909TIP3    H229923   5.469   7.376  18.137 -1.0732  0.0303 -0.4507
 1910TIP3   OH229924   0.800   6.498  17.329 -0.4204 -0.6547 -0.6999
 1910TIP3    H129925   0.715   6.499  17.372  0.3032 -0.3059  0.8036
 1910TIP3    H229926   0.854   6.442  17.385  0.8081  0.5590 -0.6195
 1911TIP3   OH229927   0.636   4.683  18.027 -0.5541 -1.0254 -0.2634
 1911TIP3    H129928   0.550   4.678  17.985 -0.9184 -1.6278  0.5265
 1911TIP3    H229929   0.669   4.594  18.025 -0.3552 -0.9676  0.2597
 1912TIP3   OH229930   2.793   7.092  16.550  0.0993  0.6215 -0.1880
 1912TIP3    H129931   2.803   6.997  16.563  0.0774  0.5180 -0.8678
 1912TIP3    H229932   2.699   7.107  16.555  0.1977  0.8220  1.2637
 1913TIP3   OH229933   3.887   5.236  16.697 -0.0947 -0.1036  0.3785
 1913TIP3    H129934   3.841   5.198  16.772  0.3740 -2.0393 -0.2802
 1913TIP3    H229935   3.822   5.294  16.657 -1.5664 -1.8098  0.2033
 1914TIP3   OH229936   0.346   3.559  15.368 -0.1805  0.4515 -0.6104
 1914TIP3    H129937   0.278   3.535  15.305  0.5476 -2.6490 -0.3692
 1914TIP3    H229938   0.298   3.587  15.446 -1.2131 -0.8736 -0.7389
 1915TIP3   OH229939   4.262   1.206  17.757  0.1499 -0.2737 -0.4909
 1915TIP3    H129940   4.358   1.209  17.752  0.1499 -1.1310 -1.7001
 1915TIP3    H229941   4.238   1.133  17.699 -1.1287 -1.4488  1.4221
 1916TIP3   OH229942   0.932   1.227  15.243  0.0036  0.0468 -0.3707
 1916TIP3    H129943   1.027   1.227  15.245  0.0791  2.0301 -1.3645
 1916TIP3    H229944   0.910   1.160  15.177  0.5673 -1.8638  1.2872
 1917TIP3   OH229945   4.378   3.913  16.200  0.3656 -0.3796  0.0725
 1917TIP3    H129946   4.413   3.824  16.210 -2.1715 -1.6476 -1.3641
 1917TIP3    H229947   4.405   3.940  16.112  0.4624 -0.0290  0.2073
 1918TIP3   OH229948   5.043   1.931  17.016  0.1855  0.1197  0.4544
 1918TIP3    H129949   4.952   1.905  17.032 -0.2182  2.0851  1.6618
 1918TIP3    H229950   5.083   1.854  16.976 -2.3458 -0.3834 -1.4086
 1919TIP3   OH229951   4.621   1.279  16.118 -0.3809 -0.4266 -0.7047
 1919TIP3    H129952   4.706   1.285  16.162 -0.3988  0.5189 -0.7863
 1919TIP3    H229953   4.576   1.360  16.139 -1.6709 -1.3177  0.1103
 1920TIP3   OH229954   5.820   5.343  17.457  0.0650  0.7948  0.4100
 1920TIP3    H129955   5.870   5.402  17.514 -1.0503  0.4762  1.7932
 1920TIP3    H229956   5.751   5.399  17.420 -0.1989  0.6502  0.6796
 1921TIP3   OH229957   5.685   1.835  17.378  0.2877 -0.9365 -0.4521
 1921TIP3    H129958   5.640   1.872  17.302  1.2488 -1.6358 -1.4006
 1921TIP3    H229959   5.760   1.789  17.341  2.5618  1.2596  1.1380
 1922TIP3   OH229960   6.136   8.138  16.027  0.4712 -0.0836 -0.0072
 1922TIP3    H129961   6.149   8.181  16.111  0.2991 -0.7228  0.3524
 1922TIP3    H229962   6.052   8.172  15.995  0.5235  0.1383  0.0953
 1923TIP3   OH229963   6.532   8.044  16.655  0.4758  0.4158 -0.2977
 1923TIP3    H129964   6.567   8.008  16.737  0.7476 -0.6337 -0.8635
 1923TIP3    H229965   6.595   8.112  16.630 -0.0482  1.3253  0.7848
 1924TIP3   OH229966   5.800   7.381  17.449 -0.4016  0.3665  0.3233
 1924TIP3    H129967   5.777   7.448  17.384  0.5169  0.2576 -0.1309
 1924TIP3    H229968   5.829   7.431  17.525  0.1608  0.5047  0.0306
 1925TIP3   OH229969   5.187   5.074  17.840  0.6460 -0.2412 -0.7788
 1925TIP3    H129970   5.142   5.157  17.857  0.1673 -0.5214 -0.6544
 1925TIP3    H229971   5.280   5.094  17.853  0.4211 -0.1346  0.9400
 1926TIP3   OH229972   3.272   3.612  17.201 -0.2938 -0.4618  0.1053
 1926TIP3    H129973   3.215   3.606  17.277 -2.8119  0.1879 -1.5709
 1926TIP3    H229974   3.307   3.524  17.189 -0.4220 -0.7266  1.5680
 1927TIP3   OH229975   0.923   6.312  17.499 -0.3891  0.5493 -0.4036
 1927TIP3    H129976   1.010   6.273  17.490 -0.8357 -0.5228 -0.2984
 1927TIP3    H229977   0.915   6.330  17.593 -2.3592 -4.7255  0.8259
 1928TIP3   OH229978   2.387   1.560  15.572 -0.0107  0.3859 -0.3184
 1928TIP3    H129979   2.374   1.470  15.601  1.1469  0.1494 -0.4752
 1928TIP3    H229980   2.299   1.590  15.547 -0.7092 -0.0827  1.4237
 1929TIP3   OH229981   2.961   4.472  15.814 -0.3640  0.5102  0.2267
 1929TIP3    H129982   2.995   4.500  15.728  0.3785  1.0674  0.6856
 1929TIP3    H229983   2.995   4.538  15.875 -0.7301  0.0112  0.9772
 1930TIP3   OH229984   2.995   7.336  16.814 -0.2350  0.3550  0.1941
 1930TIP3    H129985   2.998   7.328  16.718 -0.2982 -0.2811  0.2400
 1930TIP3    H229986   2.905   7.313  16.837  0.1724 -1.0221  0.5250
 1931TIP3   OH229987   2.866   1.618  16.963 -0.0823  0.2570 -0.1494
 1931TIP3    H129988   2.870   1.634  16.869  0.7201  0.4307 -0.1018
 1931TIP3    H229989   2.802   1.548  16.973  0.0155  0.0577 -0.8515
 1932TIP3   OH229990   6.758   0.064  17.193 -0.0304  0.2996 -0.3739
 1932TIP3    H129991   6.687   0.003  17.174 -0.4459  0.6876 -0.0897
 1932TIP3    H229992   6.816   0.058  17.117 -0.3668 -0.0249 -0.6094
 1933TIP3   OH229993   5.988   2.350  17.177  0.7459 -0.4383  0.0630
 1933TIP3    H129994   5.933   2.283  17.218  0.0075  0.1747  0.0987
 1933TIP3    H229995   6.062   2.301  17.141 -0.6003 -1.5336 -1.3882
 1934TIP3   OH229996   1.529   4.390  17.936 -0.0811  0.1236 -0.2314
 1934TIP3    H129997   1.497   4.357  17.852  1.6077  1.7548 -1.6397
 1934TIP3    H229998   1.625   4.387  17.928  0.1480 -0.2875  1.9334
 1935TIP3   OH229999   3.475   3.422  17.078  0.5212  0.4114  0.2740
 1935TIP3    H130000   3.565   3.422  17.045 -0.0695 -0.6137 -1.5288
 1935TIP3    H230001   3.423   3.455  17.005 -0.7176 -0.5541  0.6799
 1936TIP3   OH230002   6.888   7.776  17.556  0.0224  0.7536 -0.2588
 1936TIP3    H130003   6.864   7.711  17.622 -3.0240  1.1882 -0.7988
 1936TIP3    H230004   6.981   7.794  17.572  0.2721 -1.7674  1.5614
 1937TIP3   OH230005   2.371   7.917  17.698  0.1898 -0.0277 -0.4990
 1937TIP3    H130006   2.338   7.856  17.632  1.8928 -1.3523 -0.1730
 1937TIP3    H230007   2.465   7.901  17.701  0.3705  1.1137  1.1584
 1938TIP3   OH230008   6.915   3.498  18.113 -0.0872  0.1382 -0.0333
 1938TIP3    H130009   6.889   3.456  18.030 -1.1253 -0.0663  0.3693
 1938TIP3    H230010   6.901   3.430  18.179  0.1651  0.4873  0.3816
 1939TIP3   OH230011   1.211   4.182  15.679  0.2970  0.4276 -0.0593
 1939TIP3    H130012   1.127   4.143  15.704  0.3941  0.0878 -0.2542
 1939TIP3    H230013   1.191   4.230  15.598  0.1779  0.7855  0.1797
 1940TIP3   OH230014   4.196   2.255  17.444 -0.1870 -0.5393  0.1725
 1940TIP3    H130015   4.215   2.243  17.537 -0.0997  0.5377  0.3032
 1940TIP3    H230016   4.125   2.320  17.442 -1.1041 -1.5173 -0.4667
 1941TIP3   OH230017   5.545   5.835  17.477 -0.0326 -0.5537 -0.1450
 1941TIP3    H130018   5.504   5.778  17.542  0.6589 -1.5547 -0.5559
 1941TIP3    H230019   5.528   5.923  17.508 -0.6097 -0.9948  0.8396
 1942TIP3   OH230020   6.932   8.377  15.785 -0.0382 -0.0058  0.0253
 1942TIP3    H130021   6.889   8.345  15.864  0.3698 -0.0956  0.2161
 1942TIP3    H230022   6.880   8.343  15.712  0.6024 -1.4492  0.2106
 1943TIP3   OH230023   1.723   5.476  17.402  0.7270 -0.3243 -0.6066
 1943TIP3    H130024   1.817   5.486  17.416  0.4741 -0.2503  1.2988
 1943TIP3    H230025   1.695   5.560  17.366  1.1891  0.1158  0.0437
 1944TIP3   OH230026   1.877   1.948  16.838 -0.1460  0.2873 -0.3057
 1944TIP3    H130027   1.899   1.882  16.771  1.9040 -0.0312  0.6130
 1944TIP3    H230028   1.800   1.913  16.881  0.5309 -1.2345 -0.2672
 1945TIP3   OH230029   6.371   2.386  17.248 -0.2456  0.2118  0.0610
 1945TIP3    H130030   6.305   2.433  17.300  0.4242 -0.1806  1.3124
 1945TIP3    H230031   6.324   2.312  17.211 -0.8661  0.8081 -0.3742
 1946TIP3   OH230032   3.575   6.406  17.929 -0.0892  0.6042  0.2502
 1946TIP3    H130033   3.643   6.450  17.877 -2.4786  1.9225 -2.0030
 1946TIP3    H230034   3.614   6.398  18.016  2.3430  2.7812 -0.4789
 1947TIP3   OH230035   4.865   6.099  16.014 -0.1434 -0.2315 -0.0071
 1947TIP3    H130036   4.794   6.034  16.014  0.8425 -1.3769 -1.1457
 1947TIP3    H230037   4.912   6.082  16.096  0.4526 -1.4161 -0.5562
 1948TIP3   OH230038   6.361   2.289  16.930  0.6352 -0.0407  0.5189
 1948TIP3    H130039   6.399   2.224  16.990  1.1694  0.1576  0.3940
 1948TIP3    H230040   6.303   2.238  16.873  0.8305 -0.3667  0.6110
 1949TIP3   OH230041   6.978   1.397  17.494  0.3514 -0.2600 -0.4525
 1949TIP3    H130042   6.907   1.337  17.519  0.9941 -0.7011  0.3909
 1949TIP3    H230043   6.950   1.483  17.525 -0.7466 -0.0256 -1.9928
 1950TIP3   OH230044   5.977   0.054  16.167 -0.4283  0.0572  0.3876
 1950TIP3    H130045   6.034   0.072  16.092 -2.8169 -0.5210 -1.6994
 1950TIP3    H230046   5.965   0.139  16.209  0.8155  0.4235  0.0444
 1951TIP3   OH230047   5.310   4.784  17.914  0.2910 -0.3103  0.3257
 1951TIP3    H130048   5.271   4.871  17.907 -2.3655 -1.4180  0.2633
 1951TIP3    H230049   5.401   4.800  17.941  0.0811  2.4696 -0.3458
 1952TIP3   OH230050   3.017   3.308  16.846 -0.0330 -0.1123  0.3506
 1952TIP3    H130051   2.974   3.388  16.877  1.6404  0.3682  1.5525
 1952TIP3    H230052   3.034   3.257  16.926  1.3500 -0.3996 -0.0993
 1953TIP3   OH230053   1.497   2.163  16.172 -0.1232 -0.4237  0.4212
 1953TIP3    H130054   1.583   2.139  16.137 -0.2101  0.0124 -0.0980
 1953TIP3    H230055   1.443   2.179  16.094 -0.1496  1.1769  0.7314
 1954TIP3   OH230056   5.475   0.700  17.743 -0.1947  0.6023  0.9476
 1954TIP3    H130057   5.560   0.725  17.709 -0.9335  1.2966 -0.4870
 1954TIP3    H230058   5.451   0.770  17.803  1.0889 -0.5978  2.9835
 1955TIP3   OH230059   3.831   5.552  16.020  0.6784  0.2717  0.2208
 1955TIP3    H130060   3.913   5.588  15.987  0.3727  0.8435  0.0752
 1955TIP3    H230061   3.764   5.590  15.964  0.4074 -1.2474 -0.5597
 1956TIP3   OH230062   0.022   2.014  17.529  0.5144 -0.2370  0.0677
 1956TIP3    H130063  -0.060   2.045  17.568 -0.6014 -0.4941 -1.9361
 1956TIP3    H230064   0.043   1.933  17.575 -0.8540 -0.6319  0.0158
 1957TIP3   OH230065   8.084   3.107  16.092 -0.3706  0.1348 -0.1440
 1957TIP3    H130066   7.994   3.074  16.088 -0.5492  0.6033 -0.0663
 1957TIP3    H230067   8.138   3.028  16.097 -0.8852 -0.1411  2.1261
 1958TIP3   OH230068   7.766   6.508  16.784 -0.0764 -0.3455  0.4618
 1958TIP3    H130069   7.794   6.487  16.873  0.0297  0.6846  0.6776
 1958TIP3    H230070   7.702   6.579  16.794 -0.2871 -0.4190 -0.2609
 1959TIP3   OH230071   1.852   7.930  16.730 -0.1973 -0.0688 -0.3267
 1959TIP3    H130072   1.782   7.977  16.685 -0.2403 -0.1710 -0.3680
 1959TIP3    H230073   1.818   7.841  16.740  0.0345 -0.1884 -0.5841
 1960TIP3   OH230074   1.580   3.778  17.011 -0.4510 -0.0102 -0.2467
 1960TIP3    H130075   1.509   3.741  17.062  0.0180  1.2476  1.3989
 1960TIP3    H230076   1.584   3.723  16.932 -1.9733 -1.2672  0.4953
 1961TIP3   OH230077   4.578   5.239  17.541  0.0363  0.4340 -0.0203
 1961TIP3    H130078   4.509   5.304  17.554 -0.1540  0.7323 -2.1484
 1961TIP3    H230079   4.654   5.289  17.511  0.5493 -0.1106  0.3277
 1962TIP3   OH230080   4.088   7.037  17.152 -0.0271 -0.5038  0.1449
 1962TIP3    H130081   4.009   6.988  17.175 -0.5516  0.2570  0.0071
 1962TIP3    H230082   4.090   7.037  17.056 -0.0699 -0.1938  0.1430
 1963TIP3   OH230083   6.360   5.162  17.219  0.5992  0.6112  0.8687
 1963TIP3    H130084   6.451   5.184  17.202  0.4189  0.8090  0.1426
 1963TIP3    H230085   6.359   5.134  17.311  1.1902  1.6831  1.2222
 1964TIP3   OH230086   4.239   2.496  17.158  0.1497  0.0173 -0.1329
 1964TIP3    H130087   4.285   2.532  17.082 -2.2184  1.3402 -1.0582
 1964TIP3    H230088   4.288   2.417  17.181  1.3153 -0.0860 -2.6393
 1965TIP3   OH230089   4.290   8.001  17.228 -0.6059  0.0663  0.3140
 1965TIP3    H130090   4.298   7.928  17.166 -0.0764 -0.5611  1.1097
 1965TIP3    H230091   4.196   8.003  17.249 -0.6367 -0.3477  0.2352
 1966TIP3   OH230092   6.259   5.288  16.293  0.5251 -1.1371  0.1990
 1966TIP3    H130093   6.203   5.216  16.265 -0.4258 -0.0650 -0.7326
 1966TIP3    H230094   6.312   5.251  16.364 -2.9772 -1.6133  2.8074
 1967TIP3   OH230095   0.063   4.288  16.951  0.1238 -0.2849 -0.2268
 1967TIP3    H130096  -0.031   4.271  16.948 -0.0212  0.5848 -1.1133
 1967TIP3    H230097   0.085   4.285  17.045 -0.8074 -0.3955 -0.0064
 1968TIP3   OH230098   6.004   2.343  16.897  0.2006  0.2056 -0.6354
 1968TIP3    H130099   5.980   2.343  16.990  0.2461 -0.9507 -0.6128
 1968TIP3    H230100   5.940   2.402  16.856 -0.0934  0.3793  0.0570
 1969TIP3   OH230101   5.947   4.226  16.753  0.2409 -0.2888 -0.3916
 1969TIP3    H130102   6.003   4.301  16.773 -2.8154  1.9631  0.3558
 1969TIP3    H230103   5.951   4.218  16.658  1.7979 -0.2427 -0.3616
 1970TIP3   OH230104   7.727   2.544  17.711  0.2207 -0.7281  0.3993
 1970TIP3    H130105   7.793   2.496  17.760 -0.6871 -1.5478  0.8476
 1970TIP3    H230106   7.688   2.478  17.653  0.9843  0.1223 -1.1489
 1971TIP3   OH230107   8.191   2.523  15.858 -0.3381 -0.1058 -0.1962
 1971TIP3    H130108   8.160   2.592  15.800 -1.8296 -1.2727 -0.8582
 1971TIP3    H230109   8.145   2.539  15.941 -1.2560 -0.7020 -0.5758
 1972TIP3   OH230110   8.293   3.382  16.868 -0.4677 -0.2992  0.4377
 1972TIP3    H130111   8.245   3.300  16.880 -0.7297  0.0491  1.9018
 1972TIP3    H230112   8.372   3.357  16.821 -0.6520 -1.3618  0.6738
 1973TIP3   OH230113   5.488   4.645  15.602  0.0068 -0.0929 -0.1881
 1973TIP3    H130114   5.430   4.591  15.548 -0.3741  0.7297 -0.6168
 1973TIP3    H230115   5.430   4.710  15.642  0.5301  0.3220 -0.0956
 1974TIP3   OH230116   6.729   4.509  17.445  0.3336 -0.4778 -0.4579
 1974TIP3    H130117   6.672   4.551  17.381  0.8199 -0.3837 -0.8392
 1974TIP3    H230118   6.670   4.478  17.513 -0.0614  0.5722 -0.3033
 1975TIP3   OH230119   2.015   6.131  16.848  0.0742  0.3180 -0.3436
 1975TIP3    H130120   1.947   6.197  16.864 -1.0215 -0.9581  0.4318
 1975TIP3    H230121   2.065   6.129  16.929 -1.4172 -1.4789  0.6168
 1976TIP3   OH230122   3.067   7.208  15.867  0.6117  0.0262  0.4538
 1976TIP3    H130123   2.986   7.254  15.842  0.1381 -0.7695  0.4832
 1976TIP3    H230124   3.038   7.142  15.930  1.1328 -0.9289 -0.2923
 1977TIP3   OH230125   6.733   7.570  16.361  0.5037  0.3607 -0.2252
 1977TIP3    H130126   6.743   7.665  16.365  1.9387  0.1958  2.4721
 1977TIP3    H230127   6.652   7.552  16.408  0.0651  0.2615 -1.0138
 1978TIP3   OH230128   7.438   4.190  17.899  0.3185  0.1222 -0.2614
 1978TIP3    H130129   7.438   4.153  17.987  0.1373  0.1540 -0.2469
 1978TIP3    H230130   7.349   4.223  17.886  0.6626  1.2009 -0.0021
 1979TIP3   OH230131   0.230   1.209  15.310  0.0123  0.4326 -0.2531
 1979TIP3    H130132   0.188   1.295  15.309 -0.9244  0.0409 -2.6491
 1979TIP3    H230133   0.168   1.152  15.263  0.6422 -1.5463  1.1962
 1980TIP3   OH230134   1.366   0.470  17.276 -0.1072 -0.4580 -0.1795
 1980TIP3    H130135   1.440   0.510  17.322 -0.4938  1.2786 -0.9649
 1980TIP3    H230136   1.407   0.416  17.208  0.4508 -0.5298  0.2076
 1981TIP3   OH230137   4.131   0.123  17.640  0.4482  0.0493 -0.3636
 1981TIP3    H130138   4.157   0.165  17.722 -0.3715 -0.1875  0.0308
 1981TIP3    H230139   4.078   0.048  17.668  0.3065 -0.1293 -1.1081
 1982TIP3   OH230140   0.900   3.333  16.636  0.2873 -0.0893 -0.4137
 1982TIP3    H130141   0.849   3.303  16.712  1.5610 -2.4231 -0.3900
 1982TIP3    H230142   0.927   3.422  16.659 -2.0881  0.5055  0.3950
 1983TIP3   OH230143   5.175   6.864  16.405 -0.1293  0.0524 -0.3803
 1983TIP3    H130144   5.241   6.827  16.346 -0.7848  1.0767 -1.8148
 1983TIP3    H230145   5.091   6.840  16.366 -0.7206 -1.9228  1.8458
 1984TIP3   OH230146   6.105   2.294  16.424  0.2584 -0.8806 -0.3341
 1984TIP3    H130147   6.018   2.325  16.450  0.2192  0.1896 -1.6426
 1984TIP3    H230148   6.095   2.269  16.332  1.4821 -0.0681 -0.7130
 1985TIP3   OH230149   6.489   0.938  17.460  0.1448  0.1335 -0.1028
 1985TIP3    H130150   6.575   0.917  17.498 -0.7789 -3.5205  0.3511
 1985TIP3    H230151   6.502   0.931  17.366  0.3545 -0.5804 -0.0298
 1986TIP3   OH230152   4.038   0.295  16.195 -0.0633 -0.0563 -0.4052
 1986TIP3    H130153   4.055   0.337  16.279 -1.6479  0.4707 -0.2987
 1986TIP3    H230154   4.103   0.332  16.136  1.5301 -0.9723  0.7138
 1987TIP3   OH230155   0.208   4.967  15.504  0.1162 -0.4131 -0.1941
 1987TIP3    H130156   0.301   4.960  15.525  0.1696  0.7168  0.0231
 1987TIP3    H230157   0.171   4.883  15.530  1.1586 -1.0724 -0.7778
 1988TIP3   OH230158   1.005   4.410  17.252 -0.8061  0.3350 -0.7530
 1988TIP3    H130159   0.933   4.355  17.282  0.4755 -2.4400 -2.3594
 1988TIP3    H230160   0.988   4.422  17.159  1.2689 -1.3252 -1.4226
 1989TIP3   OH230161   1.082   4.500  16.942  0.2746  0.0809  0.7327
 1989TIP3    H130162   1.099   4.572  17.003  0.4661  0.8114 -0.1519
 1989TIP3    H230163   1.157   4.442  16.952  0.9076  0.8073  0.3485
 1990TIP3   OH230164   7.580   1.846  17.147  0.6348  0.1953 -0.0474
 1990TIP3    H130165   7.586   1.925  17.201  0.5727  1.6078 -1.9881
 1990TIP3    H230166   7.541   1.876  17.065  0.1471 -1.9751 -0.6658
 1991TIP3   OH230167   5.690   2.514  15.792  0.5229  0.2262  0.0176
 1991TIP3    H130168   5.650   2.445  15.738 -0.2102 -0.5771  1.5185
 1991TIP3    H230169   5.674   2.595  15.743 -1.9163 -0.2189 -0.0534
 1992TIP3   OH230170   5.687   8.106  18.218 -0.4691  0.6417 -0.5948
 1992TIP3    H130171   5.745   8.130  18.145 -1.0454  1.9283 -0.6629
 1992TIP3    H230172   5.599   8.116  18.182 -0.7777  2.1900  0.5314
 1993TIP3   OH230173   6.614   3.873  17.828  0.3403 -0.3843 -0.2173
 1993TIP3    H130174   6.562   3.903  17.754 -0.0755 -2.0801 -0.6403
 1993TIP3    H230175   6.550   3.845  17.893  0.7110 -0.6868  0.0239
 1994TIP3   OH230176   2.368   1.039  17.060 -0.0668 -0.1020 -0.3294
 1994TIP3    H130177   2.377   1.119  17.008  0.4869 -0.1233 -0.2725
 1994TIP3    H230178   2.280   1.007  17.039 -0.5655  0.8860  0.1776
 1995TIP3   OH230179   2.539   7.252  16.552  0.9019 -0.0933 -0.4031
 1995TIP3    H130180   2.562   7.306  16.476 -3.0137  1.0246 -1.0259
 1995TIP3    H230181   2.568   7.304  16.627  1.8246  0.3851 -1.0673
 1996TIP3   OH230182   6.788   3.402  17.594  0.1550 -0.1452  0.4087
 1996TIP3    H130183   6.844   3.449  17.531 -0.5688 -2.2461 -1.9716
 1996TIP3    H230184   6.714   3.461  17.608  0.1063  0.2243 -1.1468
 1997TIP3   OH230185   7.556   0.701  16.644  0.8963  0.0100 -0.3800
 1997TIP3    H130186   7.624   0.672  16.584  2.1406  0.8790  0.5489
 1997TIP3    H230187   7.603   0.725  16.724 -0.3490  1.7873 -0.1072
 1998TIP3   OH230188   0.221   1.244  16.065 -0.2245  0.1957  0.9320
 1998TIP3    H130189   0.176   1.255  16.149 -0.7901 -2.0704  0.9886
 1998TIP3    H230190   0.313   1.263  16.085 -0.2691 -0.7603  2.2158
 1999TIP3   OH230191   7.829   3.592  15.611 -0.0840 -0.2807  0.6164
 1999TIP3    H130192   7.834   3.627  15.522 -0.7645  0.6633  0.9328
 1999TIP3    H230193   7.880   3.653  15.664  0.7839 -1.1437  0.8024
 2000TIP3   OH230194   7.213   8.351  17.057  0.1879  0.4517  0.4355
 2000TIP3    H130195   7.183   8.306  17.136  0.7089  1.4778  1.2498
 2000TIP3    H230196   7.156   8.319  16.987  0.2461 -1.0805  1.0683
 2001TIP3   OH230197   3.775   3.702  17.693 -0.8711  0.3748 -0.1328
 2001TIP3    H130198   3.699   3.682  17.748 -1.2803 -2.0947 -1.4656
 2001TIP3    H230199   3.835   3.630  17.709  0.5137  1.4413 -0.3608
 2002TIP3   OH230200   6.606   0.337  16.433 -0.3615 -0.3351  0.2158
 2002TIP3    H130201   6.595   0.246  16.459  0.4329 -0.4535  0.1521
 2002TIP3    H230202   6.670   0.373  16.494  0.9251 -0.4030 -1.0269
 2003TIP3   OH230203   7.851   6.828  17.374  0.4049 -0.0021 -0.2967
 2003TIP3    H130204   7.777   6.792  17.325 -1.6739  3.4623 -0.0236
 2003TIP3    H230205   7.834   6.800  17.464 -1.8182  2.2639  0.1147
 2004TIP3   OH230206   7.226   4.651  16.937 -0.5722 -0.3897 -0.3370
 2004TIP3    H130207   7.238   4.667  16.843  1.2697 -3.2823 -0.7108
 2004TIP3    H230208   7.183   4.565  16.941 -0.4403 -0.4115  1.4831
 2005TIP3   OH230209   8.379   8.304  16.567  0.0439 -0.1979  0.5484
 2005TIP3    H130210   8.336   8.368  16.623  0.5712  1.1732 -0.5784
 2005TIP3    H230211   8.317   8.231  16.563 -1.9597  1.4772 -0.5870
 2006TIP3   OH230212   3.731   0.152  17.880  0.4207 -0.1330 -0.3210
 2006TIP3    H130213   3.769   0.104  17.953  2.2273 -0.1907 -1.2208
 2006TIP3    H230214   3.667   0.092  17.842 -1.3642  0.3164  1.8158
 2007TIP3   OH230215   4.319   3.900  15.790  0.3918 -0.4852 -0.0534
 2007TIP3    H130216   4.224   3.912  15.787  0.4244 -0.2220 -0.0724
 2007TIP3    H230217   4.332   3.806  15.776  0.1632 -0.4313 -0.6640
 2008TIP3   OH230218   1.701   0.205  15.854 -0.3560  0.3075 -0.1033
 2008TIP3    H130219   1.794   0.214  15.874 -0.5590  1.4121  0.4199
 2008TIP3    H230220   1.656   0.257  15.921 -1.5168 -2.1012  1.1015
 2009TIP3   OH230221   7.146   7.980  15.746 -0.2487  0.0941  0.1736
 2009TIP3    H130222   7.156   8.073  15.726  2.6310 -0.3178 -0.9213
 2009TIP3    H230223   7.224   7.958  15.797  0.3193 -2.0962 -1.4457
 2010TIP3   OH230224   6.111   7.919  17.391 -0.6916  0.0708 -0.3060
 2010TIP3    H130225   6.117   7.850  17.457 -3.0182  0.6651  0.6175
 2010TIP3    H230226   6.173   7.986  17.419 -1.1685  0.0136  0.9124
 2011TIP3   OH230227   0.522   2.952  16.225  0.0223 -0.5376  0.5828
 2011TIP3    H130228   0.554   3.041  16.242 -0.0299 -0.3407 -0.3271
 2011TIP3    H230229   0.436   2.964  16.185 -0.5396 -1.0390  1.5844
 2012TIP3   OH230230   1.254   0.350  16.593  0.1320 -0.0560 -0.2683
 2012TIP3    H130231   1.196   0.305  16.654 -0.1716  0.6285 -0.0451
 2012TIP3    H230232   1.281   0.281  16.531 -0.7277 -0.4375 -0.2443
 2013TIP3   OH230233   3.316   3.778  17.009  0.1005 -0.0219  0.5987
 2013TIP3    H130234   3.320   3.720  17.084 -1.0754  1.5169  1.9396
 2013TIP3    H230235   3.389   3.839  17.021  0.4907 -0.3574 -0.0371
 2014TIP3   OH230236   4.354   4.080  17.100 -0.2456  0.2960 -0.0505
 2014TIP3    H130237   4.307   4.150  17.055  0.2506  0.5859 -0.1223
 2014TIP3    H230238   4.439   4.118  17.122  0.5774 -0.7111 -1.3430
 2015TIP3   OH230239   6.634   2.914  17.510 -0.3256 -0.3292 -0.1487
 2015TIP3    H130240   6.588   2.997  17.518 -1.0826 -0.7873  0.2949
 2015TIP3    H230241   6.593   2.871  17.435  1.1655  0.3776 -1.4295
 2016TIP3   OH230242   2.082   7.084  16.354  0.1176  0.0206 -0.5195
 2016TIP3    H130243   2.022   7.057  16.285 -1.2939  0.8783  0.3323
 2016TIP3    H230244   2.031   7.077  16.435  1.2492  0.5172  0.2631
 2017TIP3   OH230245   6.093   0.636  16.604 -0.0152 -0.3367  0.2125
 2017TIP3    H130246   6.143   0.660  16.682  0.6632  0.3879 -0.4301
 2017TIP3    H230247   6.150   0.575  16.557 -0.3102 -0.5652  0.1493
 2018TIP3   OH230248   5.540   7.431  16.363 -0.2627  0.6123 -0.0689
 2018TIP3    H130249   5.470   7.423  16.298  0.2082  1.1569 -0.6526
 2018TIP3    H230250   5.497   7.416  16.447 -0.7828 -0.6797 -0.5313
 2019TIP3   OH230251   2.517   0.008  16.200  0.2931 -0.1163 -0.1445
 2019TIP3    H130252   2.497  -0.008  16.292 -2.2966  0.9268 -0.4430
 2019TIP3    H230253   2.541   0.101  16.196 -0.2905  0.0228 -0.6010
 2020TIP3   OH230254   6.308   1.266  16.829  0.2411  0.5211  0.2169
 2020TIP3    H130255   6.300   1.185  16.780 -1.8793 -0.1577  1.5780
 2020TIP3    H230256   6.244   1.325  16.789 -0.4230  0.4687  1.1871
 2021TIP3   OH230257   4.766   8.025  15.828 -0.3683 -0.1824  0.0011
 2021TIP3    H130258   4.747   7.932  15.830  0.6336 -0.3974  0.0403
 2021TIP3    H230259   4.780   8.049  15.919  0.9075 -0.3402 -0.1366
 2022TIP3   OH230260   4.610   2.303  16.404  0.0053  0.2576  0.8611
 2022TIP3    H130261   4.536   2.346  16.447 -0.0697  0.1106  0.8805
 2022TIP3    H230262   4.634   2.232  16.463  1.2722  1.3492  1.7091
 2023TIP3   OH230263   0.586   7.965  16.262 -0.5992 -0.2007  0.1037
 2023TIP3    H130264   0.520   8.035  16.269 -0.9636 -0.4466 -0.7053
 2023TIP3    H230265   0.668   8.007  16.285 -0.8290  0.4849 -0.2743
 2024TIP3   OH230266   0.958   6.749  17.818 -0.4454 -0.1601 -0.9361
 2024TIP3    H130267   1.010   6.669  17.810 -0.1909 -0.2626  1.2028
 2024TIP3    H230268   0.910   6.755  17.735 -0.1394 -2.2902 -1.3217
 2025TIP3   OH230269   4.381   5.400  17.552 -0.0110  0.5724 -0.0183
 2025TIP3    H130270   4.302   5.412  17.604  0.4160 -1.1964  1.1070
 2025TIP3    H230271   4.350   5.370  17.467 -0.5531 -0.1830  0.4389
 2026TIP3   OH230272   2.657   2.976  15.682 -0.1622 -0.3769 -0.1981
 2026TIP3    H130273   2.582   3.035  15.677 -0.1506 -0.4816 -3.2119
 2026TIP3    H230274   2.720   3.023  15.737 -1.6912  0.5243  0.8758
 2027TIP3   OH230275   8.384   5.866  15.970  0.1706 -0.1460  0.1870
 2027TIP3    H130276   8.395   5.819  16.053  0.0137  0.3112  0.4692
 2027TIP3    H230277   8.473   5.894  15.947  0.3577 -1.1333 -0.3122
 2028TIP3   OH230278   4.560   5.174  15.774 -0.1802  0.1663  0.2254
 2028TIP3    H130279   4.496   5.243  15.761  0.7502  0.8148 -1.2338
 2028TIP3    H230280   4.532   5.103  15.716  0.7069  0.6817 -0.8627
 2029TIP3   OH230281   5.852   1.468  17.502  0.0211 -0.1310  0.2578
 2029TIP3    H130282   5.767   1.499  17.471 -0.3865 -0.3327  1.1404
 2029TIP3    H230283   5.848   1.373  17.491  0.3308 -0.0913 -0.1844
 2030TIP3   OH230284   1.373   6.716  17.128 -0.2302  0.0557  0.2013
 2030TIP3    H130285   1.340   6.708  17.217  1.2396 -1.7400  0.6640
 2030TIP3    H230286   1.309   6.670  17.074 -0.2739 -0.3371  0.5850
 2031TIP3   OH230287   3.200   3.670  16.390  0.5535 -0.5406  0.0440
 2031TIP3    H130288   3.178   3.585  16.353  1.4615 -0.3382 -1.0379
 2031TIP3    H230289   3.209   3.654  16.484 -0.4710 -1.3719  0.0134
 2032TIP3   OH230290   0.236   3.077  16.806  0.5829  0.5075 -0.3405
 2032TIP3    H130291   0.267   3.055  16.718  2.2103 -0.8729  0.5284
 2032TIP3    H230292   0.140   3.071  16.800  0.6726  0.2491 -1.9442
 2033TIP3   OH230293   1.772   4.385  17.430 -0.7336  0.2310  0.0102
 2033TIP3    H130294   1.769   4.320  17.501 -0.1769  0.5931  0.3767
 2033TIP3    H230295   1.757   4.469  17.474 -0.4729  0.4459 -0.3135
 2034TIP3   OH230296   1.709   4.903  17.202  0.0896 -0.0208  0.9613
 2034TIP3    H130297   1.786   4.882  17.148  0.2827 -1.7395  1.8359
 2034TIP3    H230298   1.710   4.999  17.209  1.2950  0.0894 -0.2652
 2035TIP3   OH230299   1.999   3.048  16.496 -0.0148  0.3498  0.6480
 2035TIP3    H130300   1.921   3.084  16.453  0.6312  0.3232 -0.5875
 2035TIP3    H230301   2.061   3.122  16.499  1.6030 -0.6987 -2.5721
 2036TIP3   OH230302   6.836   7.440  17.419  0.6689 -0.4137 -0.1529
 2036TIP3    H130303   6.745   7.430  17.390  0.5267  1.2593 -0.3852
 2036TIP3    H230304   6.832   7.498  17.494  1.4828 -1.0304  0.3867
 2037TIP3   OH230305   0.243   1.878  16.599 -0.5791  0.5936  0.5226
 2037TIP3    H130306   0.288   1.799  16.569 -0.5615  0.6494  0.4016
 2037TIP3    H230307   0.172   1.891  16.536 -0.6671  0.5967  0.6229
 2038TIP3   OH230308   2.770   2.122  16.748  0.1986 -0.4449  0.2806
 2038TIP3    H130309   2.855   2.083  16.726  0.9236  1.1463  0.0868
 2038TIP3    H230310   2.716   2.048  16.777  1.2324 -1.6901 -0.8147
 2039TIP3   OH230311   2.669   1.320  17.279 -0.0755 -0.1213 -0.0933
 2039TIP3    H130312   2.663   1.227  17.298 -1.0110 -0.0189  0.1585
 2039TIP3    H230313   2.725   1.326  17.202 -1.6740 -1.0547 -1.3900
 2040TIP3   OH230314   2.025   0.283  17.831  0.2694 -0.0664  0.1672
 2040TIP3    H130315   2.014   0.364  17.881  0.8706  0.3832 -0.4059
 2040TIP3    H230316   2.072   0.309  17.752 -1.2673 -0.6470 -0.9935
 2041TIP3   OH230317   5.668   5.747  16.455  0.2416  0.1951  0.6084
 2041TIP3    H130318   5.682   5.655  16.432 -0.3714 -0.2294  1.8530
 2041TIP3    H230319   5.675   5.750  16.550  0.5622  1.5010  0.5607
 2042TIP3   OH230320   2.014   6.291  17.245  0.1581  0.0810  0.2898
 2042TIP3    H130321   2.080   6.274  17.313  2.1023  1.3692 -1.1447
 2042TIP3    H230322   2.017   6.386  17.232 -1.2207  0.0325 -0.5882
 2043TIP3   OH230323   1.521   2.538  15.908  0.0911 -0.0139  0.4445
 2043TIP3    H130324   1.597   2.593  15.929  0.0423 -0.5136  2.0565
 2043TIP3    H230325   1.507   2.486  15.987 -2.6050  0.8278  0.6196
 2044TIP3   OH230326   4.870   5.796  16.489 -0.5105 -0.7295  0.1828
 2044TIP3    H130327   4.871   5.885  16.453  0.1096 -1.0682 -0.6751
 2044TIP3    H230328   4.884   5.809  16.583  1.1607  0.0287 -0.1186
 2045TIP3   OH230329   5.494   2.865  16.611 -0.1226  0.3460 -0.2947
 2045TIP3    H130330   5.448   2.949  16.611 -1.2336 -0.2517 -0.5951
 2045TIP3    H230331   5.578   2.884  16.571 -0.3956  1.2993 -0.4351
 2046TIP3   OH230332   8.075   6.152  17.093 -0.1653 -0.9629  0.0000
 2046TIP3    H130333   7.989   6.174  17.056  0.0630  0.2770  0.1677
 2046TIP3    H230334   8.104   6.077  17.042 -0.9127 -0.7745 -0.7334
 2047TIP3   OH230335   2.210   0.075  17.780 -0.2944  0.0666  0.0903
 2047TIP3    H130336   2.176   0.144  17.837 -0.2844 -0.2798  0.5186
 2047TIP3    H230337   2.211  -0.004  17.835  1.1260  0.0427  0.0709
 2048TIP3   OH230338   3.862   8.222  17.322  0.1634  0.2363 -0.1818
 2048TIP3    H130339   3.914   8.252  17.247 -1.0682 -1.3785 -1.7563
 2048TIP3    H230340   3.772   8.243  17.298 -0.5037 -2.3804 -0.2729
 2049TIP3   OH230341   5.969   0.811  18.171 -0.2163 -0.4645  0.1468
 2049TIP3    H130342   5.882   0.818  18.210  0.0204 -0.0368  0.5991
 2049TIP3    H230343   5.982   0.717  18.159 -1.4362 -0.4586 -1.5158
 2050TIP3   OH230344   1.698   8.283  16.930 -0.0645 -0.7740 -0.1603
 2050TIP3    H130345   1.686   8.305  17.023 -1.2786 -0.5155 -0.3661
 2050TIP3    H230346   1.775   8.227  16.929 -0.6812 -1.6902  1.1487
 2051TIP3   OH230347   2.852   7.200  17.677 -0.4627 -0.5132 -0.4013
 2051TIP3    H130348   2.814   7.113  17.685  0.7063 -0.9661  0.5516
 2051TIP3    H230349   2.947   7.186  17.678 -0.2303  0.6542 -1.7475
 2052TIP3   OH230350   2.857   5.840  16.606  0.2498 -0.6077 -0.1413
 2052TIP3    H130351   2.801   5.764  16.600  0.4246 -0.8375  0.8968
 2052TIP3    H230352   2.945   5.807  16.586  0.7220 -1.2317  2.5126
 2053TIP3   OH230353   3.798   7.017  15.546  0.3435  0.1829 -0.9577
 2053TIP3    H130354   3.771   6.931  15.577  1.3258 -0.8320 -2.7629
 2053TIP3    H230355   3.886   7.029  15.582 -0.2816  1.0361  0.3516
 2054TIP3   OH230356   3.086   3.617  17.412 -0.0761  0.7300 -0.0296
 2054TIP3    H130357   3.131   3.700  17.424  0.2183  0.5412  0.1913
 2054TIP3    H230358   3.073   3.584  17.501  1.4872 -0.3513 -0.1608
 2055TIP3   OH230359   5.694   1.682  17.854 -0.1994 -0.0569  0.0266
 2055TIP3    H130360   5.739   1.753  17.808  1.1995 -0.8772  0.0530
 2055TIP3    H230361   5.677   1.718  17.941  1.4976 -0.0603  0.4130
 2056TIP3   OH230362   3.763   1.831  16.238 -0.0332 -0.2717  0.4922
 2056TIP3    H130363   3.811   1.792  16.311  0.0104 -1.2299 -0.0349
 2056TIP3    H230364   3.832   1.860  16.178 -0.0610  0.7547  0.9346
 2057TIP3   OH230365   3.230   4.360  16.101  0.2797  0.0428  0.5316
 2057TIP3    H130366   3.322   4.369  16.078  0.1580 -1.7184 -0.8075
 2057TIP3    H230367   3.190   4.443  16.073  1.0319 -0.1433 -1.2020
 2058TIP3   OH230368   7.803   7.455  17.656 -0.2796 -0.0388 -0.0910
 2058TIP3    H130369   7.778   7.366  17.630 -1.1254  0.2865 -0.4124
 2058TIP3    H230370   7.790   7.508  17.577 -1.0731  0.6142  0.4708
 2059TIP3   OH230371   6.894   3.473  16.249 -0.2183 -0.4554 -0.4708
 2059TIP3    H130372   6.845   3.492  16.169 -0.7109  1.9836  0.3206
 2059TIP3    H230373   6.857   3.532  16.314 -0.6013 -3.1342  1.9079
 2060TIP3   OH230374   0.180   6.342  17.805  0.1488 -0.2187  0.0658
 2060TIP3    H130375   0.128   6.415  17.838  0.8085 -0.3843  1.5496
 2060TIP3    H230376   0.115   6.281  17.768 -0.5769  0.2052  0.6143
 2061TIP3   OH230377   8.130   0.376  16.113  0.5219 -1.0612 -0.4351
 2061TIP3    H130378   8.195   0.409  16.051  1.9501  0.4672  1.7610
 2061TIP3    H230379   8.052   0.429  16.096  1.3265  0.2865 -0.0662
 2062TIP3   OH230380   3.505   7.979  16.067  0.1023  0.2045  0.0673
 2062TIP3    H130381   3.456   7.898  16.080  0.5967 -0.3107 -1.1687
 2062TIP3    H230382   3.524   7.981  15.973  0.5775  1.4776  0.1702
 2063TIP3   OH230383   5.332   0.244  18.063  0.6530 -0.0704 -0.2814
 2063TIP3    H130384   5.400   0.188  18.101  2.4269  0.9425 -1.7764
 2063TIP3    H230385   5.381   0.306  18.009 -1.2596  2.6581  0.9548
 2064TIP3   OH230386   2.218   1.743  15.695 -0.3422 -0.1462 -0.0222
 2064TIP3    H130387   2.149   1.689  15.655 -1.1349  0.4438  0.5105
 2064TIP3    H230388   2.240   1.697  15.776 -1.2975  0.4975  0.6298
 2065TIP3   OH230389   4.324   1.121  16.999 -0.3116 -0.7156 -0.0519
 2065TIP3    H130390   4.250   1.078  17.043  0.7839 -1.4486  1.1516
 2065TIP3    H230391   4.392   1.054  16.997  0.8031  0.3773  0.1325
 2066TIP3   OH230392   7.692   6.307  16.083 -0.1935  0.5892  0.2750
 2066TIP3    H130393   7.678   6.272  15.995 -0.6710 -1.4120  1.0883
 2066TIP3    H230394   7.773   6.267  16.113  0.0795  1.4183  0.6740
 2067TIP3   OH230395   1.420   3.634  17.733 -0.2306 -0.1963 -0.3929
 2067TIP3    H130396   1.330   3.600  17.734 -0.3167 -0.0382 -1.6707
 2067TIP3    H230397   1.474   3.558  17.710 -0.1817  0.0205 -0.9931
 2068TIP3   OH230398   3.530   2.410  17.867  0.1124  0.3335  0.7053
 2068TIP3    H130399   3.562   2.492  17.903  0.0596  0.5640  0.2408
 2068TIP3    H230400   3.443   2.431  17.834 -0.9543 -0.5257  2.8414
 2069TIP3   OH230401   8.224   1.270  15.452 -0.4271  0.2485  0.3582
 2069TIP3    H130402   8.177   1.318  15.520 -1.4574  0.0397 -0.1797
 2069TIP3    H230403   8.298   1.327  15.429 -0.5362  0.6921  1.0725
 2070TIP3   OH230404   7.410   4.045  17.492  0.7107 -0.0123  0.0050
 2070TIP3    H130405   7.453   4.088  17.419 -0.3000 -0.2877 -0.7728
 2070TIP3    H230406   7.446   4.088  17.570  0.5141  1.4965 -0.7109
 2071TIP3   OH230407   7.688   3.733  15.921  0.1510 -0.0081 -0.1924
 2071TIP3    H130408   7.756   3.672  15.950  0.4757  0.6545  0.4697
 2071TIP3    H230409   7.632   3.680  15.863  0.2461 -1.0245  0.5996
 2072TIP3   OH230410   2.119   2.967  15.617 -0.0771  0.1867  0.2863
 2072TIP3    H130411   2.173   2.949  15.694  1.5225  1.8467 -0.3865
 2072TIP3    H230412   2.029   2.959  15.649  0.4233 -3.1704  1.3318
 2073TIP3   OH230413   1.269   4.267  15.968 -0.2726 -0.0755  0.0922
 2073TIP3    H130414   1.279   4.252  15.874  0.3036 -1.6250  0.3529
 2073TIP3    H230415   1.195   4.211  15.993  1.4217 -2.0745  0.9951
 2074TIP3   OH230416   4.453   7.655  17.423  0.4693  0.7218 -0.6845
 2074TIP3    H130417   4.516   7.715  17.462 -1.1966  2.0209  0.1529
 2074TIP3    H230418   4.370   7.704  17.423 -0.3713 -0.5826 -2.5371
 2075TIP3   OH230419   0.093   7.882  16.158  0.5735  0.1887 -0.1602
 2075TIP3    H130420   0.153   7.845  16.222  0.5792 -1.6727 -1.1772
 2075TIP3    H230421   0.144   7.891  16.078 -0.6062 -2.2951 -1.3174
 2076TIP3   OH230422   1.560   4.092  16.523 -0.2467  0.2021  0.0465
 2076TIP3    H130423   1.613   4.077  16.445  1.2716 -1.4258  1.3234
 2076TIP3    H230424   1.509   4.171  16.503  3.2498  2.4089 -0.9804
 2077TIP3   OH230425   3.449   2.814  17.469 -0.2513  0.3485 -0.3231
 2077TIP3    H130426   3.437   2.883  17.404  0.0925 -0.1127 -0.8857
 2077TIP3    H230427   3.380   2.750  17.450  0.6364 -0.4137 -1.0753
 2078TIP3   OH230428   1.486   3.963  17.500  0.1866 -0.2991 -0.2647
 2078TIP3    H130429   1.501   3.963  17.594  0.1259 -0.9630 -0.2505
 2078TIP3    H230430   1.528   4.043  17.469  0.6143 -0.3149  0.2645
 2079TIP3   OH230431   6.663   4.525  17.948  0.4985 -0.1837 -0.4648
 2079TIP3    H130432   6.657   4.571  18.032 -1.2218 -2.3749  0.7300
 2079TIP3    H230433   6.749   4.483  17.950 -0.0663 -1.3795  0.9286
 2080TIP3   OH230434   5.896   1.020  17.160 -0.4218  0.7712  0.2000
 2080TIP3    H130435   5.872   0.936  17.200  2.0536 -0.9126 -1.5053
 2080TIP3    H230436   5.848   1.021  17.077 -1.9289  2.0316  1.0413
 2081TIP3   OH230437   4.158   3.266  17.758  0.5692  0.0311  0.0557
 2081TIP3    H130438   4.115   3.339  17.802  2.5233  0.0802  2.0442
 2081TIP3    H230439   4.107   3.189  17.783  0.8220  0.2484  1.3276
 2082TIP3   OH230440   1.208   2.307  16.330 -0.2771 -0.4531  0.5217
 2082TIP3    H130441   1.161   2.237  16.375 -1.3153 -1.2277 -1.6242
 2082TIP3    H230442   1.265   2.262  16.268  0.0076  0.5631  0.0219
 2083TIP3   OH230443   3.932   6.632  16.566  0.1233 -0.0151  0.6527
 2083TIP3    H130444   3.858   6.675  16.524 -0.9131 -1.8568  0.5245
 2083TIP3    H230445   4.009   6.681  16.535 -0.7709  0.0728 -1.5993
 2084TIP3   OH230446   0.269   0.803  16.749 -0.4192 -0.4867  0.0011
 2084TIP3    H130447   0.226   0.885  16.773 -1.3252 -1.0085  0.2130
 2084TIP3    H230448   0.358   0.829  16.726 -1.2595  0.8682 -2.0599
 2085TIP3   OH230449   0.063   3.974  16.136  0.1614 -0.0491  0.3696
 2085TIP3    H130450   0.086   3.989  16.227 -1.7608  0.0770  0.8838
 2085TIP3    H230451   0.125   3.907  16.106  0.9706  0.0747  1.6778
 2086TIP3   OH230452   4.913   3.721  17.723  0.2218 -0.0078 -0.7261
 2086TIP3    H130453   4.882   3.695  17.810 -0.8112  0.0697 -1.0595
 2086TIP3    H230454   4.990   3.665  17.708  0.9599  0.5831  0.5869
 2087TIP3   OH230455   8.315   5.706  15.787 -0.1968  0.1918 -0.5520
 2087TIP3    H130456   8.238   5.744  15.746 -0.6055 -0.5080 -0.4533
 2087TIP3    H230457   8.334   5.763  15.862  1.2011  2.1159 -2.2577
 2088TIP3   OH230458   3.303   5.301  16.270  0.3738  0.8089 -0.6263
 2088TIP3    H130459   3.396   5.323  16.267  0.4989  0.9586  2.0219
 2088TIP3    H230460   3.269   5.349  16.346 -1.3232 -1.1058 -0.0757
 2089TIP3   OH230461   4.558   0.419  16.575  0.1096  0.3372 -0.1481
 2089TIP3    H130462   4.563   0.507  16.538 -1.3915  1.2893  1.7211
 2089TIP3    H230463   4.472   0.386  16.548 -1.0024  1.0401  2.3049
 2090TIP3   OH230464   8.152   3.996  15.506  0.5087  0.1876 -0.5411
 2090TIP3    H130465   8.126   4.064  15.568 -0.2131 -1.1970  0.7436
 2090TIP3    H230466   8.240   3.971  15.533  0.5352  0.1800 -0.6314
 2091TIP3   OH230467   6.704   4.353  16.377  0.0431  0.4299 -0.6859
 2091TIP3    H130468   6.738   4.387  16.459 -0.0047  0.4665 -0.6812
 2091TIP3    H230469   6.749   4.269  16.365  0.1992  0.5197 -0.7244
 2092TIP3   OH230470   5.151   2.574  17.155 -0.5238 -0.1925  0.5647
 2092TIP3    H130471   5.231   2.590  17.205 -1.3874  4.2158  1.0216
 2092TIP3    H230472   5.082   2.570  17.222 -0.9931 -1.3696  0.0346
 2093TIP3   OH230473   5.706   2.182  17.507 -0.3049 -0.1400 -0.1325
 2093TIP3    H130474   5.737   2.163  17.419 -1.2686 -1.3425 -0.2410
 2093TIP3    H230475   5.723   2.275  17.519 -0.0788  0.0204 -1.5535
 2094TIP3   OH230476   6.681   3.144  17.895 -0.3622  0.1035  0.6670
 2094TIP3    H130477   6.597   3.097  17.900 -0.0529 -0.4883  0.3685
 2094TIP3    H230478   6.735   3.091  17.837 -0.3691  1.3972 -0.5897
 2095TIP3   OH230479   2.477   0.253  16.554 -0.3554 -0.2886  0.0425
 2095TIP3    H130480   2.464   0.163  16.523  1.5590 -0.6678  0.1700
 2095TIP3    H230481   2.496   0.244  16.647 -1.3518  0.3818  0.3185
 2096TIP3   OH230482   4.742   6.332  15.978 -0.0512  0.3194  0.1311
 2096TIP3    H130483   4.651   6.321  15.953 -0.9356  1.7339  2.3648
 2096TIP3    H230484   4.771   6.244  16.002 -1.4389  0.0913  1.1145
 2097TIP3   OH230485   7.803   7.307  16.805 -0.4455 -0.0056 -0.2844
 2097TIP3    H130486   7.815   7.353  16.888 -1.6252  0.1646 -0.1924
 2097TIP3    H230487   7.891   7.297  16.769  0.1411 -0.5473  1.2391
 2098TIP3   OH230488   7.267   0.953  17.668 -0.2067  0.0553 -0.2437
 2098TIP3    H130489   7.286   0.879  17.725 -0.2643 -0.9352 -1.4571
 2098TIP3    H230490   7.195   0.999  17.711 -0.0039 -0.4452  0.6561
 2099TIP3   OH230491   5.969   3.244  16.710  0.0261  0.0229 -0.2141
 2099TIP3    H130492   5.879   3.211  16.709  0.2034 -0.5004 -1.5345
 2099TIP3    H230493   5.971   3.307  16.782 -1.0752 -0.8156  0.6002
 2100TIP3   OH230494   5.308   0.752  17.237 -0.1192  0.1485 -0.4454
 2100TIP3    H130495   5.219   0.786  17.233  0.2715  1.2152 -0.4944
 2100TIP3    H230496   5.318   0.721  17.327 -1.6739 -3.3165 -1.3303
 2101TIP3   OH230497   0.715   7.431  17.770  0.4102 -0.2674 -0.1040
 2101TIP3    H130498   0.666   7.456  17.848 -0.1567  0.8170 -0.7922
 2101TIP3    H230499   0.706   7.335  17.766  0.9007 -0.4039  1.4334
 2102TIP3   OH230500   3.662   7.088  17.562  0.0972  0.0742  0.0555
 2102TIP3    H130501   3.700   7.166  17.602 -0.0551  0.7773 -1.1052
 2102TIP3    H230502   3.579   7.120  17.524 -0.2911 -0.8082  0.1496
 2103TIP3   OH230503   0.037   0.630  16.765  0.1919 -0.1992 -0.5423
 2103TIP3    H130504  -0.015   0.655  16.841  0.4078 -0.8232 -0.1795
 2103TIP3    H230505   0.106   0.696  16.760 -0.7323  0.7479 -1.1466
 2104TIP3   OH230506   4.795   3.875  17.135 -0.1228 -0.0660  0.1577
 2104TIP3    H130507   4.707   3.860  17.102 -0.5725  0.2612  1.1806
 2104TIP3    H230508   4.783   3.915  17.221  1.0228  0.1370  0.2476
 2105TIP3   OH230509   0.715   1.838  16.438  0.1941 -0.8340 -0.1769
 2105TIP3    H130510   0.679   1.825  16.350 -0.2038  0.3760 -0.2163
 2105TIP3    H230511   0.656   1.902  16.478  1.8898  0.7058  0.0043
 2106TIP3   OH230512   8.395   0.129  17.431  0.4070 -0.0666 -0.2914
 2106TIP3    H130513   8.468   0.120  17.369 -0.0951  1.1684 -1.0960
 2106TIP3    H230514   8.323   0.082  17.390  0.7937 -1.5305  0.6397
 2107TIP3   OH230515   6.514   6.246  17.183 -0.7895  0.2436 -0.7997
 2107TIP3    H130516   6.567   6.326  17.175  0.6635 -0.6742 -0.5930
 2107TIP3    H230517   6.553   6.185  17.121 -0.9394 -0.7974  0.1113
 2108TIP3   OH230518   6.483   7.898  15.749  0.3350  0.3422 -0.1599
 2108TIP3    H130519   6.564   7.849  15.767 -0.3725 -0.4550  0.9927
 2108TIP3    H230520   6.422   7.832  15.716  0.0544  0.8840 -0.7448
 2109TIP3   OH230521   2.925   4.204  16.965 -0.2710  0.3730  0.1955
 2109TIP3    H130522   2.932   4.109  16.954  0.4649  0.3003  1.2006
 2109TIP3    H230523   2.850   4.228  16.910  0.2096 -0.6203 -0.9462
 2110TIP3   OH230524   2.925   0.919  16.512  0.1105 -0.2277 -0.2341
 2110TIP3    H130525   3.019   0.911  16.526  0.3571 -0.1510 -1.6727
 2110TIP3    H230526   2.905   1.010  16.533  0.8072  0.4011 -2.0469
 2111TIP3   OH230527   0.552   3.123  16.787  0.2715  0.2831 -0.7773
 2111TIP3    H130528   0.473   3.146  16.836  0.6636  0.1291 -0.0596
 2111TIP3    H230529   0.624   3.157  16.840  0.7593 -0.8278 -0.6917
 2112TIP3   OH230530   7.421   1.977  16.019 -0.0618 -0.0055 -0.2512
 2112TIP3    H130531   7.433   2.057  15.968  0.9185 -0.5710 -0.9442
 2112TIP3    H230532   7.328   1.957  16.012 -0.1960  0.7350 -0.5905
 2113TIP3   OH230533   7.859   6.196  17.642  0.3430 -0.6752  0.4415
 2113TIP3    H130534   7.809   6.224  17.565  1.8233  0.2371 -0.2266
 2113TIP3    H230535   7.819   6.243  17.715  0.3652  0.2410 -0.1202
 2114TIP3   OH230536   5.270   2.339  17.019 -0.2786 -0.1466  0.1753
 2114TIP3    H130537   5.183   2.366  17.048 -0.1974 -0.0140  0.2961
 2114TIP3    H230538   5.329   2.404  17.056 -0.2622  0.6071 -1.0916
 2115TIP3   OH230539   2.493   8.316  17.413  0.3559 -0.0802  0.5220
 2115TIP3    H130540   2.579   8.314  17.454 -0.6191  0.9117  2.7771
 2115TIP3    H230541   2.435   8.275  17.477 -0.8319 -1.0292 -1.0826
 2116TIP3   OH230542   1.651   4.620  17.005 -0.1910 -0.3368 -0.0047
 2116TIP3    H130543   1.619   4.615  16.915  0.6539  0.4057 -0.3643
 2116TIP3    H230544   1.729   4.675  17.000 -0.6585  0.5062  1.3303
 2117TIP3   OH230545   2.698   4.339  16.855  0.0499  0.2771 -0.1434
 2117TIP3    H130546   2.661   4.425  16.834  0.6761  1.4242  2.8285
 2117TIP3    H230547   2.626   4.290  16.893 -0.6036 -1.0667 -2.8648
 2118TIP3   OH230548   1.069   2.739  17.027  0.6512 -0.3404 -0.7877
 2118TIP3    H130549   1.041   2.784  17.107 -0.6335 -2.9131  0.3143
 2118TIP3    H230550   0.988   2.722  16.979  1.2131 -0.6245 -1.6593
 2119TIP3   OH230551   0.528   4.231  15.864  0.2214 -0.0635  0.4338
 2119TIP3    H130552   0.522   4.223  15.959 -1.0764 -0.4073  0.3348
 2119TIP3    H230553   0.611   4.190  15.841  0.3064 -0.4253  1.3695
 2120TIP3   OH230554   3.982   6.414  16.711  0.0777  0.7594 -0.2731
 2120TIP3    H130555   3.974   6.497  16.664  0.2429  0.1870 -1.3550
 2120TIP3    H230556   4.051   6.429  16.776 -1.5551  2.1960  1.2433
 2121TIP3   OH230557   0.868   2.989  15.965  0.1122 -0.1262  0.1092
 2121TIP3    H130558   0.794   3.049  15.955  1.1823  1.2238  0.1371
 2121TIP3    H230559   0.834   2.919  16.022 -1.3427  0.0923 -0.4412
 2122TIP3   OH230560   6.836   0.283  16.268 -0.0946  0.2277  0.1376
 2122TIP3    H130561   6.773   0.341  16.226  0.7845  1.2483  0.1705
 2122TIP3    H230562   6.783   0.222  16.319 -1.0594  0.7278 -0.2530
 2123TIP3   OH230563   4.986   2.310  17.146 -0.3157 -0.0868  0.4802
 2123TIP3    H130564   4.936   2.245  17.096 -1.0140 -0.1846  1.2752
 2123TIP3    H230565   4.988   2.275  17.235  3.4412 -1.4213  0.0272
 2124TIP3   OH230566   0.102   5.096  15.754  0.0391 -0.6337 -0.5036
 2124TIP3    H130567   0.039   5.034  15.790 -0.7747  0.3600 -0.1681
 2124TIP3    H230568   0.137   5.051  15.677  1.0082 -2.3424  0.8550
 2125TIP3   OH230569   3.858   1.717  15.547 -0.5222 -0.0972 -0.1899
 2125TIP3    H130570   3.929   1.776  15.574  1.5363 -2.3624 -0.2765
 2125TIP3    H230571   3.870   1.639  15.601 -3.0772 -0.5296 -0.1437
 2126TIP3   OH230572   6.739   2.794  16.957 -0.2438  0.0569  0.0474
 2126TIP3    H130573   6.643   2.793  16.963 -0.3923  2.0316 -1.0059
 2126TIP3    H230574   6.769   2.816  17.045 -0.7063 -0.9685  0.4823
 2127TIP3   OH230575   2.940   7.428  17.830 -0.0453  0.3043 -0.5907
 2127TIP3    H130576   3.021   7.426  17.778 -0.6938 -0.0563 -1.6142
 2127TIP3    H230577   2.899   7.343  17.814 -0.3461  0.2520  0.3942
 2128TIP3   OH230578   0.278   4.921  16.921  1.0765  0.1309  0.0536
 2128TIP3    H130579   0.210   4.896  16.983  1.8266 -0.3848  0.6919
 2128TIP3    H230580   0.240   4.994  16.872 -0.0419 -0.3284  0.1916
 2129TIP3   OH230581   1.891   2.315  16.785  0.2483  0.3858 -0.6796
 2129TIP3    H130582   1.973   2.345  16.745  0.8935  1.6516  1.4295
 2129TIP3    H230583   1.916   2.237  16.835 -0.5692 -1.2383 -2.6628
 2130TIP3   OH230584   5.738   2.023  16.052 -0.7844  0.8126  0.3892
 2130TIP3    H130585   5.793   2.101  16.047 -0.4703  0.6588  1.3314
 2130TIP3    H230586   5.666   2.040  15.991  0.9860  0.4644 -1.9688
 2131TIP3   OH230587   1.883   1.091  15.831 -0.0789 -0.1864  0.1376
 2131TIP3    H130588   1.971   1.124  15.847  0.4715 -1.5057 -0.0332
 2131TIP3    H230589   1.832   1.168  15.809  0.2784  1.0730  3.2747
 2132TIP3   OH230590   7.329   3.850  17.700  0.0010  0.1237 -0.2543
 2132TIP3    H130591   7.402   3.834  17.760 -0.4208 -1.5214 -0.1423
 2132TIP3    H230592   7.362   3.917  17.640  1.7243 -0.7968 -0.4081
 2133TIP3   OH230593   7.737   4.096  18.103  0.0150 -0.7572  0.5058
 2133TIP3    H130594   7.658   4.108  18.155  2.1329  2.6370  3.3097
 2133TIP3    H230595   7.739   4.171  18.044  0.2099 -1.9239 -1.0507
 2134TIP3   OH230596   2.811   0.439  17.609 -0.2925  0.2013  0.0977
 2134TIP3    H130597   2.876   0.369  17.606 -0.2891  0.0398  2.5616
 2134TIP3    H230598   2.841   0.501  17.542  1.8930 -0.3193  0.4985
 2135TIP3   OH230599   5.863   1.716  16.602 -0.5540 -0.2501  0.1326
 2135TIP3    H130600   5.945   1.763  16.583  0.6704 -1.2638  2.5013
 2135TIP3    H230601   5.844   1.668  16.522 -0.5513  2.3353 -1.5422
 2136TIP3   OH230602   1.664   4.290  16.294 -0.1617  0.8183  0.4924
 2136TIP3    H130603   1.579   4.286  16.250 -0.4019  2.9957  0.6267
 2136TIP3    H230604   1.724   4.322  16.227  0.3349  0.3524  0.7067
 2137TIP3   OH230605   4.332   2.389  15.713  0.1294 -0.0201 -0.0821
 2137TIP3    H130606   4.271   2.333  15.762 -2.0523  2.2926  0.0941
 2137TIP3    H230607   4.347   2.343  15.631 -0.8799 -1.2572  0.4015
 2138TIP3   OH230608   0.101   1.026  16.815 -0.1071  0.4072 -0.0495
 2138TIP3    H130609   0.098   1.099  16.877  0.9907  0.2069  0.2605
 2138TIP3    H230610   0.010   1.010  16.792 -0.4876  0.7994  1.1436
 2139TIP3   OH230611   5.941   4.521  16.826 -0.1097 -0.5204 -0.1092
 2139TIP3    H130612   5.968   4.539  16.736  0.0204 -0.3505 -0.0359
 2139TIP3    H230613   5.945   4.605  16.870 -2.1184 -0.1795 -0.4445
 2140TIP3   OH230614   2.649   5.573  17.064 -0.4420 -0.2125  0.0134
 2140TIP3    H130615   2.655   5.619  16.980 -1.0634  1.9516  1.0568
 2140TIP3    H230616   2.639   5.644  17.128  0.1514 -1.7868  1.9313
 2141TIP3   OH230617   2.877   2.640  15.380 -0.5287 -0.2708  0.0905
 2141TIP3    H130618   2.848   2.725  15.412 -0.5842 -0.6576  1.0912
 2141TIP3    H230619   2.971   2.638  15.399 -0.9352 -1.3636  2.3073
 2142TIP3   OH230620   6.415   6.511  15.909  0.0383  0.7630 -0.2342
 2142TIP3    H130621   6.326   6.530  15.938 -0.5034 -2.3048  0.4703
 2142TIP3    H230622   6.470   6.529  15.985 -0.2604  0.7681 -0.0216
 2143TIP3   OH230623   1.716   4.194  17.641  0.0971  0.3850 -0.2181
 2143TIP3    H130624   1.784   4.132  17.668  2.0677  2.1225 -0.9222
 2143TIP3    H230625   1.680   4.227  17.723  0.4824 -0.1541  0.1778
 2144TIP3   OH230626   0.207   0.452  17.133 -0.2725  1.0057  0.3941
 2144TIP3    H130627   0.192   0.381  17.194 -3.5816 -0.2419 -1.5755
 2144TIP3    H230628   0.218   0.530  17.188 -1.7927 -0.2283  2.5985
 2145TIP3   OH230629   6.805   1.927  15.719  0.5365  0.4359  0.3485
 2145TIP3    H130630   6.846   2.005  15.682  0.9139  0.0656 -0.0347
 2145TIP3    H230631   6.721   1.920  15.673  0.4855  0.6321  0.4105
 2146TIP3   OH230632   0.370   8.119  16.168 -0.0945 -0.0509  0.2653
 2146TIP3    H130633   0.293   8.102  16.114  0.2644 -0.1980 -0.2079
 2146TIP3    H230634   0.444   8.109  16.108  0.3008 -0.0272  0.7420
 2147TIP3   OH230635   2.040   1.411  15.881  0.1708  0.4314  0.5767
 2147TIP3    H130636   1.958   1.376  15.848  0.2336  0.8108  0.0022
 2147TIP3    H230637   2.086   1.335  15.916  0.3746 -0.1072 -0.7887
 2148TIP3   OH230638   0.971   4.942  16.466  0.5830 -0.3893 -0.3368
 2148TIP3    H130639   0.924   5.001  16.525  2.3088 -0.5825  1.3287
 2148TIP3    H230640   0.915   4.865  16.461  0.3055 -0.3046  0.9712
 2149TIP3   OH230641   1.273   2.261  16.946 -0.5143  0.1593 -0.0126
 2149TIP3    H130642   1.256   2.170  16.970 -0.2835  0.5517  1.8116
 2149TIP3    H230643   1.238   2.311  17.020  1.0009  1.4470 -0.1310
 2150TIP3   OH230644   8.385   6.789  17.277  0.1816  0.7428  0.1330
 2150TIP3    H130645   8.324   6.753  17.212  2.1561 -1.8982 -0.4408
 2150TIP3    H230646   8.354   6.754  17.360  0.8558 -0.6081 -0.1571
 2151TIP3   OH230647   3.825   3.246  16.823  0.2887  0.5885  0.3539
 2151TIP3    H130648   3.756   3.183  16.841  0.4081  0.4258  0.2486
 2151TIP3    H230649   3.890   3.197  16.773  1.3604  0.2361  2.0395
 2152TIP3   OH230650   5.586   6.423  16.403 -0.0945 -0.1679 -0.1439
 2152TIP3    H130651   5.505   6.391  16.362  0.1439  0.7525 -1.4149
 2152TIP3    H230652   5.621   6.485  16.339  1.2276  0.0124  0.7299
 2153TIP3   OH230653   6.022   7.482  17.952  0.0771 -0.9956  0.5339
 2153TIP3    H130654   5.995   7.513  18.038 -0.2289 -1.5030  0.6256
 2153TIP3    H230655   6.051   7.561  17.905  0.6952 -0.7834  1.2593
 2154TIP3   OH230656   6.528   7.729  17.336  0.0693 -0.3113 -0.1474
 2154TIP3    H130657   6.489   7.736  17.249  0.0184  0.2733 -0.0824
 2154TIP3    H230658   6.607   7.782  17.330 -0.3337  0.3607  0.3828
 2155TIP3   OH230659   0.739   6.365  18.071  0.0878 -0.0021 -0.1075
 2155TIP3    H130660   0.770   6.415  17.996 -0.1685 -0.0182 -0.2249
 2155TIP3    H230661   0.704   6.284  18.033 -0.9387  0.4084 -0.0664
 2156TIP3   OH230662   3.436   5.709  17.832 -0.3270  0.4959 -0.1683
 2156TIP3    H130663   3.384   5.638  17.794 -0.8986  1.6684 -1.7376
 2156TIP3    H230664   3.391   5.789  17.803  1.6829  1.5434 -0.5954
 2157TIP3   OH230665   2.913   6.407  17.403 -0.8906  0.1084  0.1360
 2157TIP3    H130666   2.986   6.359  17.442 -0.7619  0.5195  0.4122
 2157TIP3    H230667   2.950   6.493  17.382 -1.6735  0.8518  1.6847
 2158TIP3   OH230668   0.142   2.242  15.842 -0.4832  0.1139  0.3979
 2158TIP3    H130669   0.226   2.256  15.799 -0.8762 -0.9396 -0.7815
 2158TIP3    H230670   0.099   2.327  15.840 -1.4596 -0.2815 -3.5641
 2159TIP3   OH230671   7.617   8.432  17.174 -0.1392 -0.3426 -0.2532
 2159TIP3    H130672   7.645   8.398  17.259  0.7788 -1.0330 -0.8149
 2159TIP3    H230673   7.557   8.366  17.140 -1.5660  0.5558  0.4072
 2160TIP3   OH230674   3.168   8.210  15.656 -0.1684 -0.3387  0.6194
 2160TIP3    H130675   3.236   8.157  15.616  0.9483  0.9274  0.7808
 2160TIP3    H230676   3.108   8.231  15.584  1.4867  1.4036 -0.3356
 2161TIP3   OH230677   6.013   6.980  17.753  0.0504  0.3781 -0.5412
 2161TIP3    H130678   5.998   7.011  17.843 -1.0103 -0.3914 -0.4386
 2161TIP3    H230679   6.015   7.060  17.700  0.0003  0.7903  0.0674
 2162TIP3   OH230680   1.093   5.189  17.562 -0.2391  0.1265 -0.6225
 2162TIP3    H130681   1.147   5.261  17.595 -1.3706  0.5689  0.3771
 2162TIP3    H230682   1.085   5.205  17.468  0.9520  0.3155 -0.7000
 2163TIP3   OH230683   7.898   8.359  17.000  0.7591  0.2222 -0.0951
 2163TIP3    H130684   7.870   8.271  17.022  0.7599  0.1320 -0.4494
 2163TIP3    H230685   7.960   8.348  16.929  0.9483  0.4924  0.0248
 2164TIP3   OH230686   7.541   0.328  16.160 -0.1212  0.1348  0.7283
 2164TIP3    H130687   7.547   0.424  16.156 -1.6198  0.2451  0.5325
 2164TIP3    H230688   7.556   0.307  16.252  0.6868  0.4970  0.6960
 2165TIP3   OH230689   3.269   0.038  17.202  0.3680  0.7913  0.3755
 2165TIP3    H130690   3.337  -0.022  17.234  0.3816  0.5731 -0.0566
 2165TIP3    H230691   3.206   0.043  17.273 -0.3773 -0.8793 -0.1173
 2166TIP3   OH230692   4.570   0.642  16.409 -0.0038  0.3091 -0.1767
 2166TIP3    H130693   4.574   0.736  16.428 -0.1729 -0.0437  1.9216
 2166TIP3    H230694   4.594   0.634  16.317  1.2231  2.3097 -0.0844
 2167TIP3   OH230695   4.486   2.753  16.964 -0.2233 -0.3902 -0.1991
 2167TIP3    H130696   4.525   2.815  16.904 -2.4474 -1.6971 -3.2462
 2167TIP3    H230697   4.426   2.701  16.910 -0.1347 -3.7414  2.5708
 2168TIP3   OH230698   1.319   2.984  15.101  0.0546 -0.6484  0.0151
 2168TIP3    H130699   1.382   2.914  15.086  0.0652 -0.7811  0.6485
 2168TIP3    H230700   1.237   2.951  15.064 -0.1940 -1.4363  1.2273
 2169TIP3   OH230701   4.132   7.569  17.351 -0.1553  0.4302  0.0135
 2169TIP3    H130702   4.106   7.492  17.400 -0.3771 -1.1803 -2.4385
 2169TIP3    H230703   4.223   7.553  17.326  0.4120  1.8692  1.0236
 2170TIP3   OH230704   0.636   3.196  15.477  0.0178 -0.1138 -0.3459
 2170TIP3    H130705   0.718   3.151  15.455  0.9688  1.7978 -0.8811
 2170TIP3    H230706   0.644   3.282  15.436 -2.0804  0.2771 -0.0203
 2171TIP3   OH230707   3.603   2.419  17.326  0.1305  0.5900 -0.4260
 2171TIP3    H130708   3.675   2.408  17.263  1.4516  0.2231  1.0844
 2171TIP3    H230709   3.547   2.343  17.312  1.1312 -0.1973 -0.2608
 2172TIP3   OH230710   5.343   3.102  16.606  0.4693  0.7214  0.0150
 2172TIP3    H130711   5.322   3.138  16.520  1.0640 -1.0034 -0.8996
 2172TIP3    H230712   5.376   3.177  16.656 -1.0686  2.0259 -0.8096
 2173TIP3   OH230713   1.091   7.232  17.858  0.6116  0.1288 -0.0971
 2173TIP3    H130714   1.060   7.249  17.769  2.9683 -1.7817 -1.3881
 2173TIP3    H230715   1.182   7.206  17.848  0.2251 -2.8698  2.5610
 2174TIP3   OH230716   3.419   7.499  17.462 -0.1501 -0.3304  0.2516
 2174TIP3    H130717   3.347   7.538  17.413  1.1420  1.4327 -0.3147
 2174TIP3    H230718   3.495   7.508  17.405  1.1074  0.4862  1.9631
 2175TIP3   OH230719   0.924   3.662  16.454 -0.2825  0.3033  0.1915
 2175TIP3    H130720   0.876   3.599  16.401  0.5443  0.8517 -1.2776
 2175TIP3    H230721   0.866   3.683  16.526 -1.4607 -0.4688 -0.5081
 2176TIP3   OH230722   6.594   1.132  17.688 -0.5183 -0.5422  0.0936
 2176TIP3    H130723   6.524   1.179  17.732 -0.3125 -1.7234  1.7691
 2176TIP3    H230724   6.600   1.048  17.734  1.7426 -0.6287 -0.2419
 2177TIP3   OH230725   3.516   3.757  15.938 -0.6881  0.0388 -0.5174
 2177TIP3    H130726   3.453   3.830  15.939 -2.2220 -1.2215  0.5240
 2177TIP3    H230727   3.526   3.733  16.031 -0.0077 -0.8858 -0.8177
 2178TIP3   OH230728   2.990   4.055  15.959  0.1885 -0.1130 -0.2853
 2178TIP3    H130729   3.052   3.992  15.922 -0.5148 -0.1091 -1.5024
 2178TIP3    H230730   2.911   4.004  15.977 -0.4365  0.4284 -1.4093
 2179TIP3   OH230731   1.373   7.323  16.473  0.3173 -0.3118 -0.0231
 2179TIP3    H130732   1.285   7.305  16.504  0.3350  1.1657  0.9682
 2179TIP3    H230733   1.363   7.334  16.379 -0.0938 -2.6748 -0.3360
 2180TIP3   OH230734   0.363   2.265  16.833  0.3405  0.2265 -0.5110
 2180TIP3    H130735   0.368   2.262  16.737 -0.2670  2.7399 -0.6763
 2180TIP3    H230736   0.298   2.332  16.851  1.0703  0.3921  1.6948
 2181TIP3   OH230737   6.828   7.078  16.760 -0.1582  0.0820 -0.2697
 2181TIP3    H130738   6.907   7.100  16.810 -0.2921 -1.0316  0.4748
 2181TIP3    H230739   6.789   7.005  16.808 -1.0680 -0.0870 -1.2317
 2182TIP3   OH230740   1.157   4.671  17.176  0.0751  0.3815 -0.4395
 2182TIP3    H130741   1.250   4.659  17.194  0.0201 -1.0519 -0.9414
 2182TIP3    H230742   1.118   4.691  17.261  0.8424  1.0091 -0.2324
 2183TIP3   OH230743   0.090   1.684  17.856 -0.4906 -0.0616  0.1034
 2183TIP3    H130744   0.120   1.595  17.874 -1.1933  0.0002  1.7785
 2183TIP3    H230745   0.003   1.688  17.896 -1.5021  0.6755 -2.0045
 2184TIP3   OH230746   1.130   4.404  17.805 -0.4842 -0.0740  0.3319
 2184TIP3    H130747   1.164   4.359  17.883  0.0934  0.4336  0.3781
 2184TIP3    H230748   1.192   4.382  17.736 -0.1399  0.7242  0.3782
 2185TIP3   OH230749   3.696   4.636  16.099  0.1347 -0.2999 -0.2780
 2185TIP3    H130750   3.685   4.633  16.004 -1.7114 -0.9666 -0.0710
 2185TIP3    H230751   3.786   4.604  16.114  1.5633  2.5601 -1.9257
 2186TIP3   OH230752   6.834   1.163  17.571  0.1256 -0.4665 -0.0749
 2186TIP3    H130753   6.748   1.141  17.609 -0.6727 -0.2724 -1.6925
 2186TIP3    H230754   6.838   1.111  17.491  1.4731 -0.3415 -0.0988
 2187TIP3   OH230755   4.212   4.752  17.302 -0.9550  0.1933 -1.2368
 2187TIP3    H130756   4.160   4.787  17.374 -1.7077  0.1178 -1.7365
 2187TIP3    H230757   4.302   4.751  17.335 -1.4307 -0.8890  0.0937
 2188TIP3   OH230758   5.445   2.120  17.520 -0.9098 -0.3668 -0.1812
 2188TIP3    H130759   5.443   2.113  17.616 -1.0843 -3.0478 -0.2984
 2188TIP3    H230760   5.533   2.149  17.500 -0.7721 -0.0833  0.7890
 2189TIP3   OH230761   1.023   0.753  17.400  0.2210  0.0937 -0.8061
 2189TIP3    H130762   1.104   0.773  17.447  0.6112  0.2825 -1.5368
 2189TIP3    H230763   1.048   0.687  17.336 -0.5263 -0.9086 -0.0832
 2190TIP3   OH230764   3.442   6.166  16.737 -0.2017 -0.5106 -0.0946
 2190TIP3    H130765   3.373   6.192  16.798 -0.8786 -1.6642 -0.3283
 2190TIP3    H230766   3.400   6.167  16.651  0.3121 -0.4265 -0.3492
 2191TIP3   OH230767   3.604   2.040  16.171  0.6201  0.5868  0.7108
 2191TIP3    H130768   3.584   1.948  16.192  0.2976  0.1059 -1.4499
 2191TIP3    H230769   3.697   2.039  16.146  0.7194  0.9344  1.0581
 2192TIP3   OH230770   8.073   4.189  17.825 -0.0577 -0.5387  0.1074
 2192TIP3    H130771   8.025   4.266  17.855 -0.3660 -0.8998  0.5479
 2192TIP3    H230772   8.068   4.194  17.729  1.0968  0.7183  0.0976
 2193TIP3   OH230773   4.918   0.735  15.534  0.2824  0.1389  0.6466
 2193TIP3    H130774   4.838   0.686  15.511 -0.6961  0.9804  2.1378
 2193TIP3    H230775   4.980   0.667  15.560 -0.7072 -0.4100  1.6610
 2194TIP3   OH230776   1.726   5.217  16.804 -0.0978  0.0909 -0.0002
 2194TIP3    H130777   1.820   5.209  16.788 -0.3223 -0.8645 -0.9089
 2194TIP3    H230778   1.698   5.128  16.829 -0.8874  0.2043 -0.4524
 2195TIP3   OH230779   2.422   7.906  15.827 -0.2274 -0.1214 -0.5147
 2195TIP3    H130780   2.492   7.846  15.802  0.2522  0.5640 -0.8598
 2195TIP3    H230781   2.466   7.990  15.841 -0.9058  0.1905 -0.2068
 2196TIP3   OH230782   6.111   3.380  17.501 -0.2926 -0.3585 -0.3934
 2196TIP3    H130783   6.151   3.465  17.488  0.4730 -0.5185  0.7782
 2196TIP3    H230784   6.141   3.327  17.427 -0.7549  0.3606 -1.1144
 2197TIP3   OH230785   0.999   3.330  15.855 -0.3411 -0.4022 -0.4933
 2197TIP3    H130786   1.091   3.306  15.867  0.3098  2.0452  0.0423
 2197TIP3    H230787   0.989   3.338  15.760 -0.6719 -2.7735 -0.7277
 2198TIP3   OH230788   3.579   7.887  15.424 -0.0616 -0.3649  0.0318
 2198TIP3    H130789   3.596   7.834  15.345 -2.1692 -0.1783 -0.5972
 2198TIP3    H230790   3.582   7.824  15.496  1.5703 -0.5912 -0.1807
 2199TIP3   OH230791   7.217   5.119  16.925  0.1372  0.3987  0.2327
 2199TIP3    H130792   7.269   5.075  16.857  0.8924  2.4083 -0.5937
 2199TIP3    H230793   7.282   5.149  16.988  0.0766  2.8847 -0.7724
 2200TIP3   OH230794   3.447   6.477  16.831  0.2106  0.2307 -0.1953
 2200TIP3    H130795   3.484   6.486  16.743  0.1056 -0.9483 -0.3672
 2200TIP3    H230796   3.507   6.418  16.876 -0.9938 -1.0344 -0.2148
 2201TIP3   OH230797   1.988   8.358  16.291 -0.1996 -0.4186 -0.3031
 2201TIP3    H130798   1.943   8.428  16.244 -0.3965 -0.1726  0.2360
 2201TIP3    H230799   1.972   8.279  16.239 -0.2991 -0.1287 -0.7138
 2202TIP3   OH230800   0.406   0.382  16.946  0.4915  0.1189 -0.1952
 2202TIP3    H130801   0.480   0.435  16.976  1.2165 -0.8111 -0.3090
 2202TIP3    H230802   0.337   0.400  17.009  1.9218 -1.6843  2.0424
 2203TIP3   OH230803   1.240   2.964  17.213  0.4513 -0.1349 -0.0283
 2203TIP3    H130804   1.188   3.021  17.270  0.3042 -0.7093  0.4192
 2203TIP3    H230805   1.217   2.876  17.239  3.2184 -0.4702  1.7325
 2204TIP3   OH230806   2.779   8.041  15.646  0.0585  0.0087  0.4138
 2204TIP3    H130807   2.704   8.066  15.699 -0.1932  0.9487 -0.3554
 2204TIP3    H230808   2.799   7.951  15.672 -2.0602 -0.6887 -0.1831
 2205TIP3   OH230809   1.927   4.946  16.686 -0.8772 -0.3399 -0.2212
 2205TIP3    H130810   1.989   4.878  16.661 -0.3266  0.3008 -0.6287
 2205TIP3    H230811   1.977   5.007  16.740 -1.3304 -0.1903  0.0359
 2206TIP3   OH230812   4.176   6.460  17.727 -0.1541 -0.2393 -0.3236
 2206TIP3    H130813   4.257   6.409  17.736  0.1549  0.4082  0.6288
 2206TIP3    H230814   4.205   6.551  17.729 -0.9736  0.0074  0.6801
 2207TIP3   OH230815   6.173   8.203  17.833  0.5040 -0.5398 -0.4539
 2207TIP3    H130816   6.245   8.236  17.778  1.9402 -1.3455  0.8549
 2207TIP3    H230817   6.184   8.248  17.917 -2.7420  2.0425 -1.2190
 2208TIP3   OH230818   4.186   8.263  16.351  0.0517 -0.0792  0.4910
 2208TIP3    H130819   4.268   8.310  16.336 -0.2882  0.2795 -0.3160
 2208TIP3    H230820   4.144   8.261  16.265 -0.1102 -1.5619  0.5829
 2209TIP3   OH230821   2.787   2.179  17.028  0.1579  0.1665  0.4552
 2209TIP3    H130822   2.766   2.195  16.935  0.3076 -0.0610  0.3829
 2209TIP3    H230823   2.874   2.141  17.027  0.8204  1.5832  0.7989
 2210TIP3   OH230824   0.336   2.378  16.233  0.6315  0.3548 -0.0566
 2210TIP3    H130825   0.281   2.300  16.227  0.9984  0.0085  0.8944
 2210TIP3    H230826   0.394   2.360  16.307  1.8894  0.7991 -0.9102
 2211TIP3   OH230827   4.946   7.496  16.253  0.1224  0.0284  0.1063
 2211TIP3    H130828   4.869   7.536  16.212 -0.3093 -0.3523  0.5374
 2211TIP3    H230829   4.986   7.443  16.184  1.1907  1.8350 -0.7382
 2212TIP3   OH230830   3.106   0.593  16.396 -0.2269 -0.0077 -0.2740
 2212TIP3    H130831   3.173   0.644  16.442 -0.2448 -0.5130  0.3191
 2212TIP3    H230832   3.153   0.548  16.326 -0.4225  1.8597 -1.6817
 2213TIP3   OH230833   0.960   2.592  17.524  0.0949 -0.0285  0.2245
 2213TIP3    H130834   0.885   2.647  17.500 -0.8921 -1.2242  0.4708
 2213TIP3    H230835   0.976   2.613  17.616 -0.7805 -0.6789  0.5453
 2214TIP3   OH230836   5.074   7.080  16.726  0.3468  0.9515  0.2175
 2214TIP3    H130837   5.151   7.087  16.783  0.8826 -1.1665 -0.1597
 2214TIP3    H230838   5.102   7.119  16.644  0.6296  1.2305  0.4440
 2215TIP3   OH230839   4.317   4.011  17.380 -0.3458  0.3248 -0.2262
 2215TIP3    H130840   4.354   3.998  17.293  0.9380  0.8941  0.2030
 2215TIP3    H230841   4.355   4.094  17.409  1.9495 -1.4021  2.1864
 2216TIP3   OH230842   4.628   2.450  16.902 -0.4002  0.3598  0.0386
 2216TIP3    H130843   4.537   2.475  16.887  0.5556  4.0091 -0.6661
 2216TIP3    H230844   4.653   2.499  16.981  1.0667 -0.3211  0.0300
 2217TIP3   OH230845   6.213   0.179  16.295 -0.1730 -0.0495  0.2424
 2217TIP3    H130846   6.266   0.248  16.255 -0.1727 -0.1234  0.1167
 2217TIP3    H230847   6.123   0.206  16.279 -0.2223  1.0026  1.9866
 2218TIP3   OH230848   0.101   5.371  16.075  0.2111 -0.2319  0.3340
 2218TIP3    H130849   0.018   5.385  16.031 -0.4964  1.8426  2.1379
 2218TIP3    H230850   0.165   5.419  16.022 -0.3669  1.0193  0.7331
 2219TIP3   OH230851   6.879   4.331  17.869  0.1645  0.6114 -0.2331
 2219TIP3    H130852   6.862   4.239  17.851  1.2096 -0.0059  1.6780
 2219TIP3    H230853   6.957   4.352  17.818 -1.2062  1.0602 -2.2611
 2220TIP3   OH230854   3.479   3.916  17.421 -0.0239 -0.4345 -0.1376
 2220TIP3    H130855   3.442   3.848  17.476  0.4386 -0.4497  0.1590
 2220TIP3    H230856   3.404   3.971  17.398 -0.5187 -1.4090 -0.9325
 2221TIP3   OH230857   2.199   5.885  16.192  0.4771 -0.5847 -0.0329
 2221TIP3    H130858   2.108   5.857  16.204 -0.0604  0.4742 -1.4695
 2221TIP3    H230859   2.248   5.803  16.183 -0.4131 -1.1449  0.1118
 2222TIP3   OH230860   3.657   3.552  16.239 -0.0286 -0.4999  0.1917
 2222TIP3    H130861   3.589   3.618  16.250  1.7536  1.4258  0.2898
 2222TIP3    H230862   3.671   3.518  16.327 -1.4889 -1.6473  0.0245
 2223TIP3   OH230863   0.334   0.529  16.674  0.1197  0.4827 -0.2190
 2223TIP3    H130864   0.297   0.613  16.701  0.4557  0.7647 -0.6276
 2223TIP3    H230865   0.421   0.528  16.714 -0.4262 -0.3352  1.0423
 2224TIP3   OH230866   5.159   8.440  18.120  0.6908 -0.3579  0.6326
 2224TIP3    H130867   5.234   8.485  18.158 -1.0396  0.6338  3.1093
 2224TIP3    H230868   5.084   8.498  18.136 -0.7712 -1.6181 -1.1034
 2225TIP3   OH230869   6.231   2.169  17.186 -0.1014  0.1421  0.2543
 2225TIP3    H130870   6.145   2.128  17.184  0.3934 -0.8886 -0.6402
 2225TIP3    H230871   6.284   2.111  17.241 -0.2804  1.4450  1.8806
 2226TIP3   OH230872   4.408   5.045  17.422 -0.1841 -0.0882  0.2663
 2226TIP3    H130873   4.470   5.095  17.475  1.4037  0.4195 -1.9499
 2226TIP3    H230874   4.375   5.108  17.358 -0.9205 -1.0149 -0.2863
 2227TIP3   OH230875   1.687   4.133  17.364 -0.2501  0.2126  0.2488
 2227TIP3    H130876   1.750   4.205  17.363  0.4348 -0.3709  0.7286
 2227TIP3    H230877   1.706   4.083  17.285 -1.4031  1.1073 -0.6356
 2228TIP3   OH230878   3.508   6.262  17.567  0.4018 -0.3105  0.1352
 2228TIP3    H130879   3.461   6.316  17.631 -1.1918 -2.0518  0.4914
 2228TIP3    H230880   3.584   6.316  17.542 -0.7159  1.7805  0.9988
 2229TIP3   OH230881   0.111   4.072  15.844  0.0690  0.6137 -0.0874
 2229TIP3    H130882   0.149   4.064  15.932  0.8189  0.3820 -0.4232
 2229TIP3    H230883   0.141   3.995  15.798  1.6160  1.8384 -1.2434
 2230TIP3   OH230884   3.962   7.320  17.287  0.2946  0.2148  0.1086
 2230TIP3    H130885   3.911   7.240  17.300  0.4264  0.3823  2.0706
 2230TIP3    H230886   4.030   7.315  17.355  2.0746  0.6391 -1.5643
 2231TIP3   OH230887   8.217   1.206  17.527  1.1943 -0.3990  0.4492
 2231TIP3    H130888   8.193   1.127  17.479  2.9145 -0.9418  0.4322
 2231TIP3    H230889   8.180   1.194  17.614 -0.4042 -0.2150 -0.1651
 2232TIP3   OH230890   5.982   7.260  17.194  0.4655 -0.0197  0.8976
 2232TIP3    H130891   5.936   7.188  17.236  1.5697 -1.0231  0.4629
 2232TIP3    H230892   6.045   7.291  17.259 -1.1721  1.7694  1.7208
 2233TIP3   OH230893   5.177   5.959  17.333 -0.3136 -0.0448  0.1183
 2233TIP3    H130894   5.221   6.006  17.405  0.2873  0.2707 -0.4410
 2233TIP3    H230895   5.248   5.936  17.273 -0.9608  0.8985 -1.0592
 2234TIP3   OH230896   0.409   5.081  17.195  0.2149  0.3317 -0.3877
 2234TIP3    H130897   0.403   5.125  17.111  0.3527  0.5076 -0.3051
 2234TIP3    H230898   0.491   5.111  17.233  1.6726 -1.9770 -1.4657
 2235TIP3   OH230899   5.749   1.121  17.715 -0.0873  0.2334 -0.3661
 2235TIP3    H130900   5.764   1.110  17.809  1.0897 -0.5242 -0.6177
 2235TIP3    H230901   5.661   1.157  17.708  0.5635  2.2519  1.1264
 2236TIP3   OH230902   7.008   0.597  16.094  0.7197  0.1521 -0.1983
 2236TIP3    H130903   6.920   0.634  16.089  1.1453  1.2533  0.2518
 2236TIP3    H230904   7.015   0.542  16.016 -0.2449  0.3045 -0.4094
 2237TIP3   OH230905   5.410   6.800  16.578 -0.8283 -0.0858  0.5089
 2237TIP3    H130906   5.348   6.842  16.517  2.0805  2.2861 -1.0888
 2237TIP3    H230907   5.412   6.859  16.654 -1.0583 -0.5507  0.8774
 2238TIP3   OH230908   1.323   0.455  16.215 -0.3659  0.8482  0.3024
 2238TIP3    H130909   1.238   0.438  16.256 -0.4429  1.6469  0.4890
 2238TIP3    H230910   1.307   0.525  16.153 -0.0701  0.2188 -0.5053
 2239TIP3   OH230911   1.704   8.296  16.402 -0.3266 -0.1305 -0.1551
 2239TIP3    H130912   1.771   8.290  16.333 -1.1342  0.2779 -0.9925
 2239TIP3    H230913   1.753   8.323  16.480  0.5570 -0.2651 -0.6479
 2240TIP3   OH230914   2.314   5.766  15.875 -0.1241 -0.3554  0.1114
 2240TIP3    H130915   2.295   5.711  15.951 -1.2067  0.1955  0.2719
 2240TIP3    H230916   2.233   5.816  15.862  0.5175  0.5350 -0.5707
 2241TIP3   OH230917   5.446   1.324  17.058 -0.3063 -0.1823  0.7881
 2241TIP3    H130918   5.483   1.247  17.014 -1.6111  0.8096 -2.3417
 2241TIP3    H230919   5.521   1.366  17.100  0.9816 -1.5054 -0.0888
 2242TIP3   OH230920   6.921   4.559  16.854 -0.3051 -0.9614 -0.2446
 2242TIP3    H130921   6.838   4.526  16.888 -1.8462  0.0254 -2.6977
 2242TIP3    H230922   6.924   4.650  16.882  0.3713 -1.2108  0.5161
 2243TIP3   OH230923   1.481   5.733  16.418  0.0095  0.1699  0.1508
 2243TIP3    H130924   1.397   5.736  16.374  0.9631  3.3623 -1.7952
 2243TIP3    H230925   1.462   5.756  16.509 -1.1495  2.5943 -0.6109
 2244TIP3   OH230926   0.565   4.919  16.965 -0.2874  0.5234  0.2491
 2244TIP3    H130927   0.476   4.953  16.953 -0.0907  1.0154  0.1401
 2244TIP3    H230928   0.621   4.991  16.938  0.1456  0.1393  0.1117
 2245TIP3   OH230929   2.046   1.813  15.936 -0.4129  0.2996 -0.6263
 2245TIP3    H130930   2.029   1.868  15.860 -1.1820  0.4118 -0.3850
 2245TIP3    H230931   2.040   1.873  16.010  1.2780  0.3828 -0.5281
 2246TIP3   OH230932   1.451   3.133  18.030 -0.1646  0.0990 -0.2103
 2246TIP3    H130933   1.497   3.137  17.946 -1.0169 -2.3472 -0.8760
 2246TIP3    H230934   1.377   3.192  18.019 -1.9860 -2.3624 -2.4193
 2247TIP3   OH230935   5.930   6.341  16.227  0.0989  0.2680  0.0440
 2247TIP3    H130936   5.849   6.337  16.177 -0.3009  0.2566  0.6777
 2247TIP3    H230937   5.978   6.262  16.202  0.9966  1.4064 -2.0988
 2248TIP3   OH230938   6.910   2.649  17.268 -0.0934 -0.2503 -0.3840
 2248TIP3    H130939   6.846   2.720  17.277  0.4943  0.2110  0.2030
 2248TIP3    H230940   6.898   2.617  17.179 -0.6413  0.3124 -0.5178
 2249TIP3   OH230941   4.448   7.671  16.404  0.2016 -0.0361  0.0605
 2249TIP3    H130942   4.453   7.748  16.347 -0.7237 -0.8243 -1.1395
 2249TIP3    H230943   4.455   7.706  16.493  2.2463  1.1955 -0.5171
 2250TIP3   OH230944   0.147   4.798  16.694 -0.0815 -0.5632 -0.4693
 2250TIP3    H130945   0.061   4.812  16.734 -0.1998 -0.1367 -0.8606
 2250TIP3    H230946   0.209   4.825  16.761 -0.2740 -0.0031 -0.5080
 2251TIP3   OH230947   1.911   4.036  15.458  0.9179 -0.3590  0.2497
 2251TIP3    H130948   1.910   4.102  15.389  0.1271  0.2510  0.8299
 2251TIP3    H230949   1.917   4.085  15.540 -0.4993 -0.9325  0.7357
 2252TIP3   OH230950   4.904   2.069  15.907  0.3526  0.8607 -0.3920
 2252TIP3    H130951   4.850   1.997  15.875  1.1493  0.2672 -0.4141
 2252TIP3    H230952   4.986   2.029  15.934  1.6916  1.9829 -2.4652
 2253TIP3   OH230953   5.765   7.648  16.464 -0.3247 -0.1803  0.1789
 2253TIP3    H130954   5.756   7.668  16.558  1.7084 -2.0971  0.8636
 2253TIP3    H230955   5.750   7.553  16.458  0.9129 -0.3197 -1.2154
 2254TIP3   OH230956   6.311   4.870  16.528 -0.0294  0.5774  0.3915
 2254TIP3    H130957   6.357   4.902  16.450  0.7367  1.4806  1.1861
 2254TIP3    H230958   6.259   4.796  16.497  0.6396  0.6200 -0.8845
 2255TIP3   OH230959   2.297   5.395  17.231  0.7742  0.1718  0.1717
 2255TIP3    H130960   2.325   5.468  17.287  1.3985  0.7082 -0.8110
 2255TIP3    H230961   2.371   5.335  17.232  0.9434  0.3653 -0.3709
 2256TIP3   OH230962   7.538   5.409  16.825 -0.0524  0.0008 -0.0838
 2256TIP3    H130963   7.503   5.420  16.914 -1.0954  0.2336 -0.5067
 2256TIP3    H230964   7.606   5.476  16.818  0.3524 -0.3112  0.6849
 2257TIP3   OH230965   7.943   3.250  15.799  0.4145 -0.3049  0.3488
 2257TIP3    H130966   7.925   3.192  15.872  0.1448 -0.6678 -0.0051
 2257TIP3    H230967   7.994   3.322  15.837 -1.4735  0.5910  1.3056
 2258TIP3   OH230968   1.381   1.613  17.475  0.4353  0.1025 -0.2516
 2258TIP3    H130969   1.354   1.705  17.481  1.2783  0.4256 -1.0753
 2258TIP3    H230970   1.300   1.563  17.487  0.1665  0.8947  1.6010
 2259TIP3   OH230971   1.201   6.059  15.813  0.1021 -0.4045 -0.3043
 2259TIP3    H130972   1.191   6.146  15.851  0.1241 -0.7325  0.4709
 2259TIP3    H230973   1.113   6.024  15.808  0.1376 -0.5143 -0.1792
 2260TIP3   OH230974   6.788   2.900  17.188 -0.4836 -0.5057  0.1567
 2260TIP3    H130975   6.836   2.972  17.147 -1.1831  0.1038  0.3842
 2260TIP3    H230976   6.707   2.940  17.218 -0.4308 -1.1631  1.2187
 2261TIP3   OH230977   1.486   7.520  17.401  0.3300 -0.1278  0.4741
 2261TIP3    H130978   1.429   7.584  17.358  0.1877 -0.1113  0.6820
 2261TIP3    H230979   1.425   7.460  17.444  0.4533  1.2040  2.6446
 2262TIP3   OH230980   8.183   4.554  17.951 -0.7000  0.2381 -0.5227
 2262TIP3    H130981   8.092   4.527  17.936  0.1686 -1.9165 -2.6249
 2262TIP3    H230982   8.231   4.471  17.960  0.9218  1.3166  1.9871
 2263TIP3   OH230983   7.144   6.531  17.206  0.4466 -0.2200  0.4295
 2263TIP3    H130984   7.125   6.555  17.296 -0.7802  1.4190 -0.2347
 2263TIP3    H230985   7.235   6.558  17.192  0.7732 -0.8425  1.2591
 2264TIP3   OH230986   7.716   4.637  16.741 -0.2692 -0.2714 -0.2639
 2264TIP3    H130987   7.633   4.606  16.779  0.1830  1.4815  2.4340
 2264TIP3    H230988   7.709   4.732  16.741  0.9562 -0.1284 -2.0264
 2265TIP3   OH230989   1.084   2.723  17.323  0.2082  0.3112  0.2393
 2265TIP3    H130990   1.013   2.781  17.297 -0.5686 -1.6994 -2.5374
 2265TIP3    H230991   1.052   2.678  17.401 -1.6445 -0.5360 -0.9477
 2266TIP3   OH230992   2.636   6.715  15.807 -0.4918 -0.5276 -0.9077
 2266TIP3    H130993   2.720   6.697  15.848 -0.7749 -1.1751 -0.5843
 2266TIP3    H230994   2.633   6.810  15.798  0.6337 -0.5479 -1.7191
 2267TIP3   OH230995   4.127   3.150  16.994 -0.0339  0.3365 -0.6657
 2267TIP3    H130996   4.100   3.078  16.937  1.5819 -0.4774 -0.4369
 2267TIP3    H230997   4.220   3.161  16.978 -0.0235  1.6522  0.1248
 2268TIP3   OH230998   3.173   7.469  17.660  0.0034  0.3424  0.3301
 2268TIP3    H130999   3.184   7.374  17.666 -1.8875 -0.0570 -1.4224
 2268TIP3    H231000   3.200   7.491  17.571  0.3231  1.4454  0.6804
 2269TIP3   OH231001   1.418   7.339  18.237 -0.0539  0.4047 -0.9705
 2269TIP3    H131002   1.447   7.427  18.258 -3.0158  1.1219  0.7184
 2269TIP3    H231003   1.433   7.329  18.143  0.9971  2.4091 -1.0470
 2270TIP3   OH231004   0.721   2.403  16.721 -0.0840 -0.3305  0.1332
 2270TIP3    H131005   0.764   2.331  16.768  1.2152  0.0418 -0.4390
 2270TIP3    H231006   0.663   2.443  16.786 -0.7398 -1.7965  0.4950
 2271TIP3   OH231007   2.687   6.971  17.680 -0.6094  0.8062 -0.2329
 2271TIP3    H131008   2.749   6.904  17.651 -1.3218  1.1305 -2.8352
 2271TIP3    H231009   2.629   6.926  17.741 -0.3834 -0.6730 -1.0663
 2272TIP3   OH231010   2.829   4.172  17.230 -0.2443 -0.6089 -0.3455
 2272TIP3    H131011   2.924   4.162  17.223 -0.1152 -1.0783  1.5081
 2272TIP3    H231012   2.814   4.266  17.226  0.8249 -0.0840  3.5958
 2273TIP3   OH231013   6.256   1.545  15.993  0.8127  0.2411 -0.3091
 2273TIP3    H131014   6.197   1.502  16.054 -0.1949 -0.9094 -2.0380
 2273TIP3    H231015   6.317   1.476  15.966  1.7895  0.9525  0.0074
 2274TIP3   OH231016   3.311   5.092  16.616  0.2317 -0.1922 -0.0307
 2274TIP3    H131017   3.386   5.141  16.581 -0.2227  0.3467 -0.2727
 2274TIP3    H231018   3.315   5.108  16.710  0.6091 -0.4385 -0.0003
 2275TIP3   OH231019   5.690   8.095  17.445 -0.2546  0.0669 -0.3712
 2275TIP3    H131020   5.608   8.050  17.468  0.9713 -0.9784  2.3970
 2275TIP3    H231021   5.758   8.029  17.457  1.1953  1.4176 -0.7958
 2276TIP3   OH231022   6.321   3.992  17.412 -0.2527  0.1891 -0.1901
 2276TIP3    H131023   6.409   4.006  17.376 -0.9414 -0.0630 -2.0543
 2276TIP3    H231024   6.264   4.049  17.359 -1.2118  0.4877  1.1074
 2277TIP3   OH231025   4.362   8.180  17.539  0.1148 -0.0360  0.4857
 2277TIP3    H131026   4.416   8.249  17.499  1.1412 -0.2251  1.4952
 2277TIP3    H231027   4.281   8.181  17.488  0.7259  0.8487 -0.5221
 2278TIP3   OH231028   2.850   1.702  17.600 -0.2426 -0.1436  0.1785
 2278TIP3    H131029   2.823   1.676  17.688  0.3165 -1.1700  0.0586
 2278TIP3    H231030   2.768   1.710  17.551 -0.6683  1.7873  1.1187
 2279TIP3   OH231031   4.487   6.353  15.866 -0.2839  0.3399 -0.3156
 2279TIP3    H131032   4.421   6.388  15.926 -0.8702 -2.3668  0.7765
 2279TIP3    H231033   4.437   6.297  15.806  0.5824  1.3153 -2.0122
 2280TIP3   OH231034   1.396   4.322  16.438  0.0497  0.3279 -0.0142
 2280TIP3    H131035   1.417   4.299  16.348 -0.2378  0.6257 -0.1632
 2280TIP3    H231036   1.334   4.395  16.430  0.8989  1.1222  0.4349
 2281TIP3   OH231037   2.895   6.188  17.784 -0.0670  0.0357 -0.6330
 2281TIP3    H131038   2.823   6.232  17.739 -1.1950 -1.9192 -0.8519
 2281TIP3    H231039   2.966   6.253  17.785 -1.4319  1.6169 -1.4208
 2282TIP3   OH231040   8.394   6.122  17.091 -0.3182  0.3069 -0.8739
 2282TIP3    H131041   8.353   6.050  17.042 -1.0144  0.9681 -1.2808
 2282TIP3    H231042   8.349   6.122  17.175  1.2551 -1.1872  0.0496
 2283TIP3   OH231043   1.284   3.879  17.346 -0.8117  0.0602  0.6990
 2283TIP3    H131044   1.344   3.907  17.415 -0.0448  0.4333 -0.1142
 2283TIP3    H231045   1.271   3.957  17.292 -2.1654  0.0326  0.9505
 2284TIP3   OH231046   6.579   4.528  16.732 -0.8506  0.3053 -0.1062
 2284TIP3    H131047   6.500   4.557  16.778 -0.5506 -0.3503  0.8710
 2284TIP3    H231048   6.610   4.605  16.685 -1.5263  0.8299  0.2889
 2285TIP3   OH231049   3.845   3.585  16.715 -0.5530  0.4897  0.0633
 2285TIP3    H131050   3.866   3.544  16.632  3.2197 -0.7556  1.4269
 2285TIP3    H231051   3.905   3.659  16.722  1.6978 -1.3632  2.9055
 2286TIP3   OH231052   2.575   0.909  15.943 -0.2405 -0.2558  0.2315
 2286TIP3    H131053   2.666   0.922  15.970  0.1487 -0.9085 -0.6946
 2286TIP3    H231054   2.577   0.828  15.891 -1.0313  0.6123 -1.2312
 2287TIP3   OH231055   2.879   0.415  16.844 -0.1271 -0.2321 -0.0978
 2287TIP3    H131056   2.923   0.433  16.761 -1.6641  0.5014 -0.7961
 2287TIP3    H231057   2.878   0.319  16.849 -0.3649 -0.3066 -1.1526
 2288TIP3   OH231058   4.380   2.533  16.359  0.2624 -0.0855 -0.4699
 2288TIP3    H131059   4.404   2.536  16.451 -1.1409  2.2701 -0.0816
 2288TIP3    H231060   4.302   2.477  16.356  0.0944  0.1277 -0.1526
 2289TIP3   OH231061   0.015   3.822  16.510  0.1951  0.6900  0.3700
 2289TIP3    H131062   0.085   3.803  16.447  0.1687  0.5106  0.3940
 2289TIP3    H231063   0.060   3.830  16.594  0.1377  0.0867  0.4696
 2290TIP3   OH231064   0.696   5.045  16.345 -1.0289 -0.0792 -0.2346
 2290TIP3    H131065   0.715   4.957  16.314  1.6110  1.0102 -2.0154
 2290TIP3    H231066   0.748   5.103  16.289 -1.8487  2.5685  1.5266
 2291TIP3   OH231067   8.045   7.268  15.626 -0.1259 -0.1231 -0.4085
 2291TIP3    H131068   8.123   7.222  15.656 -0.2088  0.2891  0.5054
 2291TIP3    H231069   8.019   7.224  15.546  0.3911 -0.9839 -0.1109
 2292TIP3   OH231070   5.405   7.360  15.826 -0.2639 -0.0457 -0.5269
 2292TIP3    H131071   5.496   7.345  15.851  0.0719 -0.5304 -1.9462
 2292TIP3    H231072   5.365   7.274  15.828 -0.3448 -0.0275 -1.1651
 2293TIP3   OH231073   0.673   5.465  16.353 -0.9162  0.1709  0.3729
 2293TIP3    H131074   0.613   5.513  16.411 -0.5986  0.1502  0.7236
 2293TIP3    H231075   0.760   5.491  16.382 -0.7533  0.7883 -0.6310
 2294TIP3   OH231076   1.260   1.866  17.448 -0.2660 -0.1860  0.6327
 2294TIP3    H131077   1.323   1.929  17.484 -0.9445  0.8089  0.1136
 2294TIP3    H231078   1.175   1.909  17.455 -0.5321 -0.2834 -1.3607
 2295TIP3   OH231079   4.422   6.367  16.987 -0.0039  0.4924 -0.3551
 2295TIP3    H131080   4.499   6.407  16.947 -0.7461  0.8629 -1.4571
 2295TIP3    H231081   4.446   6.275  16.999  1.5386  1.1004  1.7535
 2296TIP3   OH231082   3.128   7.740  16.497  0.9162 -0.1723 -0.4519
 2296TIP3    H131083   3.056   7.681  16.474 -0.4057  1.8269 -1.7385
 2296TIP3    H231084   3.203   7.706  16.450  0.2081 -0.8842 -1.0965
 2297TIP3   OH231085   1.217   1.335  14.906  0.7089  0.0351 -0.1729
 2297TIP3    H131086   1.264   1.334  14.989 -1.1858 -0.6211  0.9627
 2297TIP3    H231087   1.190   1.244  14.893  2.1943 -0.1796 -2.2984
 2298TIP3   OH231088   3.723   3.219  15.587  0.0432 -0.7192 -0.1946
 2298TIP3    H131089   3.779   3.166  15.529  0.1866 -0.5658 -0.1973
 2298TIP3    H231090   3.634   3.202  15.556  0.2582  1.6936 -2.4822
 2299TIP3   OH231091   5.738   0.890  18.311 -0.0768 -0.0264 -0.2507
 2299TIP3    H131092   5.722   0.938  18.392 -2.8298 -0.9543 -0.1343
 2299TIP3    H231093   5.698   0.944  18.243 -2.6043 -1.6726 -0.2043
 2300TIP3   OH231094   7.795   0.771  17.599 -0.1229 -0.2249 -0.0796
 2300TIP3    H131095   7.716   0.733  17.560 -0.3979  0.8664 -0.6050
 2300TIP3    H231096   7.828   0.832  17.533  2.6048 -2.4443 -0.9842
 2301TIP3   OH231097   6.582   0.631  17.760 -0.2924  0.5784 -0.1878
 2301TIP3    H131098   6.599   0.558  17.700 -1.7149  0.8241 -0.9302
 2301TIP3    H231099   6.518   0.596  17.822  0.8800  0.4486  0.9843
 2302TIP3   OH231100   3.907   0.671  17.830 -0.1419  0.5156 -0.2425
 2302TIP3    H131101   3.920   0.746  17.772 -0.1446  0.3110 -0.5126
 2302TIP3    H231102   3.960   0.690  17.907  0.2212  0.5795 -0.5098
 2303TIP3   OH231103   2.079   4.452  17.512 -0.4292 -0.1732 -0.7789
 2303TIP3    H131104   2.080   4.514  17.438  0.6986  2.5023  1.2858
 2303TIP3    H231105   2.007   4.483  17.567  0.4487 -0.4160  0.5287
 2304TIP3   OH231106   5.082   6.333  16.287 -0.0946  0.2466 -0.5140
 2304TIP3    H131107   4.988   6.344  16.271  0.1884  1.3949 -1.5939
 2304TIP3    H231108   5.103   6.397  16.354  0.0035  0.3333 -0.6282
 2305TIP3   OH231109   6.032   4.900  16.388  0.1031  0.0733 -0.1136
 2305TIP3    H131110   6.064   4.815  16.418 -1.4497 -0.4390  0.1863
 2305TIP3    H231111   6.092   4.964  16.427  2.4852 -0.9240 -1.9291
 2306TIP3   OH231112   7.211   0.471  16.753 -0.0155 -0.0809  0.1119
 2306TIP3    H131113   7.233   0.402  16.691 -1.2757 -1.3857  1.0785
 2306TIP3    H231114   7.178   0.543  16.698  1.1747 -0.2668 -0.8854
 2307TIP3   OH231115   6.253   3.749  15.947 -0.0257 -0.5835  0.0588
 2307TIP3    H131116   6.316   3.817  15.971 -0.0669 -0.9752  1.3892
 2307TIP3    H231117   6.294   3.667  15.976 -0.7376 -0.9381  0.0949
 2308TIP3   OH231118   3.713   7.880  17.507  0.2031 -0.2224  0.6101
 2308TIP3    H131119   3.727   7.915  17.419  3.8956  0.9753  1.5034
 2308TIP3    H231120   3.764   7.799  17.509  1.6555  0.6892  2.1239
 2309TIP3   OH231121   3.179   2.872  17.262  0.2281 -0.3115 -0.0346
 2309TIP3    H131122   3.266   2.868  17.222 -0.1365 -0.3527 -0.8455
 2309TIP3    H231123   3.196   2.878  17.356  1.0930 -1.6304 -0.0758
 2310TIP3   OH231124   7.148   2.773  17.319 -0.6270 -0.3449 -0.5814
 2310TIP3    H131125   7.117   2.831  17.388 -1.4732 -2.7037  1.1686
 2310TIP3    H231126   7.069   2.750  17.270 -0.8150 -2.0369  0.4282
 2311TIP3   OH231127   3.564   7.123  16.471  0.1088 -0.0954 -0.1459
 2311TIP3    H131128   3.521   7.206  16.452  0.5097 -0.2374 -1.8109
 2311TIP3    H231129   3.657   7.144  16.477  0.0883 -0.2161  0.8495
 2312TIP3   OH231130   2.907   2.321  15.916  0.2212 -0.5602  0.9092
 2312TIP3    H131131   2.829   2.277  15.883  1.5726 -2.1851 -0.2851
 2312TIP3    H231132   2.972   2.252  15.925  2.1976  1.0154 -0.2566
 2313TIP3   OH231133   5.526   0.305  16.928 -0.1662 -0.2436 -0.5809
 2313TIP3    H131134   5.517   0.340  17.016 -0.7115  1.0878 -1.1459
 2313TIP3    H231135   5.476   0.364  16.872 -3.1252 -3.1636 -1.3512
 2314TIP3   OH231136   0.759   5.284  17.495  0.5295 -0.3351 -0.2480
 2314TIP3    H131137   0.720   5.371  17.485 -1.3863 -1.1601 -0.2237
 2314TIP3    H231138   0.853   5.300  17.491  0.2006  1.5846 -1.5317
 2315TIP3   OH231139   1.637   5.110  16.411 -0.3160 -0.2973 -0.4137
 2315TIP3    H131140   1.644   5.026  16.457 -0.7557 -0.6368 -0.9506
 2315TIP3    H231141   1.623   5.086  16.319 -0.0392  0.3665 -0.6340
 2316TIP3   OH231142   7.413   1.288  17.017 -0.3147  0.5043 -0.6058
 2316TIP3    H131143   7.415   1.277  17.112  0.0525  0.2300 -0.6414
 2316TIP3    H231144   7.327   1.255  16.991 -0.0469 -0.3304 -0.4708
 2317TIP3   OH231145   1.641   6.606  16.033  0.0083  0.0945 -0.3333
 2317TIP3    H131146   1.654   6.515  16.058  1.4776  0.4825  0.4196
 2317TIP3    H231147   1.647   6.606  15.937 -0.3768 -0.6273 -0.3651
 2318TIP3   OH231148   5.402   4.622  17.723  0.1951  0.3887  0.3109
 2318TIP3    H131149   5.365   4.651  17.806 -1.2945  1.6930 -0.7507
 2318TIP3    H231150   5.397   4.699  17.666  1.0079 -0.5178 -1.0486
 2319TIP3   OH231151   4.400   8.388  16.265 -0.1331  0.4770  0.0746
 2319TIP3    H131152   4.404   8.482  16.284 -2.4201  0.3789  1.3972
 2319TIP3    H231153   4.428   8.381  16.173 -0.0154  2.4486 -0.0825
 2320TIP3   OH231154   8.332   1.224  16.379 -0.5347  0.1644 -0.5162
 2320TIP3    H131155   8.308   1.133  16.361  0.0931  0.2626 -1.9948
 2320TIP3    H231156   8.251   1.264  16.411 -1.3016 -0.5001 -1.5512
 2321TIP3   OH231157   5.755   5.741  16.734 -0.2998 -0.2746  0.4155
 2321TIP3    H131158   5.698   5.775  16.803 -0.6234 -1.7450  0.9251
 2321TIP3    H231159   5.841   5.736  16.775 -0.3248 -0.3733  0.4584
 2322TIP3   OH231160   6.114   2.651  17.778  0.1170 -0.6193  0.0579
 2322TIP3    H131161   6.074   2.581  17.726 -0.2545 -1.0076  0.8564
 2322TIP3    H231162   6.081   2.732  17.739 -0.8575 -0.9210  0.2397
 2323TIP3   OH231163   7.217   1.432  15.845 -0.5259  0.1101 -0.2680
 2323TIP3    H131164   7.126   1.428  15.818  0.0398 -1.5934 -2.2104
 2323TIP3    H231165   7.243   1.523  15.829 -1.7780  0.5469  0.0514
 2324TIP3   OH231166   0.652   3.193  16.254  0.4276  0.8007  0.0991
 2324TIP3    H131167   0.705   3.217  16.330  1.9839 -1.2396 -0.2682
 2324TIP3    H231168   0.713   3.194  16.180 -0.7023  1.1628 -0.8718
 2325TIP3   OH231169   3.966   2.231  17.761  0.3980 -0.4498  0.9098
 2325TIP3    H131170   3.877   2.260  17.740  0.7497  0.6005  0.7821
 2325TIP3    H231171   3.977   2.149  17.713 -0.5498 -0.6639  1.0443
 2326TIP3   OH231172   5.983   3.752  16.976 -0.6070  0.1805 -0.5881
 2326TIP3    H131173   5.951   3.755  17.066 -1.4761  2.2691 -0.9203
 2326TIP3    H231174   6.074   3.782  16.983 -0.7177  0.4827 -0.4166
 2327TIP3   OH231175   6.203   0.031  18.065  0.1330  0.2376  0.6418
 2327TIP3    H131176   6.269  -0.013  18.118  2.0251  1.3622 -0.6522
 2327TIP3    H231177   6.120  -0.008  18.092  1.2993 -1.1747  2.3959
 2328TIP3   OH231178   7.329   6.118  16.878 -0.0768  0.5170  0.1948
 2328TIP3    H131179   7.267   6.187  16.856 -2.0329 -0.8644  1.0154
 2328TIP3    H231180   7.290   6.038  16.842  0.7373 -0.5406  1.5255
 2329TIP3   OH231181   6.597   1.791  16.667  0.1369  0.0771 -0.0100
 2329TIP3    H131182   6.674   1.843  16.689 -0.0810 -1.0569  4.1587
 2329TIP3    H231183   6.633   1.713  16.624  1.0419  0.5718 -0.1916
 2330TIP3   OH231184   3.472   3.992  16.900  0.2720  0.0238  0.4787
 2330TIP3    H131185   3.441   3.938  16.828  1.7233 -0.5180  0.2200
 2330TIP3    H231186   3.416   4.070  16.897  0.4855  0.1765 -1.4620
 2331TIP3   OH231187   4.547   2.529  16.614 -0.5497 -0.1748 -0.2375
 2331TIP3    H131188   4.635   2.559  16.590 -0.0435 -1.1383  0.3416
 2331TIP3    H231189   4.559   2.483  16.698 -1.0826 -2.7693 -1.4756
 2332TIP3   OH231190   2.371   5.806  17.554 -0.0662  0.6294  0.2894
 2332TIP3    H131191   2.448   5.848  17.591 -0.1366  0.0827  1.0985
 2332TIP3    H231192   2.300   5.826  17.616  0.0236 -1.1174  1.0387
 2333TIP3   OH231193   3.882   1.492  17.575  0.1289 -0.6728 -0.2867
 2333TIP3    H131194   3.835   1.534  17.646 -1.2374 -1.0751 -0.9210
 2333TIP3    H231195   3.855   1.400  17.578 -2.0264 -0.2596 -2.8412
 2334TIP3   OH231196   8.190   5.164  17.456 -0.1782 -0.4507 -0.1922
 2334TIP3    H131197   8.261   5.227  17.470 -0.7434 -0.1738  1.5860
 2334TIP3    H231198   8.223   5.081  17.490 -0.9944 -0.1210  1.5016
 2335TIP3   OH231199   4.282   6.254  16.132 -0.2773  0.5635  0.2547
 2335TIP3    H131200   4.281   6.338  16.086  1.1577  0.3392 -0.2318
 2335TIP3    H231201   4.360   6.259  16.188 -0.9187  0.0611  1.2239
 2336TIP3   OH231202   8.127   0.128  15.847  0.1060  0.2017  0.8996
 2336TIP3    H131203   8.166   0.122  15.760  1.4645  2.1542  1.3059
 2336TIP3    H231204   8.178   0.067  15.901  0.6535  0.5303  0.7628
 2337TIP3   OH231205   5.498   0.040  18.169 -0.3603 -0.0863  0.1026
 2337TIP3    H131206   5.488  -0.051  18.139 -2.0070 -0.3106  1.1673
 2337TIP3    H231207   5.550   0.033  18.249 -0.3502 -0.0881  0.0961
 2338TIP3   OH231208   6.742   5.249  16.821 -0.1116  0.2369 -0.0943
 2338TIP3    H131209   6.837   5.260  16.817 -0.1655  1.3334  0.9966
 2338TIP3    H231210   6.730   5.163  16.862  0.3680 -0.6658 -1.7502
 2339TIP3   OH231211   5.667   1.381  17.223  0.0288  0.2427 -0.3110
 2339TIP3    H131212   5.667   1.442  17.296 -3.7528 -0.1691  0.2675
 2339TIP3    H231213   5.710   1.302  17.256  0.4139  0.8583  0.6773
 2340TIP3   OH231214   2.028   7.767  17.143 -0.0875  0.2222 -0.7228
 2340TIP3    H131215   1.964   7.743  17.211  1.5066  0.6159  0.9933
 2340TIP3    H231216   2.050   7.684  17.101  0.8366 -0.4964  1.0516
 2341TIP3   OH231217   4.245   0.356  15.438  0.0046 -0.3568 -0.0146
 2341TIP3    H131218   4.192   0.282  15.407 -0.8544 -1.2473  3.1797
 2341TIP3    H231219   4.208   0.376  15.524  0.1468  3.9172 -0.7720
 2342TIP3   OH231220   6.317   5.337  16.957  0.3212 -0.1250  0.1097
 2342TIP3    H131221   6.347   5.287  17.034  1.9977 -1.8796 -1.5519
 2342TIP3    H231222   6.383   5.405  16.946  1.3107 -1.1853 -0.9137
 2343TIP3   OH231223   2.138   5.104  17.700 -0.3807 -0.3273  0.5847
 2343TIP3    H131224   2.068   5.070  17.756 -0.1387 -0.4580  0.8051
 2343TIP3    H231225   2.091   5.144  17.626 -0.7289  0.5079  1.2443
 2344TIP3   OH231226   5.699   7.506  16.122 -0.2512 -0.0049 -0.5701
 2344TIP3    H131227   5.683   7.600  16.110  1.9938  0.5470  0.3499
 2344TIP3    H231228   5.645   7.483  16.197  0.8230  1.0989  0.5984
 2345TIP3   OH231229   6.346   4.137  16.824 -0.4524  0.3089 -0.2306
 2345TIP3    H131230   6.429   4.098  16.849  0.5932  1.5014 -1.6629
 2345TIP3    H231231   6.335   4.211  16.884  0.1075  0.8314 -0.7581
 2346TIP3   OH231232   4.044   7.968  17.367 -0.0006  0.3529  0.2901
 2346TIP3    H131233   3.967   8.022  17.390 -0.9201 -0.9692  0.4243
 2346TIP3    H231234   4.008   7.881  17.352  0.9414  0.3848 -3.1724
 2347TIP3   OH231235   0.697   6.559  16.784  0.8889 -0.1942  0.2420
 2347TIP3    H131236   0.722   6.570  16.876  1.2557  0.8265  0.0438
 2347TIP3    H231237   0.715   6.645  16.744 -1.0188 -0.0390 -0.3770
 2348TIP3   OH231238   4.981   7.606  18.041  0.4770  0.1001  0.4057
 2348TIP3    H131239   4.951   7.682  18.091  0.4577  0.1912  0.2544
 2348TIP3    H231240   4.949   7.621  17.952 -0.2915 -0.5056  0.5603
 2349TIP3   OH231241   4.056   7.482  17.774  0.0809  0.1677 -0.5365
 2349TIP3    H131242   4.067   7.571  17.807 -2.2102  1.1570 -2.1842
 2349TIP3    H231243   4.089   7.485  17.684  1.2338 -1.0334 -0.1814
 2350TIP3   OH231244   5.007   1.112  16.411  0.2596 -0.0861 -0.2786
 2350TIP3    H131245   5.054   1.029  16.419 -0.9273 -0.9835 -2.0093
 2350TIP3    H231246   5.061   1.175  16.459  1.3811 -1.7711  0.7503
 2351TIP3   OH231247   4.210   4.716  16.418 -0.4424 -0.0617  0.0816
 2351TIP3    H131248   4.280   4.711  16.352  0.2073 -1.5166  0.8416
 2351TIP3    H231249   4.222   4.803  16.458  1.8149 -0.7407  1.0862
 2352TIP3   OH231250   0.001   1.913  16.048 -0.0849 -0.2450  0.1892
 2352TIP3    H131251  -0.034   1.990  16.093  0.6659 -0.2707  0.8491
 2352TIP3    H231252   0.096   1.923  16.055  0.0332 -0.6326 -0.7550
 2353TIP3   OH231253   3.910   8.042  17.001  0.1433 -0.0246 -0.2827
 2353TIP3    H131254   3.829   8.029  16.952  0.2913 -0.6352 -0.3813
 2353TIP3    H231255   3.970   8.082  16.938 -0.1609  0.6876 -0.1306
 2354TIP3   OH231256   5.062   5.555  16.750  0.1545  0.1015  0.4545
 2354TIP3    H131257   5.114   5.480  16.722  1.2600  1.2259 -0.6952
 2354TIP3    H231258   5.119   5.603  16.809 -0.4831  0.1254  1.0606
 2355TIP3   OH231259   6.781   3.068  15.645 -0.0870  0.2932  0.1700
 2355TIP3    H131260   6.850   3.014  15.607 -0.0601 -1.1130  2.0500
 2355TIP3    H231261   6.803   3.158  15.620  2.8322 -0.0289  1.2196
 2356TIP3   OH231262   1.269   7.843  17.353 -0.4090  0.2017  0.1679
 2356TIP3    H131263   1.309   7.827  17.439  0.7083 -0.0234 -0.3707
 2356TIP3    H231264   1.249   7.936  17.353 -1.4411  0.0072  1.0774
 2357TIP3   OH231265   6.467   3.025  17.050 -0.0664 -0.7558  0.1817
 2357TIP3    H131266   6.542   3.035  16.992  1.1544 -1.2633  1.5939
 2357TIP3    H231267   6.399   2.984  16.996  0.5710 -0.0784 -1.1783
 2358TIP3   OH231268   3.559   7.969  17.788  0.1403  0.7888  0.3959
 2358TIP3    H131269   3.581   7.878  17.808 -0.5214  0.6598  0.5659
 2358TIP3    H231270   3.643   8.014  17.785  0.4873  0.1389  0.1462
 2359TIP3   OH231271   6.661   3.672  17.554  0.2201  0.2326 -0.7243
 2359TIP3    H131272   6.609   3.749  17.533 -0.2079 -0.0550 -0.7233
 2359TIP3    H231273   6.610   3.626  17.621  2.0199  1.6962  1.8357
 2360TIP3   OH231274   5.761   4.340  15.931  0.1586  0.1344 -0.2620
 2360TIP3    H131275   5.710   4.416  15.903  0.3534  0.9962  1.5271
 2360TIP3    H231276   5.696   4.272  15.948 -0.1042  0.1980 -0.9965
 2361TIP3   OH231277   1.516   0.015  16.307  0.5624  0.5395  0.1998
 2361TIP3    H131278   1.547   0.026  16.217 -1.6014  0.1265 -0.6737
 2361TIP3    H231279   1.559  -0.066  16.336 -0.4369 -0.6310 -1.3496
 2362TIP3   OH231280   0.845   5.626  17.803 -0.4076  0.5306 -0.0823
 2362TIP3    H131281   0.780   5.561  17.830  0.6146  0.0040  1.2463
 2362TIP3    H231282   0.794   5.701  17.773 -1.6117 -0.3639 -0.3416
 2363TIP3   OH231283   7.389   7.473  16.692  0.0562 -0.2949 -0.1077
 2363TIP3    H131284   7.327   7.403  16.714  1.4330 -0.7045  2.9856
 2363TIP3    H231285   7.351   7.551  16.734  1.0079 -0.3011  0.7897
 2364TIP3   OH231286   4.420   5.856  17.101  0.4092  0.7242  0.1526
 2364TIP3    H131287   4.488   5.840  17.166  0.0814  0.8935  0.5489
 2364TIP3    H231288   4.401   5.771  17.064  0.6987  0.6459  0.1866
 2365TIP3   OH231289   1.549   5.284  16.606  0.2675 -0.2631  0.2317
 2365TIP3    H131290   1.615   5.256  16.668  1.8751 -0.0199 -1.2904
 2365TIP3    H231291   1.569   5.236  16.525 -0.1799  1.2688 -0.8427
 2366TIP3   OH231292   7.815   7.149  17.688  0.1464  0.1017 -0.5070
 2366TIP3    H131293   7.843   7.155  17.779 -2.3143 -1.4061  0.4496
 2366TIP3    H231294   7.893   7.169  17.637  1.8464  0.0150  1.9255
 2367TIP3   OH231295   5.268   1.358  16.354 -0.0705 -0.2955  0.5954
 2367TIP3    H131296   5.256   1.363  16.259  0.1537 -1.5698  0.4745
 2367TIP3    H231297   5.320   1.435  16.376  0.2922 -0.2418 -0.3987
 2368TIP3   OH231298   6.557   4.901  17.543 -0.1923  0.2489  0.5214
 2368TIP3    H131299   6.622   4.873  17.479 -0.3033  1.5493 -0.1817
 2368TIP3    H231300   6.566   4.838  17.615  2.1299  0.6250  0.6351
 2369TIP3   OH231301   2.977   6.887  16.838 -0.4218  0.3277  0.0222
 2369TIP3    H131302   3.014   6.955  16.894  1.5434  0.1612 -0.9706
 2369TIP3    H231303   2.885   6.912  16.827 -0.1611  1.8823  1.0425
 2370TIP3   OH231304   3.346   3.123  15.628 -0.5497  0.0666  0.4022
 2370TIP3    H131305   3.267   3.070  15.614 -0.4718  0.2568 -0.9185
 2370TIP3    H231306   3.370   3.153  15.540  2.2668 -1.7810  0.4114
 2371TIP3   OH231307   0.812   8.328  16.716  0.5748 -0.4801 -0.1354
 2371TIP3    H131308   0.782   8.292  16.799 -1.0455  0.3314 -0.3372
 2371TIP3    H231309   0.774   8.271  16.650  1.6948 -1.0043 -0.3637
 2372TIP3   OH231310   4.911   3.518  17.472 -0.0540 -0.1011 -0.2738
 2372TIP3    H131311   4.827   3.562  17.486  0.2832  0.4532  0.0658
 2372TIP3    H231312   4.928   3.528  17.379  0.7548  1.8917  0.0295
 2373TIP3   OH231313   7.949   4.843  17.380 -0.4231  0.2170  0.8597
 2373TIP3    H131314   7.906   4.845  17.294  1.7573  2.4125 -0.3460
 2373TIP3    H231315   7.984   4.932  17.390 -0.2691 -0.1089  3.8870
 2374TIP3   OH231316   1.062   7.492  16.291  0.3946  0.4672  0.1910
 2374TIP3    H131317   1.118   7.552  16.242  1.9106 -2.2306 -1.6712
 2374TIP3    H231318   0.989   7.473  16.231 -0.5385  1.0691  1.1084
 2375TIP3   OH231319   6.834   5.811  17.533 -0.1957 -0.2296 -0.2541
 2375TIP3    H131320   6.795   5.876  17.474 -1.1743  1.4302  2.0494
 2375TIP3    H231321   6.762   5.785  17.591  0.7931 -1.5254  0.4588
 2376TIP3   OH231322   3.581   8.250  17.244 -0.1697  0.0795  0.0217
 2376TIP3    H131323   3.508   8.265  17.305 -0.1961 -0.7419  0.1972
 2376TIP3    H231324   3.562   8.165  17.206 -0.3629  0.7451 -1.4405
 2377TIP3   OH231325   3.122   4.175  16.247 -0.1862  0.4203 -0.1053
 2377TIP3    H131326   3.162   4.225  16.176  1.6724  0.0401  0.6397
 2377TIP3    H231327   3.178   4.098  16.257 -0.7982  0.1260  1.3288
 2378TIP3   OH231328   4.646   3.051  17.074  0.3340  0.3831  0.1222
 2378TIP3    H131329   4.652   3.092  17.161 -2.6305  0.9052  0.1790
 2378TIP3    H231330   4.575   3.099  17.030 -0.3354 -1.8832 -1.4289
 2379TIP3   OH231331   8.402   0.698  16.499  0.0459 -0.3707  1.1449
 2379TIP3    H131332   8.355   0.614  16.494 -0.2453 -0.5025  4.2990
 2379TIP3    H231333   8.456   0.691  16.577 -0.4836  2.6199  1.8895
 2380TIP3   OH231334   6.821   2.773  16.669  0.0518 -0.4786 -0.7290
 2380TIP3    H131335   6.786   2.776  16.758 -2.2511  0.6818 -1.6037
 2380TIP3    H231336   6.744   2.770  16.612  1.4534 -2.9010 -2.7015
 2381TIP3   OH231337   5.988   7.931  16.165 -0.0241  0.1991 -0.2175
 2381TIP3    H131338   6.028   8.003  16.117  1.1153  0.7342  1.4615
 2381TIP3    H231339   5.942   7.973  16.238  1.2641 -0.7544  1.2134
 2382TIP3   OH231340   3.352   3.256  16.296  0.3682  0.0827 -0.5146
 2382TIP3    H131341   3.392   3.266  16.211  2.7909 -1.1851  0.3835
 2382TIP3    H231342   3.324   3.164  16.298  1.9830 -0.4302  0.6437
 2383TIP3   OH231343   1.488   2.574  17.820 -0.2099 -0.2558  0.6145
 2383TIP3    H131344   1.546   2.585  17.895 -0.4014  0.7430  0.6351
 2383TIP3    H231345   1.480   2.662  17.783  1.2611 -0.9895 -1.6115
 2384TIP3   OH231346   3.994   6.280  17.450  0.4514  0.0859  0.2535
 2384TIP3    H131347   4.037   6.350  17.401 -0.5151  0.5813  0.0808
 2384TIP3    H231348   3.997   6.204  17.393  1.6784 -0.0792  0.5167
 2385TIP3   OH231349   0.935   4.868  17.978 -0.4626  0.1605  0.2617
 2385TIP3    H131350   0.878   4.887  18.053 -0.8877  0.4439 -0.1266
 2385TIP3    H231351   0.880   4.818  17.918 -0.5032  0.9721 -0.3913
 2386TIP3   OH231352   7.791   1.229  17.577 -0.2207 -0.2494 -0.2880
 2386TIP3    H131353   7.789   1.309  17.630 -1.2124 -1.3599  1.4341
 2386TIP3    H231354   7.728   1.246  17.506 -0.3071  0.5403 -0.0379
 2387TIP3   OH231355   6.638   0.960  16.777  0.4124 -0.6344  0.5864
 2387TIP3    H131356   6.699   0.955  16.851 -2.3893 -1.3960  3.0319
 2387TIP3    H231357   6.632   1.053  16.757  1.5069 -0.4574  1.0291
 2388TIP3   OH231358   2.697   8.001  16.506  0.2678 -0.0011 -0.1141
 2388TIP3    H131359   2.713   7.936  16.438 -0.7529 -0.4113  0.0119
 2388TIP3    H231360   2.611   8.037  16.485  0.2069  0.2995  0.6149
 2389TIP3   OH231361   1.755   6.804  16.449  0.0098  0.0655  0.1551
 2389TIP3    H131362   1.715   6.752  16.520  0.4799 -1.6520 -0.7818
 2389TIP3    H231363   1.812   6.742  16.404  1.8627  1.8229 -0.0633
 2390TIP3   OH231364   3.582   0.834  16.667  0.1676 -0.1392  0.4713
 2390TIP3    H131365   3.581   0.770  16.738  0.4568 -1.3431 -0.5701
 2390TIP3    H231366   3.666   0.820  16.624  0.3819  1.1972  0.4301
 2391TIP3   OH231367   5.656   6.076  15.926  0.1742 -0.7507 -0.2302
 2391TIP3    H131368   5.587   6.101  15.865  1.2819 -0.4005 -1.3778
 2391TIP3    H231369   5.674   5.984  15.906  0.0923 -0.8192  0.0114
 2392TIP3   OH231370   0.956   7.054  17.185  0.6778 -0.1272 -0.2396
 2392TIP3    H131371   1.014   6.979  17.198  1.4578  0.4013 -0.6333
 2392TIP3    H231372   1.014   7.130  17.181 -0.0984  0.5032  0.1333
 2393TIP3   OH231373   4.052   2.014  16.281 -0.4808 -0.2536 -0.3345
 2393TIP3    H131374   4.001   2.022  16.362 -0.9077 -0.2693 -0.6001
 2393TIP3    H231375   4.031   1.927  16.247 -0.3607 -0.2192 -0.5003
 2394TIP3   OH231376   3.811   7.125  16.817 -0.8830  0.3242  0.3590
 2394TIP3    H131377   3.721   7.135  16.850 -1.5096 -1.1189 -0.7612
 2394TIP3    H231378   3.805   7.146  16.724  0.2017  1.3514  0.5103
 2395TIP3   OH231379   2.227   7.580  15.806 -0.2279  0.2591 -0.4415
 2395TIP3    H131380   2.218   7.535  15.890  2.3767  0.3632 -0.0102
 2395TIP3    H231381   2.238   7.672  15.830 -2.0819  0.7064 -1.1178
 2396TIP3   OH231382   0.738   5.731  16.942  0.1049 -0.1907 -0.1337
 2396TIP3    H131383   0.809   5.795  16.944  1.9162 -2.1301 -0.3104
 2396TIP3    H231384   0.715   5.723  16.849  0.8111 -0.7671 -0.2649
 2397TIP3   OH231385   1.495   6.736  16.888 -0.2488  0.3012 -0.0890
 2397TIP3    H131386   1.455   6.708  16.970 -0.3878 -0.1732 -0.3128
 2397TIP3    H231387   1.433   6.797  16.850  0.3194  1.3908  0.6834
 2398TIP3   OH231388   3.513   2.708  16.896 -0.4269  0.3034 -0.1137
 2398TIP3    H131389   3.484   2.651  16.825 -0.0177  0.5539 -0.4846
 2398TIP3    H231390   3.606   2.724  16.878 -0.4520  0.8013  0.1774
 2399TIP3   OH231391   3.486   1.027  15.909  0.3387  0.1107  0.2170
 2399TIP3    H131392   3.439   1.070  15.981 -1.3784 -0.2313 -0.6438
 2399TIP3    H231393   3.458   0.936  15.912  0.3398  0.0630 -0.7982
 2400TIP3   OH231394   6.818   5.639  17.299  0.1658 -0.2299  0.2682
 2400TIP3    H131395   6.873   5.705  17.256  0.6890 -0.8941 -0.0823
 2400TIP3    H231396   6.836   5.650  17.392  1.6787 -1.1169  0.1065
 2401TIP3   OH231397   5.094   8.362  15.794  0.1692  0.2233 -0.0280
 2401TIP3    H131398   5.146   8.309  15.854  0.5925  0.6442 -0.0161
 2401TIP3    H231399   5.034   8.300  15.752 -0.1924 -0.0709  0.8885
 2402TIP3   OH231400   3.642   5.110  17.369  0.4541 -0.0116 -0.6063
 2402TIP3    H131401   3.637   5.200  17.337 -0.2058  0.0713 -0.2838
 2402TIP3    H231402   3.736   5.090  17.370  0.4819 -0.2889 -3.3111
 2403TIP3   OH231403   1.281   7.370  17.496 -0.1946 -0.5648 -0.3100
 2403TIP3    H131404   1.243   7.386  17.582  0.7328  1.0312 -0.1560
 2403TIP3    H231405   1.285   7.274  17.489 -1.0667 -0.7254  1.0479
 2404TIP3   OH231406   4.666   5.422  17.134 -0.0842  0.3435 -0.0736
 2404TIP3    H131407   4.739   5.458  17.083 -0.0140  0.3516  0.0325
 2404TIP3    H231408   4.708   5.378  17.208 -0.1431 -0.3724 -0.4523
 2405TIP3   OH231409   7.705   3.620  18.127 -0.7185  0.2428 -0.4252
 2405TIP3    H131410   7.774   3.678  18.094  0.4681 -0.9340 -0.1132
 2405TIP3    H231411   7.743   3.532  18.122 -2.2603 -0.4689 -0.3783
 2406TIP3   OH231412   2.663   1.832  16.079 -0.7873 -0.5678  0.3441
 2406TIP3    H131413   2.691   1.853  15.990 -0.3794 -3.0095 -0.1815
 2406TIP3    H231414   2.645   1.738  16.076  1.8503 -1.3449  3.4665
 2407TIP3   OH231415   3.971   7.621  16.220  0.3993  0.3197 -0.0828
 2407TIP3    H131416   4.021   7.645  16.298  0.7706  0.8563 -0.4769
 2407TIP3    H231417   3.881   7.648  16.239  0.4981  0.4925  0.1394
 2408TIP3   OH231418   2.662   2.104  16.199 -0.3725  0.7854 -0.0113
 2408TIP3    H131419   2.710   2.097  16.281  0.2430  2.3032 -0.2135
 2408TIP3    H231420   2.679   2.021  16.154  1.6915  1.0985  0.1225
 2409TIP3   OH231421   5.499   7.205  16.157  0.3748  0.1540  0.0369
 2409TIP3    H131422   5.441   7.136  16.125 -0.7686  0.3982  1.4678
 2409TIP3    H231423   5.519   7.179  16.247 -0.2318  1.7592  0.6715
 2410TIP3   OH231424   3.736   0.940  17.622  0.1373 -0.9799  0.4693
 2410TIP3    H131425   3.718   0.946  17.528  0.8310  0.1473  0.3968
 2410TIP3    H231426   3.722   1.028  17.655 -0.5653 -1.4667  1.5316
 2411TIP3   OH231427   0.372   4.355  17.069 -0.9061  0.0242  0.0144
 2411TIP3    H131428   0.309   4.387  17.134  0.8991  0.3959  1.6706
 2411TIP3    H231429   0.425   4.431  17.047  0.1112 -0.6553  0.0314
 2412TIP3   OH231430   7.015   5.299  16.887 -0.3966 -0.7675 -0.2792
 2412TIP3    H131431   7.054   5.304  16.800 -0.5611  0.9140 -0.2830
 2412TIP3    H231432   7.066   5.232  16.932  1.1947 -0.0490 -0.9394
 2413TIP3   OH231433   3.070   2.115  15.733  0.2150 -0.2449 -0.2433
 2413TIP3    H131434   2.996   2.079  15.683  0.5663 -0.2065 -0.7993
 2413TIP3    H231435   3.075   2.059  15.810 -0.1715 -0.4738 -0.3760
 2414TIP3   OH231436   1.308   1.529  16.066  0.2176  0.3418  0.5566
 2414TIP3    H131437   1.228   1.485  16.038  1.2777 -1.3127 -0.0126
 2414TIP3    H231438   1.293   1.550  16.158 -0.7924 -0.0967  0.5084
 2415TIP3   OH231439   3.330   6.243  17.945 -0.0993  0.4453 -0.6626
 2415TIP3    H131440   3.400   6.181  17.926 -0.3016  0.1358 -0.3832
 2415TIP3    H231441   3.376   6.326  17.961  0.3064 -0.0578  0.8953
 2416TIP3   OH231442   0.922   7.323  16.846 -0.5142  0.3586  0.0864
 2416TIP3    H131443   0.908   7.229  16.829 -0.4133  0.5311 -1.0165
 2416TIP3    H231444   0.922   7.363  16.759  2.8704  0.9364  0.2113
 2417TIP3   OH231445   0.874   5.000  17.434  0.5877  0.2820 -0.1770
 2417TIP3    H131446   0.785   4.968  17.447  0.6110  0.2834 -0.0168
 2417TIP3    H231447   0.894   5.051  17.512  0.8177  0.0806 -0.1023
 2418TIP3   OH231448   5.773   5.495  16.415 -0.1519 -0.3717  0.0152
 2418TIP3    H131449   5.834   5.478  16.343 -1.2088 -1.6068 -0.6395
 2418TIP3    H231450   5.706   5.427  16.406 -0.3510 -0.5198  2.1542
 2419TIP3   OH231451   5.359   4.450  16.180  0.4933 -0.2044 -0.2378
 2419TIP3    H131452   5.447   4.459  16.145  0.3472  0.2393 -0.5061
 2419TIP3    H231453   5.323   4.373  16.136  0.4439  0.1293 -0.7878
 2420TIP3   OH231454   7.602   6.057  16.841 -0.3769  0.4010  0.5321
 2420TIP3    H131455   7.624   6.136  16.793 -0.6312  0.2895  0.2267
 2420TIP3    H231456   7.515   6.074  16.877 -0.3318  0.3529  0.6631
 2421TIP3   OH231457   7.404   5.431  17.060  0.3120  0.4016 -0.4019
 2421TIP3    H131458   7.364   5.508  17.101  0.3204  0.6285 -0.8026
 2421TIP3    H231459   7.468   5.399  17.124  0.5407  0.9266 -0.3599
 2422TIP3   OH231460   3.354   5.095  16.893  0.4262  0.2091  0.0323
 2422TIP3    H131461   3.446   5.116  16.909  0.8051 -0.0670 -1.6546
 2422TIP3    H231462   3.351   4.999  16.896 -0.0787  0.2425  1.3507
 2423TIP3   OH231463   5.778   3.027  16.719 -0.1444 -0.5637 -0.0333
 2423TIP3    H131464   5.786   2.942  16.676 -0.0532 -0.2677 -0.6210
 2423TIP3    H231465   5.765   3.007  16.811 -2.9544 -1.3407 -0.4824
 2424TIP3   OH231466   6.227   3.645  16.777  0.8863  0.2337 -0.5933
 2424TIP3    H131467   6.218   3.737  16.803 -0.1547 -0.0496  0.1079
 2424TIP3    H231468   6.256   3.649  16.686  1.1894  1.2528 -0.4662
 2425TIP3   OH231469   5.414   2.416  16.277  0.4194 -0.5971 -0.2434
 2425TIP3    H131470   5.377   2.453  16.196  1.0565 -0.1456 -0.3341
 2425TIP3    H231471   5.489   2.365  16.247 -1.1882 -3.1042 -0.2691
 2426TIP3   OH231472   3.347   6.959  16.902 -0.6120  0.1280  0.0565
 2426TIP3    H131473   3.273   7.019  16.898  0.6426  1.7931  0.8191
 2426TIP3    H231474   3.388   6.976  16.987  3.1803  2.4758 -1.9315
 2427TIP3   OH231475   0.674   2.823  16.441  0.1262 -0.3203 -0.1229
 2427TIP3    H131476   0.681   2.827  16.345  1.8112 -0.1789 -0.0220
 2427TIP3    H231477   0.706   2.908  16.471 -1.1958 -0.0302  0.5654
 2428TIP3   OH231478   2.067   1.544  15.584  0.0087  0.0538  0.1625
 2428TIP3    H131479   2.072   1.478  15.653 -1.9899 -0.3335 -0.0084
 2428TIP3    H231480   1.997   1.514  15.526  0.1445  1.5063 -0.8157
 2429TIP3   OH231481   6.854   7.519  17.697 -0.3864 -0.3403 -0.0584
 2429TIP3    H131482   6.943   7.485  17.703 -0.4547 -0.6599 -0.7346
 2429TIP3    H231483   6.798   7.449  17.730 -0.1949  1.2401  4.1515
 2430TIP3   OH231484   5.371   1.376  17.501  0.3552 -0.4383 -0.2855
 2430TIP3    H131485   5.292   1.404  17.547  0.1282 -1.1617 -0.2311
 2430TIP3    H231486   5.339   1.319  17.432  0.9054 -1.7121  0.4809
 2431TIP3   OH231487   4.571   3.050  16.288  0.1437 -0.3772  0.2737
 2431TIP3    H131488   4.601   2.960  16.304  2.4127  0.0315 -1.0716
 2431TIP3    H231489   4.639   3.087  16.231 -0.5508  2.3124  1.0552
 2432TIP3   OH231490   6.176   1.577  16.323  0.1278  0.5086  0.1424
 2432TIP3    H131491   6.166   1.530  16.241 -1.6476 -0.0879  0.6383
 2432TIP3    H231492   6.226   1.518  16.379  0.4477  0.4749 -0.1806
 2433TIP3   OH231493   1.691   6.441  17.999 -0.2395 -0.4983  0.2109
 2433TIP3    H131494   1.653   6.354  18.009 -0.1012 -0.5854 -0.0148
 2433TIP3    H231495   1.617   6.501  18.005 -0.1865 -0.5396  1.7092
 2434TIP3   OH231496   3.265   2.245  16.698 -0.3154  0.5649 -0.5387
 2434TIP3    H131497   3.269   2.149  16.699  0.2532  0.4977  2.7974
 2434TIP3    H231498   3.272   2.268  16.605  1.5135 -2.5474 -1.3356
 2435TIP3   OH231499   6.004   6.661  16.439  0.1981  0.1155  0.4108
 2435TIP3    H131500   6.049   6.672  16.523  0.4756 -1.4077  0.4877
 2435TIP3    H231501   6.071   6.623  16.382  0.0183  1.1613 -0.5347
 2436TIP3   OH231502   4.678   2.644  17.674  0.5567  0.6002  0.2551
 2436TIP3    H131503   4.736   2.719  17.685  0.1500  0.7578  1.4403
 2436TIP3    H231504   4.638   2.657  17.588  0.9200  1.4384  0.2054
 2437TIP3   OH231505   3.889   7.586  16.988 -0.1208 -0.0620 -0.2117
 2437TIP3    H131506   3.984   7.574  16.994 -0.1313  0.2368  0.7547
 2437TIP3    H231507   3.875   7.626  16.901  1.3266  5.5513  1.6829
 2438TIP3   OH231508   7.816   7.587  16.283 -0.2381  0.1830 -0.4813
 2438TIP3    H131509   7.775   7.661  16.328  0.0643 -1.1418  2.1724
 2438TIP3    H231510   7.743   7.531  16.257 -0.3274 -0.1372  0.4393
 2439TIP3   OH231511   3.721   4.441  17.671 -0.6973  0.2232 -0.5130
 2439TIP3    H131512   3.787   4.390  17.623 -0.8536 -0.9309  0.4481
 2439TIP3    H231513   3.754   4.531  17.669  1.1577 -0.3859  0.2996
 2440TIP3   OH231514   1.954   3.798  17.007 -0.1440  0.2717  0.5496
 2440TIP3    H131515   1.923   3.835  17.090 -1.3546  0.0149  0.2310
 2440TIP3    H231516   1.962   3.874  16.949  0.3618  0.4068  0.7918
 2441TIP3   OH231517   1.402   7.027  18.052 -0.1660 -0.1572 -0.0439
 2441TIP3    H131518   1.388   7.034  18.146 -1.5165  0.1806 -0.2504
 2441TIP3    H231519   1.345   6.954  18.025  0.3718 -0.3891 -0.5654
 2442TIP3   OH231520   2.361   1.913  17.440  0.7119  0.0824  0.0897
 2442TIP3    H131521   2.281   1.965  17.440  1.0253  0.5757 -1.0842
 2442TIP3    H231522   2.331   1.822  17.447  0.0846  0.3057  0.2916
 2443TIP3   OH231523   3.205   4.350  15.763 -0.6443 -0.0549 -0.5293
 2443TIP3    H131524   3.121   4.360  15.808 -0.7107 -2.7257  0.1029
 2443TIP3    H231525   3.184   4.359  15.670 -1.2303  1.3741 -0.2819
 2444TIP3   OH231526   0.699   0.280  15.592 -0.4505 -0.5088  0.1746
 2444TIP3    H131527   0.635   0.328  15.644  1.3306  0.9633  1.0732
 2444TIP3    H231528   0.671   0.294  15.501  0.0738  2.4360  0.3715
 2445TIP3   OH231529   6.056   4.449  17.334 -0.2492 -0.0506 -0.3420
 2445TIP3    H131530   5.996   4.493  17.393  1.1934  0.5852  0.7228
 2445TIP3    H231531   6.005   4.432  17.255 -2.2126 -0.8480  1.0346
 2446TIP3   OH231532   3.699   5.404  15.762 -0.2922  0.0537  0.1777
 2446TIP3    H131533   3.724   5.496  15.757 -0.7369  0.1306 -0.9499
 2446TIP3    H231534   3.664   5.384  15.675 -0.8421 -0.9946  0.6234
 2447TIP3   OH231535   2.034   7.781  15.638  1.0123  0.1875 -0.2158
 2447TIP3    H131536   2.092   7.834  15.583  0.8414 -0.2430 -0.8163
 2447TIP3    H231537   2.093   7.718  15.680  1.1564  0.5760  0.1730
 2448TIP3   OH231538   8.260   5.494  16.439 -0.1829  0.1033  0.2590
 2448TIP3    H131539   8.296   5.573  16.397 -2.0100 -0.0489 -1.7793
 2448TIP3    H231540   8.312   5.422  16.403  1.7878  0.3115  2.4652
 2449TIP3   OH231541   0.097   1.526  20.896  0.1850 -0.5742 -0.4887
 2449TIP3    H131542   0.014   1.532  20.849  0.5014 -0.0397 -0.9929
 2449TIP3    H231543   0.101   1.435  20.926 -0.8712 -0.4475  0.0837
 2450TIP3   OH231544   7.368   4.392  17.310 -0.2493  0.2968  0.0695
 2450TIP3    H131545   7.408   4.462  17.259 -0.0023  0.6624  0.7441
 2450TIP3    H231546   7.440   4.330  17.326 -0.5860 -0.3791 -0.9612
 2451TIP3   OH231547   3.874   4.672  17.583  0.4403  0.2274 -0.1123
 2451TIP3    H131548   3.897   4.737  17.517 -0.7252 -0.2469 -1.0060
 2451TIP3    H231549   3.820   4.719  17.646 -0.2508  0.1698 -0.6600
 2452TIP3   OH231550   0.499   4.870  15.552  0.0963  0.4529 -0.2339
 2452TIP3    H131551   0.571   4.904  15.604  0.8913 -0.5854 -0.6144
 2452TIP3    H231552   0.530   4.786  15.520  0.1549  1.5413 -3.4067
 2453TIP3   OH231553   8.168   5.181  16.107 -0.0342  0.0156  0.4090
 2453TIP3    H131554   8.205   5.110  16.159  1.0288  0.0765 -0.2456
 2453TIP3    H231555   8.177   5.152  16.016  0.8925  1.1879  0.1031
 2454TIP3   OH231556   3.718   3.802  16.943 -0.7488  0.2808  0.4393
 2454TIP3    H131557   3.763   3.722  16.971  1.0709  0.8784 -0.6159
 2454TIP3    H231558   3.632   3.772  16.913  0.6040 -1.6727 -1.8909
 2455TIP3   OH231559   0.524   6.883  16.869  0.6122  0.5252 -0.0260
 2455TIP3    H131560   0.580   6.919  16.938  0.2529 -1.0435  1.1279
 2455TIP3    H231561   0.490   6.802  16.905  1.8046 -1.3212 -2.6580
 2456TIP3   OH231562   3.160   6.337  17.489  0.0163  0.2822  0.0716
 2456TIP3    H131563   3.151   6.337  17.585 -2.1593  0.7471 -0.0775
 2456TIP3    H231564   3.181   6.247  17.467  0.8760  0.2347  1.0020
 2457TIP3   OH231565   3.996   4.424  16.484  0.0051  0.3690 -0.3267
 2457TIP3    H131566   4.015   4.342  16.529 -1.0509 -0.2186 -0.8989
 2457TIP3    H231567   3.964   4.483  16.552 -1.4257 -0.4564 -0.2286
 2458TIP3   OH231568   5.396   7.120  17.616 -0.2651 -0.0978  0.3801
 2458TIP3    H131569   5.423   7.122  17.708  2.3476 -0.6392 -0.2791
 2458TIP3    H231570   5.425   7.205  17.581 -0.5761 -0.1876 -0.1123
 2459TIP3   OH231571   3.534   3.560  17.793  0.0284 -0.2114 -0.3897
 2459TIP3    H131572   3.485   3.542  17.712  0.6914 -0.6934 -0.6902
 2459TIP3    H231573   3.619   3.520  17.778  0.0604 -0.5503  0.6708
 2460TIP3   OH231574   0.309   5.289  16.600 -0.5567 -0.6841 -0.0243
 2460TIP3    H131575   0.263   5.210  16.628 -0.4537 -0.4118  0.9152
 2460TIP3    H231576   0.397   5.259  16.577 -1.0545 -1.1431 -1.4569
 2461TIP3   OH231577   7.321   5.285  16.002 -0.5603 -0.1334  0.2438
 2461TIP3    H131578   7.414   5.281  15.980 -0.0418  0.3821  2.1182
 2461TIP3    H231579   7.286   5.352  15.944  0.6639  1.0102  0.7614
 2462TIP3   OH231580   0.833   0.885  16.939 -0.3229  0.3737 -0.1608
 2462TIP3    H131581   0.814   0.903  16.847 -1.1585  1.3447  0.1731
 2462TIP3    H231582   0.899   0.950  16.963 -1.4587  1.3700  0.3831
 2463TIP3   OH231583   1.425   1.329  17.249  0.0037  0.0936  0.3620
 2463TIP3    H131584   1.330   1.314  17.252 -0.1561  1.1071  0.7195
 2463TIP3    H231585   1.434   1.423  17.260  0.9881  0.1805 -0.9741
 2464TIP3   OH231586   2.296   4.079  16.612 -0.3496  0.4988  0.2215
 2464TIP3    H131587   2.239   4.063  16.538  1.2312 -2.1147 -0.5835
 2464TIP3    H231588   2.262   4.159  16.653 -2.3731  0.9877 -2.2003
 2465TIP3   OH231589   0.063   3.990  17.346 -0.0356 -0.1688  0.4823
 2465TIP3    H131590   0.001   3.941  17.291 -0.4366  1.3120 -0.4482
 2465TIP3    H231591   0.059   3.946  17.431 -0.2628 -1.8132 -0.3349
 2466TIP3   OH231592   0.474   8.268  15.759 -0.2008 -0.3100  0.5377
 2466TIP3    H131593   0.529   8.201  15.800 -0.3649 -1.1405 -0.5271
 2466TIP3    H231594   0.394   8.222  15.734  0.6237 -0.3918 -2.3807
 2467TIP3   OH231595   2.537   3.625  16.642 -0.3604 -0.4639 -0.2159
 2467TIP3    H131596   2.520   3.631  16.548 -0.4030 -2.2008 -0.3409
 2467TIP3    H231597   2.632   3.641  16.650 -0.3583 -0.2967 -0.5423
 2468TIP3   OH231598   4.834   2.854  17.096 -0.5543 -0.1159  0.6743
 2468TIP3    H131599   4.772   2.919  17.062  1.1617  0.3088 -1.8844
 2468TIP3    H231600   4.808   2.772  17.056  2.9116  0.7687 -4.2966
 2469TIP3   OH231601   2.714   8.310  17.562  0.8846 -0.8181  0.0262
 2469TIP3    H131602   2.714   8.394  17.607  3.5284  0.3337 -1.8809
 2469TIP3    H231603   2.798   8.270  17.585  0.2613 -2.3404 -0.1886
 2470TIP3   OH231604   0.405   4.807  17.220 -0.5885 -0.5433  0.3602
 2470TIP3    H131605   0.378   4.899  17.224 -3.5201 -1.2701  0.0962
 2470TIP3    H231606   0.463   4.802  17.144 -1.3915  0.8824 -0.3939
 2471TIP3   OH231607   5.325   4.538  15.858 -0.4475 -0.2627  0.2571
 2471TIP3    H131608   5.277   4.499  15.785 -0.9962  2.1532 -0.7807
 2471TIP3    H231609   5.258   4.576  15.914  0.0545  2.0157 -0.5366
 2472TIP3   OH231610   4.103   2.645  15.800  0.0584 -0.0938  0.4597
 2472TIP3    H131611   4.144   2.578  15.746 -0.0773  1.3752 -1.5758
 2472TIP3    H231612   4.013   2.615  15.812  0.3250 -0.8483  0.6314
 2473TIP3   OH231613   8.322   6.820  17.779 -0.2617  0.3394  0.0130
 2473TIP3    H131614   8.384   6.805  17.850  0.0019 -1.2279 -0.5285
 2473TIP3    H231615   8.280   6.904  17.801  1.2182  0.8557  0.9677
 2474TIP3   OH231616   2.348   0.553  17.220  0.2447 -0.2242  0.1020
 2474TIP3    H131617   2.422   0.584  17.169 -1.0396  0.0164 -1.7182
 2474TIP3    H231618   2.353   0.458  17.215  0.7672 -0.2228  0.5195
 2475TIP3   OH231619   4.168   4.484  17.166 -0.5688 -0.0277 -0.0854
 2475TIP3    H131620   4.181   4.564  17.217 -1.0553 -0.8606  1.3898
 2475TIP3    H231621   4.139   4.419  17.230 -0.1013 -1.4205 -1.2430
 2476TIP3   OH231622   7.682   8.294  15.754  0.7981 -0.1944 -0.2822
 2476TIP3    H131623   7.732   8.264  15.830  1.1703 -1.5222 -1.0235
 2476TIP3    H231624   7.591   8.298  15.784  1.0352  0.0035  0.4244
 2477TIP3   OH231625   3.811   0.865  15.848 -0.3800  0.1444 -0.0231
 2477TIP3    H131626   3.778   0.935  15.905  0.7895  0.8499 -0.1801
 2477TIP3    H231627   3.803   0.901  15.760 -2.8074 -1.1931 -0.4532
 2478TIP3   OH231628   5.619   3.314  17.006  0.1658  0.2591 -0.1356
 2478TIP3    H131629   5.608   3.409  17.001 -1.8859  0.0069 -1.5264
 2478TIP3    H231630   5.574   3.281  16.928  0.8334 -1.8760  0.3240
 2479TIP3   OH231631   3.421   2.487  15.678 -0.0487 -0.0736  0.6891
 2479TIP3    H131632   3.428   2.528  15.592 -0.6711 -0.1594  0.5997
 2479TIP3    H231633   3.512   2.467  15.701  0.3816  2.0401  1.0755
 2480TIP3   OH231634   0.100   1.630  16.163 -0.1588  0.2739 -0.4362
 2480TIP3    H131635   0.096   1.535  16.157 -3.1786  0.2799 -0.1374
 2480TIP3    H231636   0.116   1.660  16.074 -1.6116 -0.5114 -0.9930
 2481TIP3   OH231637   4.346   6.844  17.312 -0.2377 -0.2932  0.1271
 2481TIP3    H131638   4.295   6.829  17.392 -1.6030  1.1168 -0.4450
 2481TIP3    H231639   4.308   6.784  17.248 -0.1219 -0.3695  0.1295
 2482TIP3   OH231640   0.417   2.335  15.771  0.1313 -0.7014 -0.0362
 2482TIP3    H131641   0.463   2.311  15.691 -0.4895 -2.4065  0.0758
 2482TIP3    H231642   0.487   2.348  15.836  0.5607 -0.9985 -0.4337
 2483TIP3   OH231643   7.046   3.371  17.710 -0.3392  0.0997  0.5074
 2483TIP3    H131644   7.059   3.466  17.715 -1.0698  0.2244  0.1609
 2483TIP3    H231645   6.973   3.360  17.649 -0.2026 -0.6926  0.4791
 2484TIP3   OH231646   5.447   7.702  16.399 -0.0684 -0.3983 -0.2598
 2484TIP3    H131647   5.512   7.704  16.329 -0.7178  1.2831 -0.8650
 2484TIP3    H231648   5.446   7.610  16.428  2.2500 -0.5535 -0.4830
 2485TIP3   OH231649   4.848   5.627  17.721 -0.5789  0.0047 -0.0617
 2485TIP3    H131650   4.826   5.676  17.642 -0.2080  1.9113  0.9616
 2485TIP3    H231651   4.765   5.587  17.748 -0.7574 -0.4688 -1.2643
 2486TIP3   OH231652   1.348   4.291  17.666  0.2404  0.1764  0.6469
 2486TIP3    H131653   1.366   4.279  17.573 -0.4500 -0.8541  0.6346
 2486TIP3    H231654   1.322   4.204  17.697  2.2159  0.0688  2.2211
 2487TIP3   OH231655   1.139   6.480  16.089 -0.0670 -0.0555 -0.1086
 2487TIP3    H131656   1.072   6.513  16.148  1.5055 -0.0517  1.7733
 2487TIP3    H231657   1.187   6.558  16.061 -0.1830 -0.1643 -0.6327
 2488TIP3   OH231658   7.913   6.098  15.808  0.2791 -0.5220  0.0272
 2488TIP3    H131659   7.826   6.060  15.824  0.4039 -0.6601  0.3905
 2488TIP3    H231660   7.901   6.192  15.825 -0.1118 -0.3325 -1.2019
 2489TIP3   OH231661   8.305   2.395  17.359  0.1236 -0.1320  0.2590
 2489TIP3    H131662   8.273   2.485  17.356 -1.2888 -0.6467 -1.2468
 2489TIP3    H231663   8.393   2.403  17.397 -0.2110  1.7902  0.7540
 2490TIP3   OH231664   7.719   4.051  16.619 -0.3652  0.2877 -0.4563
 2490TIP3    H131665   7.799   4.012  16.584 -0.1873 -0.3737  0.6571
 2490TIP3    H231666   7.702   4.125  16.561  1.9547  1.4379  0.2026
 2491TIP3   OH231667   7.362   3.820  18.037 -0.2966 -0.2656 -0.8013
 2491TIP3    H131668   7.368   3.785  18.125 -0.5212  1.1372 -0.2082
 2491TIP3    H231669   7.443   3.792  17.994  0.1578 -0.3117  0.0815
 2492TIP3   OH231670   0.151   6.806  16.489 -0.6957 -0.3292  0.0158
 2492TIP3    H131671   0.158   6.832  16.397 -0.6862 -0.6037 -0.0605
 2492TIP3    H231672   0.154   6.889  16.537  0.6553 -0.2514 -0.1472
 2493TIP3   OH231673   0.823   5.674  17.195  0.4036  0.0000  0.3399
 2493TIP3    H131674   0.775   5.747  17.233  0.4816  0.8783 -1.1435
 2493TIP3    H231675   0.790   5.668  17.105  2.1443 -0.1820 -0.3296
 2494TIP3   OH231676   4.852   4.644  15.891 -0.1956  0.2591  0.8666
 2494TIP3    H131677   4.825   4.553  15.876  1.2042 -0.0543  0.1122
 2494TIP3    H231678   4.782   4.696  15.851 -0.5038 -0.4906  0.3953
 2495TIP3   OH231679   6.279   6.937  17.353 -0.1921  0.2868 -0.5351
 2495TIP3    H131680   6.330   6.856  17.358  0.0024  0.4631  1.0579
 2495TIP3    H231681   6.343   7.003  17.326  0.8634  0.7302  2.5311
 2496TIP3   OH231682   7.331   8.443  17.881 -0.1017  0.4407  0.0043
 2496TIP3    H131683   7.335   8.391  17.800  0.6005 -0.4758  0.6074
 2496TIP3    H231684   7.419   8.481  17.888  0.1266 -0.2220  0.8034
 2497TIP3   OH231685   7.883   8.209  17.920 -0.2153 -0.0859 -0.4594
 2497TIP3    H131686   7.854   8.292  17.958 -1.6013 -0.4647 -0.6018
 2497TIP3    H231687   7.970   8.227  17.885  0.3778  0.7453  1.2987
 2498TIP3   OH231688   4.245   5.724  15.752  0.1551  0.2471  0.3240
 2498TIP3    H131689   4.222   5.750  15.662 -1.9172  1.8045  1.2289
 2498TIP3    H231690   4.339   5.707  15.748  0.1390  0.2956 -2.1333
 2499TIP3   OH231691   0.060   2.318  17.183  0.5025  0.5260 -0.4868
 2499TIP3    H131692  -0.020   2.322  17.236  1.0632 -1.0355  0.5498
 2499TIP3    H231693   0.059   2.230  17.146  0.8397  1.1277 -1.9681
 2500TIP3   OH231694   8.354   5.846  16.473  0.0148 -0.0799 -0.5057
 2500TIP3    H131695   8.377   5.772  16.417 -0.9184 -1.4346  0.8097
 2500TIP3    H231696   8.286   5.893  16.424 -0.3230 -0.8656 -0.7986
 2501TIP3   OH231697   8.232   6.110  17.316 -0.4136 -0.0424 -0.1327
 2501TIP3    H131698   8.190   6.141  17.236 -0.7900  0.2964  0.1899
 2501TIP3    H231699   8.158   6.088  17.373 -0.1460 -0.2559  0.1301
 2502TIP3   OH231700   0.777   2.951  15.691  0.3921  0.4434  0.1069
 2502TIP3    H131701   0.778   2.997  15.608 -3.1872  0.4027 -0.0881
 2502TIP3    H231702   0.823   3.009  15.751  0.2282  1.9787 -1.1979
 2503TIP3   OH231703   7.664   5.942  17.745 -0.2855 -0.2375  0.3796
 2503TIP3    H131704   7.648   5.994  17.823 -0.3522 -2.1807  1.7407
 2503TIP3    H231705   7.723   5.996  17.691 -1.2236  1.6504  1.1721
 2504TIP3   OH231706   0.699   7.135  16.820  0.3030  0.0727 -0.1932
 2504TIP3    H131707   0.697   7.116  16.914 -1.6338 -1.4526 -0.4767
 2504TIP3    H231708   0.731   7.054  16.780 -0.6811  0.0369 -0.9489
 2505TIP3   OH231709   3.243   4.320  17.560 -0.2506 -0.4742  0.1702
 2505TIP3    H131710   3.172   4.327  17.623  0.1357 -0.2452  0.5827
 2505TIP3    H231711   3.267   4.410  17.541  0.6987 -0.5601  0.9108
 2506TIP3   OH231712   6.763   1.030  16.025 -0.1856  0.3556 -0.2829
 2506TIP3    H131713   6.800   1.116  16.004  2.7505 -0.9338 -0.8710
 2506TIP3    H231714   6.670   1.039  16.005 -0.1714  3.6252  0.5284
 2507TIP3   OH231715   3.240   1.261  15.437  0.3193  0.0517  0.3537
 2507TIP3    H131716   3.296   1.197  15.481  0.4218 -0.9495 -1.1600
 2507TIP3    H231717   3.287   1.280  15.355 -1.3802 -0.5740 -0.8066
 2508TIP3   OH231718   4.222   1.367  16.937 -0.3985 -0.3558  0.3262
 2508TIP3    H131719   4.260   1.290  16.978  1.4083  0.2641 -0.1181
 2508TIP3    H231720   4.253   1.440  16.989 -1.0681  0.1805 -0.0070
 2509TIP3   OH231721   4.499   2.915  16.712  0.2215 -0.2626 -0.4982
 2509TIP3    H131722   4.411   2.905  16.675 -0.0602 -1.0331  0.3388
 2509TIP3    H231723   4.545   2.972  16.650 -0.4008 -1.0560 -1.7330
 2510TIP3   OH231724   8.027   4.188  17.539  0.6673 -0.3918 -0.3243
 2510TIP3    H131725   8.063   4.221  17.456 -2.2374  1.0478 -1.1553
 2510TIP3    H231726   7.973   4.114  17.514  0.0040 -0.1353  0.3172
 2511TIP3   OH231727   7.051   3.031  15.629 -0.3708 -0.4569 -0.3498
 2511TIP3    H131728   7.077   2.997  15.543  2.8995 -0.3274  0.4587
 2511TIP3    H231729   7.040   2.952  15.683 -1.6591 -0.4992 -0.6285
 2512TIP3   OH231730   3.315   4.619  17.180  0.0861 -0.2140  0.4318
 2512TIP3    H131731   3.278   4.674  17.111  1.4485 -0.7154 -0.7513
 2512TIP3    H231732   3.285   4.660  17.261  0.8371  2.1662 -0.3947
 2513TIP3   OH231733   3.597   7.338  16.870  0.2418 -0.4905 -0.2959
 2513TIP3    H131734   3.521   7.361  16.817  1.5778  2.0136 -1.2538
 2513TIP3    H231735   3.659   7.409  16.856  2.1382 -1.6190  1.7524
 2514TIP3   OH231736   5.889   7.474  17.714 -0.2860 -0.2502  0.0629
 2514TIP3    H131737   5.960   7.456  17.776 -0.7671 -0.5849  0.5195
 2514TIP3    H231738   5.809   7.457  17.763 -0.6807 -0.2704 -0.5768
 2515TIP3   OH231739   6.885   8.402  17.679  0.5511  0.1883  0.0800
 2515TIP3    H131740   6.882   8.448  17.595  2.5536  1.1962  0.4733
 2515TIP3    H231741   6.960   8.442  17.724  2.3084 -3.3035  0.5781
 2516TIP3   OH231742   0.036   2.053  17.098 -0.4416 -0.3123  0.0106
 2516TIP3    H131743   0.041   2.020  17.009 -0.5419  1.5295 -0.7139
 2516TIP3    H231744   0.038   1.974  17.153  1.1827 -1.4140 -1.5244
 2517TIP3   OH231745   5.337   5.631  16.843  0.1041  0.5314 -0.1797
 2517TIP3    H131746   5.365   5.658  16.755 -0.5750  0.2452 -0.4914
 2517TIP3    H231747   5.385   5.550  16.859  2.1644  1.8497  0.7648
 2518TIP3   OH231748   7.183   7.934  17.166  0.2168 -0.1173  0.3371
 2518TIP3    H131749   7.161   7.961  17.077  0.1452  1.2442  0.7374
 2518TIP3    H231750   7.189   7.839  17.162  2.8655  0.0267 -1.7356
 2519TIP3   OH231751   7.071   0.465  15.862  0.6923  0.4418  0.3773
 2519TIP3    H131752   7.084   0.465  15.767 -1.5481 -1.7819 -0.0317
 2519TIP3    H231753   7.101   0.379  15.891 -0.0370  0.5301  1.4554
 2520TIP3   OH231754   6.566   0.915  17.846  0.2958 -0.0622  0.2553
 2520TIP3    H131755   6.497   0.954  17.900  0.2276 -1.8905  1.5966
 2520TIP3    H231756   6.535   0.826  17.830  1.5867 -0.3802 -0.5520
 2521TIP3   OH231757   3.049   4.678  15.641 -0.1684  0.1407 -0.0775
 2521TIP3    H131758   2.991   4.708  15.712  1.9853 -1.3534  2.4975
 2521TIP3    H231759   3.119   4.743  15.639 -0.2134  0.1752 -0.9125
 2522TIP3   OH231760   2.742   6.275  16.723 -0.5013  0.2057 -0.1530
 2522TIP3    H131761   2.735   6.318  16.808 -0.8613  0.8822 -0.5222
 2522TIP3    H231762   2.825   6.307  16.687 -0.9083  0.8209 -0.5516
 2523TIP3   OH231763   5.956   0.144  16.943 -0.3394 -0.8162 -0.5633
 2523TIP3    H131764   5.953   0.092  16.863  0.3826 -0.5556 -0.7642
 2523TIP3    H231765   6.048   0.144  16.969 -0.5303 -0.6898  0.1331
 2524TIP3   OH231766   4.075   5.682  17.609  0.1446 -0.2327 -0.1534
 2524TIP3    H131767   4.002   5.736  17.639  0.8198  1.1265 -0.8791
 2524TIP3    H231768   4.044   5.642  17.528  0.6137  1.3728 -1.1693
 2525TIP3   OH231769   0.328   1.764  16.252 -0.2669 -0.0874 -0.0406
 2525TIP3    H131770   0.366   1.724  16.174  0.3484 -0.4615  0.4424
 2525TIP3    H231771   0.295   1.689  16.303  1.3298 -0.0520  1.1064
 2526TIP3   OH231772   0.870   7.701  16.839 -0.0120 -0.0993  0.1792
 2526TIP3    H131773   0.933   7.761  16.880 -1.5939  1.9009 -0.1404
 2526TIP3    H231774   0.812   7.675  16.910 -0.3523  0.1410 -0.0065
 2527TIP3   OH231775   1.015   4.200  16.595 -0.0069  0.2903 -0.1983
 2527TIP3    H131776   1.096   4.226  16.639  0.9138 -1.9135 -0.4399
 2527TIP3    H231777   1.040   4.126  16.539 -2.0960 -0.1767 -0.6338
 2528TIP3   OH231778   2.675   0.121  17.676 -0.3612 -0.1115 -0.0651
 2528TIP3    H131779   2.734   0.176  17.624 -0.4094  0.0507  0.0489
 2528TIP3    H231780   2.634   0.182  17.738 -1.8367  0.0727 -1.1804
 2529TIP3   OH231781   0.693   6.869  15.960  0.2341 -0.2362 -0.4929
 2529TIP3    H131782   0.693   6.843  15.867  2.5337  0.0301 -0.6319
 2529TIP3    H231783   0.645   6.951  15.962 -0.0407 -0.3606 -1.4114
 2530TIP3   OH231784   0.658   7.822  17.035 -0.4061 -0.2887  0.7293
 2530TIP3    H131785   0.647   7.803  16.942  2.1162  0.9972  0.0890
 2530TIP3    H231786   0.673   7.737  17.076  3.4242 -0.6115 -0.9023
 2531TIP3   OH231787   4.746   6.308  16.550  0.2927 -0.2636  0.5567
 2531TIP3    H131788   4.770   6.360  16.474 -0.5489  0.0635  0.5031
 2531TIP3    H231789   4.728   6.221  16.516 -1.4847  0.2317  0.1429
 2532TIP3   OH231790   7.156   0.134  17.707 -0.0614  0.3794 -0.4262
 2532TIP3    H131791   7.146   0.217  17.755  1.3922  1.3060 -1.6262
 2532TIP3    H231792   7.197   0.074  17.770  0.8842  1.2588 -0.1685
 2533TIP3   OH231793   2.114   3.167  17.398  0.1664 -0.3243  0.5665
 2533TIP3    H131794   2.020   3.184  17.389  0.1264  0.0863  1.6420
 2533TIP3    H231795   2.154   3.254  17.397  0.8319 -0.5519 -2.4485
 2534TIP3   OH231796   5.880   4.623  17.503 -0.3528 -0.5477 -0.1622
 2534TIP3    H131797   5.833   4.695  17.546  1.2575  0.9169 -0.7566
 2534TIP3    H231798   5.819   4.592  17.436 -1.0014  0.4123 -0.0377
 2535TIP3   OH231799   2.431   1.179  15.838  0.4324 -0.4421  0.1148
 2535TIP3    H131800   2.480   1.183  15.920  1.9914 -1.9009 -0.6897
 2535TIP3    H231801   2.490   1.135  15.777 -1.1655 -0.5000 -1.4582
 2536TIP3   OH231802   4.368   6.507  17.976  0.4710  0.1374  0.6636
 2536TIP3    H131803   4.368   6.436  17.911  3.0207 -0.5578  1.3298
 2536TIP3    H231804   4.331   6.582  17.929  2.2277 -0.3361 -1.6604
 2537TIP3   OH231805   4.107   5.365  16.857  0.0429 -0.4100 -0.0901
 2537TIP3    H131806   4.057   5.446  16.870 -1.0490 -1.0725 -0.0718
 2537TIP3    H231807   4.051   5.311  16.802 -0.2747 -2.0686  1.7554
 2538TIP3   OH231808   7.103   7.074  16.947  1.2428 -0.5822  0.3147
 2538TIP3    H131809   7.106   6.985  16.913 -0.1873 -1.3747  2.1201
 2538TIP3    H231810   7.169   7.076  17.015  1.4167 -0.1783  0.1385
 2539TIP3   OH231811   6.672   5.286  17.505 -0.2782 -0.3041  0.6424
 2539TIP3    H131812   6.616   5.218  17.545  1.0299 -2.2646 -0.6875
 2539TIP3    H231813   6.611   5.358  17.485 -1.6688 -0.8981  2.4097
 2540TIP3   OH231814   2.603   7.305  15.950  0.2561  0.3420  0.2925
 2540TIP3    H131815   2.536   7.246  15.985 -0.9810  2.3977  1.5321
 2540TIP3    H231816   2.559   7.353  15.880  0.7494  0.9651  0.3960
 2541TIP3   OH231817   5.652   3.974  17.576  0.1028  0.0977  0.2304
 2541TIP3    H131818   5.662   3.879  17.585 -1.2202 -0.0888 -0.0968
 2541TIP3    H231819   5.735   4.009  17.609 -0.0347 -1.0827  2.0285
 2542TIP3   OH231820   8.365   2.759  17.238 -0.3976  0.4484 -0.2193
 2542TIP3    H131821   8.434   2.757  17.305  1.1994 -1.0123 -1.8068
 2542TIP3    H231822   8.284   2.739  17.286  0.6775 -0.5026  1.2849
 2543TIP3   OH231823   7.815   3.091  17.150  0.1832  0.3218 -0.4681
 2543TIP3    H131824   7.818   3.090  17.054 -1.3188  1.4848 -0.5708
 2543TIP3    H231825   7.742   3.150  17.171  1.1577  0.9312  1.4050
 2544TIP3   OH231826   1.510   7.108  17.013 -0.1094  0.2586 -0.0932
 2544TIP3    H131827   1.541   7.132  17.100 -0.3693 -1.1430  0.4154
 2544TIP3    H231828   1.415   7.104  17.021 -0.1093 -0.3442 -0.2956
 2545TIP3   OH231829   5.963   2.544  16.201 -0.4501  0.3474  0.4440
 2545TIP3    H131830   5.879   2.550  16.157 -0.5559  2.8367  0.8108
 2545TIP3    H231831   5.945   2.501  16.284 -0.8945 -1.1746 -0.4074
 2546TIP3   OH231832   3.090   2.478  16.142 -0.0818  0.5884 -0.2627
 2546TIP3    H131833   3.121   2.432  16.220 -0.8542  0.2770 -0.1242
 2546TIP3    H231834   3.023   2.537  16.174  0.0147  0.8929 -0.6152
 2547TIP3   OH231835   8.034   7.212  17.534  0.1295  0.2893  0.8742
 2547TIP3    H131836   8.122   7.185  17.561  0.0881 -0.0183  0.7031
 2547TIP3    H231837   8.045   7.304  17.507  0.1093  0.7232  2.2255
 2548TIP3   OH231838   4.796   4.752  16.156  0.3915 -0.7763  0.0607
 2548TIP3    H131839   4.846   4.713  16.084 -0.7590 -1.3438 -0.4620
 2548TIP3    H231840   4.717   4.786  16.114  0.4024  0.2550  0.8364
 2549TIP3   OH231841   5.185   1.093  17.805 -0.4864  0.1277  0.3164
 2549TIP3    H131842   5.137   1.173  17.784 -2.9566 -1.3732 -0.1444
 2549TIP3    H231843   5.191   1.046  17.721  1.3222 -0.0254  0.4883
 2550TIP3   OH231844   0.292   2.013  16.361  1.0585  0.2866  0.1015
 2550TIP3    H131845   0.324   1.925  16.342 -0.7462 -0.2357 -0.8051
 2550TIP3    H231846   0.289   2.057  16.276 -1.4979 -0.0648 -0.0769
 2551TIP3   OH231847   8.079   2.023  16.884  0.5933  0.4540 -1.0105
 2551TIP3    H131848   8.149   2.060  16.938 -0.3460  1.2056 -0.2916
 2551TIP3    H231849   8.004   2.016  16.942 -0.0261 -0.0970 -1.8461
 2552TIP3   OH231850   4.066   2.954  17.838 -0.0220  0.3421  0.1354
 2552TIP3    H131851   4.132   2.885  17.826 -1.9913 -1.6723  0.3471
 2552TIP3    H231852   4.016   2.953  17.756  0.2307  1.9249 -0.0647
 2553TIP3   OH231853   4.977   4.568  16.869 -0.5731 -0.3371 -0.1024
 2553TIP3    H131854   5.031   4.559  16.948  1.3513 -1.0489 -1.4305
 2553TIP3    H231855   4.924   4.489  16.867 -0.4670 -0.4229  0.3472
 2554TIP3   OH231856   2.787   0.318  17.258 -0.2754  0.1800 -0.0104
 2554TIP3    H131857   2.736   0.334  17.337  0.8122  0.9012  0.5655
 2554TIP3    H231858   2.740   0.247  17.213 -1.2167  0.1492  0.9815
 2555TIP3   OH231859   7.961   6.885  17.049 -0.0711  0.0500  0.7316
 2555TIP3    H131860   7.931   6.800  17.080  0.8567  0.0111  1.5762
 2555TIP3    H231861   7.979   6.934  17.129 -0.8874  1.1633  0.2663
 2556TIP3   OH231862   6.523   0.602  16.903  0.7390  0.7237 -0.5129
 2556TIP3    H131863   6.437   0.569  16.930  1.0782 -0.0305 -0.3050
 2556TIP3    H231864   6.577   0.523  16.897  1.9424  1.3403  1.2514
 2557TIP3   OH231865   8.186   3.521  17.625 -0.0043 -0.4995 -0.2136
 2557TIP3    H131866   8.230   3.516  17.540  1.6520  1.5376  0.4321
 2557TIP3    H231867   8.100   3.559  17.606  1.0742  1.8423 -0.8573
 2558TIP3   OH231868   0.049   5.412  16.666 -0.5454  0.6847  0.0560
 2558TIP3    H131869  -0.020   5.441  16.726 -0.0211 -0.3796  1.2259
 2558TIP3    H231870   0.021   5.324  16.639 -0.0806  0.5904 -0.1248
 2559TIP3   OH231871   1.222   2.883  15.329  0.2648 -0.0492 -0.0905
 2559TIP3    H131872   1.241   2.930  15.247  0.3668 -1.2191 -0.7616
 2559TIP3    H231873   1.127   2.867  15.326  0.5186 -1.5870 -0.8341
 2560TIP3   OH231874   3.048   0.055  16.081  0.4009 -0.0895 -0.4326
 2560TIP3    H131875   3.026   0.027  15.992  0.9093 -0.9077 -0.3118
 2560TIP3    H231876   3.115  -0.007  16.110  0.1281  0.0658  0.5832
 2561TIP3   OH231877   2.513   3.597  15.922  0.1358  0.3199  0.8574
 2561TIP3    H131878   2.596   3.612  15.968  1.7530 -2.2651 -0.9718
 2561TIP3    H231879   2.533   3.614  15.830 -0.5787 -2.7512  0.0330
 2562TIP3   OH231880   7.017   0.935  15.843  0.4573  0.1894 -0.0551
 2562TIP3    H131881   6.946   0.875  15.820  1.1652  0.0288 -1.9493
 2562TIP3    H231882   7.024   0.995  15.769 -0.5679  3.0499  1.9804
 2563TIP3   OH231883   2.362   7.080  16.705  0.4703  0.4073 -0.2345
 2563TIP3    H131884   2.435   7.117  16.656 -0.3237  0.4065 -1.4622
 2563TIP3    H231885   2.284   7.123  16.669 -0.3608 -1.4426 -0.7709
 2564TIP3   OH231886   6.066   7.755  17.930  0.3311  0.1371  0.0992
 2564TIP3    H131887   6.093   7.836  17.888  0.4665  0.2635  0.4334
 2564TIP3    H231888   6.015   7.782  18.006 -0.7365 -0.0932 -0.5073
 2565TIP3   OH231889   8.159   4.662  16.512 -0.3164 -0.9009 -0.2599
 2565TIP3    H131890   8.220   4.589  16.526 -0.4113 -1.1442 -1.0678
 2565TIP3    H231891   8.174   4.721  16.586  1.4210 -0.5985 -0.8111
 2566TIP3   OH231892   3.763   3.412  17.774 -0.0232  0.0952  0.5050
 2566TIP3    H131893   3.752   3.335  17.830  1.1934  0.3611  1.1257
 2566TIP3    H231894   3.853   3.407  17.742 -0.3882  0.4717 -0.6652
 2567TIP3   OH231895   2.423   0.577  17.473  0.0188 -0.3942 -0.5034
 2567TIP3    H131896   2.389   0.577  17.383  1.6327 -1.6899 -1.1573
 2567TIP3    H231897   2.383   0.500  17.514 -1.0918  0.4600  0.0886
 2568TIP3   OH231898   1.271   6.551  16.431 -0.2025 -0.4100  0.1206
 2568TIP3    H131899   1.254   6.632  16.384  0.4220 -0.1070  0.4159
 2568TIP3    H231900   1.251   6.571  16.522 -1.4242 -0.9976  0.0067
 2569TIP3   OH231901   1.394   2.836  17.978 -0.0612  0.3460 -0.1828
 2569TIP3    H131902   1.400   2.894  18.054 -1.2126  1.5080 -0.9361
 2569TIP3    H231903   1.475   2.850  17.930  0.2939  0.2416  0.3781
 2570TIP3   OH231904   6.904   1.325  16.616 -0.2191 -0.1257 -0.0852
 2570TIP3    H131905   6.984   1.299  16.570 -0.5331  0.5009 -1.0098
 2570TIP3    H231906   6.845   1.250  16.606  0.0348 -0.3501  0.0816
 2571TIP3   OH231907   3.694   7.704  17.157 -0.3804 -0.1020 -0.4711
 2571TIP3    H131908   3.712   7.792  17.190 -0.5662 -0.8745  1.8386
 2571TIP3    H231909   3.763   7.690  17.091  2.3465  0.2598  2.0612
 2572TIP3   OH231910   0.743   5.131  16.864  0.0504 -0.4243 -0.3647
 2572TIP3    H131911   0.734   5.100  16.775  0.3768 -1.3465 -0.0871
 2572TIP3    H231912   0.836   5.155  16.871 -0.1815  0.5778 -0.5545
 2573TIP3   OH231913   5.900   5.021  16.850  0.0524  0.1678 -0.5271
 2573TIP3    H131914   5.962   5.042  16.781  1.4072  2.4687  1.2392
 2573TIP3    H231915   5.816   5.055  16.819  0.3505  0.0255 -1.5298
 2574TIP3   OH231916   7.885   5.346  17.110  0.1302 -0.0784 -0.0234
 2574TIP3    H131917   7.942   5.408  17.155  0.3384 -0.4424  0.2185
 2574TIP3    H231918   7.909   5.261  17.146  0.0549 -0.3352 -0.5647
 2575TIP3   OH231919   2.138   7.303  16.954  0.0250 -0.2660  0.3696
 2575TIP3    H131920   2.123   7.287  16.861  0.2839 -0.7252  0.4075
 2575TIP3    H231921   2.103   7.226  16.998 -0.9354  0.3538  0.7233
 2576TIP3   OH231922   3.712   0.934  17.331  0.3633 -0.2225  0.0156
 2576TIP3    H131923   3.788   0.897  17.286 -0.2620  0.6275 -1.8699
 2576TIP3    H231924   3.641   0.873  17.313  0.4154 -0.6401  1.1572
 2577TIP3   OH231925   6.821   3.184  17.397 -0.8061  0.3913  0.5786
 2577TIP3    H131926   6.834   3.248  17.466 -1.4735  1.9516 -0.6776
 2577TIP3    H231927   6.738   3.141  17.419  0.3402 -1.1229  2.1881
 2578TIP3   OH231928   3.342   2.887  16.725 -0.3599 -0.3927 -0.4420
 2578TIP3    H131929   3.366   2.842  16.806 -0.3300 -0.0216 -0.2425
 2578TIP3    H231930   3.266   2.839  16.693 -0.0476 -0.8712 -0.4784
 2579TIP3   OH231931   4.475   2.451  17.440 -0.4734  0.2029 -0.0920
 2579TIP3    H131932   4.446   2.430  17.529 -1.7743  1.4268 -0.1904
 2579TIP3    H231933   4.500   2.543  17.444 -0.8933  0.3692 -1.0635
 2580TIP3   OH231934   2.567   5.850  15.933  0.6174  0.0873  0.1224
 2580TIP3    H131935   2.482   5.817  15.904  0.8357  0.9086 -1.5574
 2580TIP3    H231936   2.547   5.935  15.973  0.6458  0.3220 -0.3542
 2581TIP3   OH231937   8.218   6.635  16.039  0.1603 -0.1479  1.2278
 2581TIP3    H131938   8.166   6.716  16.039  0.7939  0.3496  3.7474
 2581TIP3    H231939   8.308   6.664  16.054  0.7818 -1.2061 -0.1930
 2582TIP3   OH231940   3.710   8.013  16.234  0.1068  0.2331  0.3809
 2582TIP3    H131941   3.648   7.993  16.164 -0.7499  0.7160  0.9806
 2582TIP3    H231942   3.763   7.934  16.244 -0.2055 -0.0729 -0.3549
 2583TIP3   OH231943   4.551   2.724  17.444 -0.1359  0.6391  0.6786
 2583TIP3    H131944   4.628   2.780  17.435  1.2168 -1.1182  0.5955
 2583TIP3    H231945   4.505   2.734  17.361  0.5281  1.0307  0.3458
 2584TIP3   OH231946   2.845   0.516  17.094  0.5711  0.1426  0.0469
 2584TIP3    H131947   2.869   0.489  17.005  2.3347 -1.4941  0.9300
 2584TIP3    H231948   2.827   0.434  17.140  1.6823  0.7624  1.6959
 2585TIP3   OH231949   2.085   1.439  16.889  0.5332  0.2238 -0.0870
 2585TIP3    H131950   2.022   1.509  16.877  0.1701 -0.4204 -2.5851
 2585TIP3    H231951   2.033   1.365  16.920 -0.0060 -0.2769 -2.0463
 2586TIP3   OH231952   5.879   0.567  16.984  0.4492 -0.0180  0.5875
 2586TIP3    H131953   5.936   0.494  16.959  1.3518  0.6381  0.6525
 2586TIP3    H231954   5.903   0.637  16.923 -1.0900 -0.0687 -0.1046
 2587TIP3   OH231955   6.306   0.045  17.376 -0.2271 -0.1528  0.0524
 2587TIP3    H131956   6.262   0.059  17.460 -0.9340 -0.9691 -0.1704
 2587TIP3    H231957   6.392   0.010  17.399 -1.1395 -2.2809  0.4230
 2588TIP3   OH231958   1.651   5.083  17.550  0.0213  0.3183  0.8008
 2588TIP3    H131959   1.610   5.149  17.606  0.0356  0.6144  0.4666
 2588TIP3    H231960   1.738   5.118  17.530 -0.4905  0.8902 -0.5456
 2589TIP3   OH231961   0.439   1.164  16.248 -0.4935 -0.0107  0.0719
 2589TIP3    H131962   0.412   1.080  16.284 -2.0913 -0.6785 -2.3929
 2589TIP3    H231963   0.534   1.155  16.236 -0.4157 -0.8943  1.1851
 2590TIP3   OH231964   3.468   2.223  17.178  0.3043 -0.6803 -0.0738
 2590TIP3    H131965   3.481   2.129  17.190  2.2592 -0.3296  0.8887
 2590TIP3    H231966   3.484   2.237  17.085 -0.1297 -1.2924 -0.2545
 2591TIP3   OH231967   0.368   6.846  18.136 -0.1751 -0.7433  0.1000
 2591TIP3    H131968   0.344   6.777  18.198 -1.0184 -0.4015  0.1649
 2591TIP3    H231969   0.411   6.912  18.190 -0.6607 -0.5715  0.2847
 2592TIP3   OH231970   5.023   4.409  16.606  0.2011  0.0508  0.0655
 2592TIP3    H131971   4.933   4.440  16.619 -0.0627  0.3904 -2.1507
 2592TIP3    H231972   5.078   4.483  16.632 -0.0859 -0.4260  2.1754
 2593TIP3   OH231973   7.212   2.181  15.555 -0.4319 -0.7304  0.1660
 2593TIP3    H131974   7.161   2.236  15.495  1.4467 -1.4870 -2.2750
 2593TIP3    H231975   7.300   2.180  15.518  0.4480 -2.5631  2.1026
 2594TIP3   OH231976   4.563   8.036  17.322  0.4196 -0.0895  0.0232
 2594TIP3    H131977   4.601   8.092  17.255 -0.3520  0.6607  0.1916
 2594TIP3    H231978   4.469   8.043  17.309  0.1357  1.5779  2.3152
 2595TIP3   OH231979   6.276   0.883  17.618  0.5086 -0.2813  0.0566
 2595TIP3    H131980   6.220   0.852  17.546  0.3390  0.4042 -0.1167
 2595TIP3    H231981   6.357   0.911  17.574  0.1913  0.6739  0.0448
 2596TIP3   OH231982   7.274   1.702  15.865  0.5637  0.3012  0.2557
 2596TIP3    H131983   7.181   1.722  15.860  0.5145  0.0063 -0.0518
 2596TIP3    H231984   7.317   1.782  15.835  0.3669 -0.0389 -0.9929
 2597TIP3   OH231985   5.990   0.147  17.346 -0.2397  0.2183  0.0508
 2597TIP3    H131986   5.974   0.057  17.318  0.0848  0.2109 -0.1191
 2597TIP3    H231987   6.079   0.166  17.316 -0.1936  0.4929  0.3516
 2598TIP3   OH231988   4.186   0.382  17.053  0.2944  0.2198  0.0141
 2598TIP3    H131989   4.156   0.427  16.975 -0.1608 -0.3615 -0.1517
 2598TIP3    H231990   4.132   0.417  17.124  0.9312  0.9870  0.1289
 2599TIP3   OH231991   4.819   8.435  17.183  0.2839 -0.2388  0.2876
 2599TIP3    H131992   4.857   8.363  17.132  0.6539  0.7795 -0.9156
 2599TIP3    H231993   4.777   8.491  17.119  0.4453  0.8971  1.1399
 2600TIP3   OH231994   5.687   5.152  16.752  0.1991  0.1561 -0.0240
 2600TIP3    H131995   5.605   5.157  16.802  0.1852 -0.1863 -0.0145
 2600TIP3    H231996   5.696   5.240  16.714 -0.8224 -0.1594 -1.0582
 2601TIP3   OH231997   1.746   0.483  17.147 -0.1941 -0.4400  0.5088
 2601TIP3    H131998   1.732   0.398  17.105 -2.5654 -0.2140  0.7098
 2601TIP3    H231999   1.756   0.545  17.074 -0.4717 -0.6137  0.3209
 2602TIP3   OH232000   1.224   1.838  16.529  0.3973 -0.2362 -0.1531
 2602TIP3    H132001   1.237   1.933  16.527 -0.2822 -0.1331  0.1735
 2602TIP3    H232002   1.313   1.802  16.529  0.7058  0.4380  1.1588
 2603TIP3   OH232003   2.263   7.342  16.009  0.0682  0.5415 -0.0836
 2603TIP3    H132004   2.305   7.272  16.059  0.7942  0.1441 -1.2193
 2603TIP3    H232005   2.169   7.325  16.016  0.1940  0.0763  0.5314
 2604TIP3   OH232006   1.242   7.741  16.667 -0.4563 -0.0896  0.1564
 2604TIP3    H132007   1.162   7.688  16.663 -0.5315  0.0645 -0.3958
 2604TIP3    H232008   1.312   7.680  16.644 -0.4028 -0.2407  0.7043
 2605TIP3   OH232009   1.721   0.500  15.698 -0.4190 -0.3003 -0.0451
 2605TIP3    H132010   1.779   0.437  15.655 -2.3086 -2.8488  0.8752
 2605TIP3    H232011   1.761   0.517  15.783 -0.3412 -1.0420  0.0744
 2606TIP3   OH232012   3.586   1.075  16.289 -0.4995 -0.1517  0.3243
 2606TIP3    H132013   3.554   1.033  16.369 -0.1429 -0.5090  0.2792
 2606TIP3    H232014   3.506   1.099  16.241 -0.7045 -1.1425  0.1596
 2607TIP3   OH232015   2.772   3.747  17.497  0.0551  0.3380 -0.2337
 2607TIP3    H132016   2.826   3.682  17.540 -0.1586  0.0411 -0.4072
 2607TIP3    H232017   2.719   3.697  17.435  0.9740  0.8559 -1.4710
 2608TIP3   OH232018   3.217   6.787  16.712  0.7401 -0.1858 -0.1987
 2608TIP3    H132019   3.296   6.840  16.723  0.4466  0.1519  0.2928
 2608TIP3    H232020   3.147   6.838  16.752  0.8694 -2.0486  2.6452
 2609TIP3   OH232021   6.574   0.105  16.585  0.5074 -0.3341 -0.2404
 2609TIP3    H132022   6.644   0.076  16.527  1.6037 -0.6907  1.1881
 2609TIP3    H232023   6.576   0.043  16.658 -1.3296 -0.3589 -0.1670
 2610TIP3   OH232024   1.020   8.381  16.441  0.0474 -0.0787 -0.2450
 2610TIP3    H132025   1.042   8.297  16.399  1.2937  0.7717 -1.3927
 2610TIP3    H232026   0.924   8.387  16.434  0.0461 -0.8967 -1.1818
 2611TIP3   OH232027   0.341   1.238  17.662  0.1399 -0.0909  0.2891
 2611TIP3    H132028   0.414   1.178  17.673  0.6065  0.2992 -0.6568
 2611TIP3    H232029   0.267   1.182  17.638 -0.5632 -0.8150  3.5663
 2612TIP3   OH232030   5.664   5.815  15.940 -0.1069 -0.4427  0.6071
 2612TIP3    H132031   5.721   5.781  16.009  1.9964 -2.9000 -2.0871
 2612TIP3    H232032   5.594   5.750  15.932 -1.2030  0.6020  1.3308
 2613TIP3   OH232033   6.898   6.907  15.602 -0.1290 -0.2794  0.6052
 2613TIP3    H132034   6.833   6.871  15.662  1.5198  0.2079  2.8000
 2613TIP3    H232035   6.976   6.920  15.656  1.2816  0.7184 -1.5415
 2614TIP3   OH232036   0.963   7.356  17.628 -0.1326  0.0035 -0.6434
 2614TIP3    H132037   0.950   7.301  17.550 -0.5647 -1.7123  0.5793
 2614TIP3    H232038   0.875   7.373  17.660  0.1091 -1.4169  0.8548
 2615TIP3   OH232039   3.648   7.452  17.268 -0.2840 -0.1701 -0.0359
 2615TIP3    H132040   3.648   7.545  17.244  1.9319  0.1631  0.9943
 2615TIP3    H232041   3.736   7.421  17.245 -0.9777 -2.0398 -0.3569
 2616TIP3   OH232042   7.480   3.578  17.039 -0.1037  0.3122 -0.2118
 2616TIP3    H132043   7.439   3.520  17.103  1.0224 -0.5284 -0.2306
 2616TIP3    H232044   7.564   3.536  17.019  0.0506  1.1459 -1.3906
 2617TIP3   OH232045   3.451   4.855  16.671 -0.1979 -0.1519 -0.0418
 2617TIP3    H132046   3.361   4.853  16.701  0.1325  1.1460  1.1095
 2617TIP3    H232047   3.456   4.930  16.612  0.0727 -0.3979 -0.3415
 2618TIP3   OH232048   2.842   5.560  16.582  0.2674 -0.4699 -0.4841
 2618TIP3    H132049   2.749   5.543  16.596  0.3124  0.1648  0.7045
 2618TIP3    H232050   2.885   5.529  16.662  0.8817  0.7044 -0.3325
 2619TIP3   OH232051   1.374   4.871  17.494  0.1454  0.1373 -0.0422
 2619TIP3    H132052   1.422   4.852  17.414  2.1876  0.2341  1.0898
 2619TIP3    H232053   1.381   4.790  17.545 -1.3552 -0.0112 -0.0271
 2620TIP3   OH232054   2.014   8.163  17.478 -0.6603  0.1632 -0.0783
 2620TIP3    H132055   2.048   8.252  17.466  0.0112 -0.0605  0.0993
 2620TIP3    H232056   2.057   8.111  17.410 -3.7350  0.6044 -2.5828
 2621TIP3   OH232057   2.102   1.671  16.518 -0.1923  0.1548 -0.2883
 2621TIP3    H132058   2.186   1.701  16.553  0.2398 -2.1816  0.8654
 2621TIP3    H232059   2.102   1.576  16.533 -3.4674  0.1941  0.7287
 2622TIP3   OH232060   2.213   6.995  17.449 -0.4315  0.1126  0.3021
 2622TIP3    H132061   2.241   6.916  17.495  0.3392  0.4027  0.3305
 2622TIP3    H232062   2.177   7.051  17.518 -3.8314 -1.3691 -0.0362
 2623TIP3   OH232063   0.737   1.253  16.613  0.0811 -0.2182 -0.0540
 2623TIP3    H132064   0.831   1.243  16.594  0.4528  0.3606  1.3063
 2623TIP3    H232065   0.703   1.305  16.541  1.1479  0.9001  0.2072
 2624TIP3   OH232066   5.782   4.105  16.979  0.1014 -0.0851  0.1110
 2624TIP3    H132067   5.745   4.071  16.897 -2.8422  1.8018  0.4984
 2624TIP3    H232068   5.787   4.200  16.966 -0.4523  0.2592  2.0779
 2625TIP3   OH232069   0.226   2.931  17.032  1.0354 -0.0246  0.2713
 2625TIP3    H132070   0.182   2.848  17.013 -0.2221  0.6629  0.0968
 2625TIP3    H232071   0.223   2.979  16.949 -0.1267  1.0372  0.9029
 2626TIP3   OH232072   5.111   4.574  16.006  0.7204 -0.1067  0.2453
 2626TIP3    H132073   5.109   4.529  16.090  0.3604  1.5778  1.1660
 2626TIP3    H232074   5.021   4.568  15.974  1.0499 -1.5723 -0.5194
 2627TIP3   OH232075   3.931   3.914  17.659  0.5007  0.1196 -0.0447
 2627TIP3    H132076   3.886   3.830  17.646  1.9388 -1.4460  3.5724
 2627TIP3    H232077   3.861   3.975  17.685 -0.4634 -0.0742 -2.0207
 2628TIP3   OH232078   5.817   2.390  16.466  0.2400 -0.5506  0.4283
 2628TIP3    H132079   5.748   2.456  16.455  0.0603 -0.6110  1.1569
 2628TIP3    H232080   5.811   2.364  16.558  1.5462 -0.2120  0.6288
 2629TIP3   OH232081   8.195   2.240  15.945  0.0634  0.1964  0.0627
 2629TIP3    H132082   8.218   2.186  15.869 -2.3980  2.1296 -2.2588
 2629TIP3    H232083   8.217   2.330  15.918  1.4027  0.7529  2.6728
 2630TIP3   OH232084   4.343   6.152  16.684 -0.1558 -0.4132  0.4921
 2630TIP3    H132085   4.323   6.246  16.681  1.4811 -0.0116  1.1302
 2630TIP3    H232086   4.420   6.146  16.740 -2.4720 -2.5250  3.8421
 2631TIP3   OH232087   7.204   2.742  16.674  0.0738  0.1374 -0.4580
 2631TIP3    H132088   7.282   2.724  16.620 -0.3398  1.9190 -1.7507
 2631TIP3    H232089   7.221   2.829  16.711 -1.1315  0.3667 -0.4288
 2632TIP3   OH232090   6.971   6.754  15.395 -0.0617  0.1815  0.4651
 2632TIP3    H132091   6.925   6.787  15.472  0.9534  2.0772  0.3107
 2632TIP3    H232092   6.977   6.828  15.336 -0.0739 -1.0206 -1.1240
 2633TIP3   OH232093   0.384   2.240  17.543  0.2034 -0.1759  0.1081
 2633TIP3    H132094   0.406   2.326  17.508 -0.0340 -0.0817  0.1918
 2633TIP3    H232095   0.417   2.178  17.477 -0.9498  0.0173 -0.6709
 2634TIP3   OH232096   1.138   2.218  15.599 -0.0106 -0.0459  0.2858
 2634TIP3    H132097   1.097   2.291  15.552 -0.4467 -0.9489 -0.7783
 2634TIP3    H232098   1.215   2.196  15.546 -0.9492 -1.5953 -0.5176
 2635TIP3   OH232099   4.328   1.673  17.580  0.2123 -0.1092 -0.7544
 2635TIP3    H132100   4.248   1.642  17.538 -0.5025  0.5090  0.1306
 2635TIP3    H232101   4.311   1.663  17.674  2.0013 -2.0465 -0.5555
 2636TIP3   OH232102   5.508   6.024  16.626  0.3122  0.0203 -0.1625
 2636TIP3    H132103   5.586   6.054  16.580  2.1643 -0.6705  2.3338
 2636TIP3    H232104   5.463   6.104  16.652  0.3764  0.4306 -1.2682
 2637TIP3   OH232105   0.450   2.860  16.723 -0.0905  0.2571  0.3216
 2637TIP3    H132106   0.445   2.944  16.768  0.8468  0.6339 -0.2540
 2637TIP3    H232107   0.419   2.878  16.634 -0.7546 -0.2084  0.4571
 2638TIP3   OH232108   7.824   1.214  15.873  0.1672 -0.3150  0.1130
 2638TIP3    H132109   7.818   1.279  15.803 -0.5365  2.2282  2.3951
 2638TIP3    H232110   7.803   1.131  15.830  3.0348  0.5013 -3.3762
 2639TIP3   OH232111   6.384   2.003  17.363 -0.9219  0.0671 -0.0208
 2639TIP3    H132112   6.413   2.066  17.429 -0.8553  1.0736 -0.9830
 2639TIP3    H232113   6.437   1.925  17.380 -1.3338  0.0727  1.4858
 2640TIP3   OH232114   2.028   7.277  16.122  0.4044 -0.6647  0.1269
 2640TIP3    H132115   2.032   7.182  16.127  1.0133 -0.6028  1.3884
 2640TIP3    H232116   1.935   7.297  16.128  0.3623 -1.1480  1.6827
 2641TIP3   OH232117   0.789   7.561  17.341  0.7245 -0.3578 -0.1668
 2641TIP3    H132118   0.844   7.613  17.400  1.2634 -0.5735 -0.4760
 2641TIP3    H232119   0.800   7.471  17.371  0.3696 -0.3770 -0.0973
 2642TIP3   OH232120   4.462   2.284  17.716  0.0477 -0.0411  0.6718
 2642TIP3    H132121   4.392   2.254  17.773 -0.1331  0.4679  0.7197
 2642TIP3    H232122   4.519   2.207  17.706  0.8533  0.2395  2.6553
 2643TIP3   OH232123   3.894   2.886  17.623  0.3278  0.1528 -0.0761
 2643TIP3    H132124   3.954   2.906  17.551  1.0788 -2.1655 -0.1824
 2643TIP3    H232125   3.807   2.910  17.589  0.8066  0.3293 -1.2485
 2644TIP3   OH232126   6.380   6.359  16.437 -0.5373 -0.3527  0.5301
 2644TIP3    H132127   6.319   6.413  16.386 -1.4015  1.3221  3.1505
 2644TIP3    H232128   6.466   6.391  16.410 -1.0026  1.5615  1.1185
 2645TIP3   OH232129   0.832   2.668  16.926 -0.0634  0.0886  0.1912
 2645TIP3    H132130   0.763   2.689  16.863  0.1704 -0.5965 -0.3091
 2645TIP3    H232131   0.788   2.668  17.011 -0.1981  1.9633  0.1716
 2646TIP3   OH232132   1.118   3.155  17.391 -0.7841 -0.4570 -0.3466
 2646TIP3    H132133   1.171   3.216  17.441 -2.0774  1.2106 -0.9048
 2646TIP3    H232134   1.087   3.206  17.315  1.1456 -2.8762 -2.9926
 2647TIP3   OH232135   7.927   3.958  17.799  0.2660  0.3474  0.3337
 2647TIP3    H132136   7.976   4.039  17.814  3.2436 -0.6009 -2.9399
 2647TIP3    H232137   7.895   3.966  17.709 -0.4981 -1.5599  0.3952
 2648TIP3   OH232138   0.612   1.418  15.910 -0.3235 -0.4741  0.6757
 2648TIP3    H132139   0.633   1.440  15.819  0.1910  1.0329  1.1274
 2648TIP3    H232140   0.566   1.334  15.905 -2.9960  0.9540 -1.2838
 2649TIP3   OH232141   4.607   2.773  16.365  0.1801  0.0630  0.0169
 2649TIP3    H132142   4.621   2.713  16.292 -1.3151  0.1527 -0.3904
 2649TIP3    H232143   4.564   2.720  16.432  0.2751  0.3074  0.2704
 2650TIP3   OH232144   8.407   0.922  16.361  0.1809  0.4560  0.1241
 2650TIP3    H132145   8.459   0.892  16.286  0.0338  0.0168  0.1978
 2650TIP3    H232146   8.401   0.846  16.419  0.5436  0.8737  0.7273
 2651TIP3   OH232147   2.757   1.975  17.686 -0.5578  0.3273  0.4468
 2651TIP3    H132148   2.792   2.058  17.653 -0.5587  0.2349  0.2068
 2651TIP3    H232149   2.696   1.947  17.617  0.0116 -0.2486  0.1786
 2652TIP3   OH232150   5.526   1.996  16.906 -0.2287  0.0105  0.2570
 2652TIP3    H132151   5.441   2.040  16.894 -1.2356 -1.8964 -0.0079
 2652TIP3    H232152   5.524   1.923  16.844  1.7512  0.0831  0.0533
 2653TIP3   OH232153   4.992   0.830  16.954  0.2118 -0.3540  0.3267
 2653TIP3    H132154   4.934   0.789  17.018 -0.4049 -0.0687 -0.0530
 2653TIP3    H232155   5.080   0.804  16.983 -0.1646 -3.3006 -0.7959
 2654TIP3   OH232156   5.567   6.493  16.856 -0.1347 -0.6059  0.7707
 2654TIP3    H132157   5.643   6.542  16.887  0.5573  0.2032 -1.9095
 2654TIP3    H232158   5.605   6.421  16.805 -1.1630 -0.9703  0.5031
 2655TIP3   OH232159   1.019   2.078  17.146 -0.2756 -0.6937  0.0205
 2655TIP3    H132160   0.953   2.111  17.207 -1.0873  0.7677 -1.5416
 2655TIP3    H232161   1.103   2.093  17.190 -0.7493  1.6328  0.2735
 2656TIP3   OH232162   6.813   1.869  17.433 -0.0410  0.1572  0.1401
 2656TIP3    H132163   6.881   1.926  17.397 -0.1181  2.1844  2.9238
 2656TIP3    H232164   6.758   1.848  17.357  1.6732  1.3553 -1.5357
 2657TIP3   OH232165   3.062   1.396  15.604  0.1139  0.2624 -0.1126
 2657TIP3    H132166   3.050   1.322  15.663 -2.5630 -0.8857 -1.8460
 2657TIP3    H232167   3.112   1.360  15.531  1.9475  1.2163  0.6182
 2658TIP3   OH232168   5.467   3.040  17.285  0.4385  0.2496  0.3714
 2658TIP3    H132169   5.540   2.981  17.273  2.2028  2.4766 -0.5313
 2658TIP3    H232170   5.470   3.065  17.378 -0.7289 -1.4873  0.9229
 2659TIP3   OH232171   3.743   3.525  17.001 -0.5586  0.6077 -0.2353
 2659TIP3    H132172   3.787   3.497  16.921 -1.5807 -1.3190 -0.1931
 2659TIP3    H232173   3.775   3.464  17.068 -0.1378  1.8441  0.7349
 2660TIP3   OH232174   2.100   0.331  17.322 -0.1814 -0.1970 -0.2099
 2660TIP3    H132175   2.029   0.269  17.340  0.3669 -0.9149 -0.4746
 2660TIP3    H232176   2.135   0.303  17.238  0.7522 -0.1825  0.1570
 2661TIP3   OH232177   3.656   4.324  15.672  0.1381 -0.1517 -0.4977
 2661TIP3    H132178   3.611   4.243  15.647  1.1802 -0.0507 -2.9290
 2661TIP3    H232179   3.659   4.320  15.768 -2.0867 -1.7207 -0.3979
 2662TIP3   OH232180   2.346   3.402  15.616 -0.7553 -0.1686 -0.4099
 2662TIP3    H132181   2.358   3.492  15.647 -1.8135 -0.3830  0.7350
 2662TIP3    H232182   2.253   3.398  15.590 -1.1525 -1.3340  1.0514
 2663TIP3   OH232183   1.885   8.307  16.630 -0.3672 -0.1391  0.1162
 2663TIP3    H132184   1.948   8.375  16.605 -2.5007  0.8175 -3.5140
 2663TIP3    H232185   1.935   8.226  16.629  1.7477  1.0156  2.2858
 2664TIP3   OH232186   1.821   3.874  15.829 -0.1920 -0.3703  0.0819
 2664TIP3    H132187   1.794   3.782  15.831  1.4093 -0.8628  0.5807
 2664TIP3    H232188   1.916   3.871  15.818 -0.2066  1.2545 -0.8122
 2665TIP3   OH232189   1.470   0.758  16.883 -0.0435  0.6969 -0.6830
 2665TIP3    H132190   1.545   0.705  16.909 -1.6624 -0.2820  2.5494
 2665TIP3    H232191   1.415   0.698  16.832  0.4899  0.8883 -1.5088
 2666TIP3   OH232192   7.354   3.654  16.313 -0.1994 -0.3544  0.0062
 2666TIP3    H132193   7.381   3.692  16.230  1.5555 -1.3004  0.1116
 2666TIP3    H232194   7.372   3.723  16.378 -2.2857  0.6841 -0.4042
 2667TIP3   OH232195   3.573   1.702  17.544 -0.6578  0.2131 -0.1704
 2667TIP3    H132196   3.578   1.797  17.540  1.0523  0.1360 -0.5659
 2667TIP3    H232197   3.559   1.675  17.453  0.0376  0.0486 -0.2326
 2668TIP3   OH232198   8.278   5.504  16.832  0.0817  0.1321  0.1157
 2668TIP3    H132199   8.243   5.582  16.875  0.6862  0.3316  0.2513
 2668TIP3    H232200   8.216   5.486  16.761 -0.9525 -0.2186  1.0685
 2669TIP3   OH232201   4.494   7.512  16.841 -0.4764 -0.2223 -0.3338
 2669TIP3    H132202   4.442   7.531  16.919 -1.5518 -0.2258 -1.0429
 2669TIP3    H232203   4.567   7.459  16.874 -0.5615  0.3038  0.7613
 2670TIP3   OH232204   5.748   7.068  16.048 -0.0883 -0.6333  0.9400
 2670TIP3    H132205   5.823   7.107  16.004 -0.5904 -2.4402 -1.6999
 2670TIP3    H232206   5.735   7.123  16.126  3.0034  0.5977  0.7195
 2671TIP3   OH232207   1.851   2.848  17.761 -0.2542  0.0175 -0.1124
 2671TIP3    H132208   1.879   2.921  17.817  0.4716  0.7666 -1.4078
 2671TIP3    H232209   1.928   2.791  17.758 -0.8157 -0.8305  0.8840
 2672TIP3   OH232210   6.938   7.579  17.155  0.4443  0.2441 -0.1051
 2672TIP3    H132211   6.947   7.485  17.138 -1.7077 -0.3731  1.5665
 2672TIP3    H232212   7.023   7.606  17.188  1.0016 -1.2209 -0.2670
 2673TIP3   OH232213   3.242   8.067  16.666 -0.3727  0.5623 -0.3281
 2673TIP3    H132214   3.149   8.047  16.681 -0.0794 -1.5569 -0.9470
 2673TIP3    H232215   3.289   8.003  16.719  0.6755 -1.4936 -3.4277
 2674TIP3   OH232216   0.999   3.046  17.641  0.1004 -0.8359  0.3957
 2674TIP3    H132217   1.085   3.008  17.619  0.0019  0.3171 -2.3610
 2674TIP3    H232218   1.020   3.133  17.675  0.0421 -0.6542 -0.0303
 2675TIP3   OH232219   2.839   4.156  16.249  0.0353  0.7704 -0.0488
 2675TIP3    H132220   2.934   4.148  16.242  0.1506  1.6320  0.3836
 2675TIP3    H232221   2.810   4.179  16.161 -0.1602 -2.6365 -0.9897
 2676TIP3   OH232222   1.906   4.314  16.546  0.1921  0.0906  0.0157
 2676TIP3    H132223   1.850   4.391  16.546  0.3075  0.2255 -2.0791
 2676TIP3    H232224   1.859   4.250  16.493 -0.6645 -1.9537  2.9499
 2677TIP3   OH232225   2.694   5.757  16.856  0.2071  0.2367  0.0693
 2677TIP3    H132226   2.710   5.850  16.874  0.8521  0.2701 -0.6611
 2677TIP3    H232227   2.677   5.753  16.762 -0.8345 -0.2596  0.2564
 2678TIP3   OH232228   2.867   8.034  17.256  0.4217  0.0338 -0.2489
 2678TIP3    H132229   2.803   8.025  17.326  1.4992 -2.1526  0.5638
 2678TIP3    H232230   2.821   8.003  17.177 -0.5131  1.6767 -0.3994
 2679TIP3   OH232231   0.797   5.521  16.118  0.3723  0.1883 -0.9040
 2679TIP3    H132232   0.768   5.450  16.061  0.3120 -0.0546 -0.5724
 2679TIP3    H232233   0.742   5.514  16.196 -2.4480  3.0448 -2.4116
 2680TIP3   OH232234   1.792   3.367  15.607  0.4958 -0.0418  0.7694
 2680TIP3    H132235   1.816   3.453  15.573  1.2449 -0.8806 -0.9633
 2680TIP3    H232236   1.698   3.359  15.587  0.0816  0.8619  2.1607
 2681TIP3   OH232237   4.454   6.823  16.977  0.3134 -0.0609  0.3674
 2681TIP3    H132238   4.507   6.880  17.033  0.9457  0.0270 -0.2986
 2681TIP3    H232239   4.394   6.779  17.037  1.9666 -1.0929  1.3487
 2682TIP3   OH232240   4.921   7.444  17.093  0.0160  0.1217  0.0740
 2682TIP3    H132241   4.948   7.514  17.152  0.5804  0.0356 -0.0709
 2682TIP3    H232242   5.003   7.414  17.054 -0.4597  1.2060 -1.9168
 2683TIP3   OH232243   5.688   0.457  16.416  0.3095  0.3061 -0.4240
 2683TIP3    H132244   5.745   0.470  16.340 -0.0297  2.1347 -0.4142
 2683TIP3    H232245   5.748   0.443  16.489  0.6677 -0.1827 -0.8029
 2684TIP3   OH232246   2.555   7.540  17.831 -0.4943  0.5123 -0.0848
 2684TIP3    H132247   2.602   7.509  17.908  0.9202  0.6725 -0.8604
 2684TIP3    H232248   2.601   7.501  17.757 -2.4775 -0.5337 -0.8602
 2685TIP3   OH232249   1.735   1.385  17.490 -0.3221  0.3382  0.2368
 2685TIP3    H132250   1.698   1.429  17.414  0.1423  1.0425  0.4042
 2685TIP3    H232251   1.740   1.454  17.557  2.3755  0.6031 -0.1365
 2686TIP3   OH232252   2.620   7.801  17.706  0.3255 -0.2679 -0.0252
 2686TIP3    H132253   2.581   7.723  17.745 -0.0893  0.1778  0.4611
 2686TIP3    H232254   2.707   7.773  17.677  0.2101 -0.8851  0.2295
 2687TIP3   OH232255   2.415   3.615  17.732  0.5945  0.7907  0.3164
 2687TIP3    H132256   2.444   3.629  17.641  0.7644 -0.4463  0.1574
 2687TIP3    H232257   2.342   3.554  17.724 -0.7643  2.2870  0.8804
 2688TIP3   OH232258   4.355   5.275  17.259 -0.1274  0.1344 -0.7200
 2688TIP3    H132259   4.291   5.340  17.230  0.7531  0.6528 -1.5247
 2688TIP3    H232260   4.409   5.258  17.182 -0.2780 -1.4934 -0.5013
 2689TIP3   OH232261   5.923   1.681  15.872 -0.7808 -0.6475  0.0125
 2689TIP3    H132262   5.884   1.595  15.889 -0.7246 -0.7370 -0.2936
 2689TIP3    H232263   6.004   1.661  15.825 -0.7135 -0.4304  0.0338
 2690TIP3   OH232264   4.027   1.789  16.128 -0.0488 -0.4602 -0.3652
 2690TIP3    H132265   4.073   1.706  16.140 -0.4077 -0.8780 -1.7037
 2690TIP3    H232266   3.993   1.785  16.038 -0.8055  0.7710 -0.1589
 2691TIP3   OH232267   2.843   1.738  16.727  0.5080 -0.0674  0.8081
 2691TIP3    H132268   2.858   1.832  16.727  0.1688 -0.0031  1.5158
 2691TIP3    H232269   2.894   1.705  16.653  1.2314  0.5778  1.0005
 2692TIP3   OH232270   2.518   3.007  17.313 -0.1804  0.1685 -0.4729
 2692TIP3    H132271   2.547   2.917  17.297 -2.1529 -0.4033 -1.2790
 2692TIP3    H232272   2.524   3.050  17.228 -2.1965 -0.1878 -0.8587
 2693TIP3   OH232273   2.254   6.220  17.418  0.0430  0.1529 -0.1210
 2693TIP3    H132274   2.279   6.226  17.326 -1.3957  0.4413 -0.5194
 2693TIP3    H232275   2.296   6.295  17.460 -2.3032  2.2913 -1.3154
 2694TIP3   OH232276   4.658   8.407  17.485  0.7544  0.3104  0.0784
 2694TIP3    H132277   4.618   8.479  17.435  1.7778  1.5047  0.9025
 2694TIP3    H232278   4.726   8.373  17.428 -0.0193 -0.3148 -0.4897
 2695TIP3   OH232279   6.094   6.660  17.153  0.8860 -0.1331 -0.1687
 2695TIP3    H132280   6.097   6.718  17.077  0.9298 -1.3299 -1.1100
 2695TIP3    H232281   6.106   6.572  17.117  2.0450 -0.6448  1.3380
 2696TIP3   OH232282   4.772   6.680  17.431 -0.4113 -0.0635  0.4084
 2696TIP3    H132283   4.765   6.676  17.336  1.2146 -0.4758  0.2833
 2696TIP3    H232284   4.720   6.606  17.462  1.7586 -2.0506 -0.3681
 2697TIP3   OH232285   8.103   5.047  16.515  0.7434  0.5480  0.2299
 2697TIP3    H132286   8.097   5.027  16.421 -1.3088 -1.7475  0.7711
 2697TIP3    H232287   8.030   5.107  16.531 -0.2814 -0.7868  0.7133
 2698TIP3   OH232288   3.878   3.033  18.016 -0.0092  0.0499 -0.0385
 2698TIP3    H132289   3.946   3.006  17.954 -2.0147 -2.3920 -1.3732
 2698TIP3    H232290   3.887   2.972  18.090 -0.2312  0.2577  0.1630
 2699TIP3   OH232291   3.994   3.094  16.211  0.3330 -0.4112  0.4651
 2699TIP3    H132292   4.069   3.072  16.266  0.2778 -0.3853  0.5510
 2699TIP3    H232293   3.995   3.190  16.206  1.9469 -0.4813 -1.8212
 2700TIP3   OH232294   0.408   5.720  16.935 -0.3836 -0.1588 -0.1951
 2700TIP3    H132295   0.450   5.662  16.999 -0.9580  0.5928  0.8922
 2700TIP3    H232296   0.374   5.660  16.868 -1.3188 -1.1595  1.0973
 2701TIP3   OH232297   1.726   7.993  17.831 -0.1762 -0.0936  0.2034
 2701TIP3    H132298   1.796   7.938  17.795  1.0048 -0.3376  2.6878
 2701TIP3    H232299   1.718   8.065  17.768 -1.2663 -2.5771 -2.7758
 2702TIP3   OH232300   0.138   4.723  17.491  0.1880 -0.1846  0.0505
 2702TIP3    H132301   0.101   4.719  17.579 -0.8905  3.8048 -0.0442
 2702TIP3    H232302   0.224   4.763  17.503  0.2315 -0.0462 -0.6646
 2703TIP3   OH232303   1.699   5.705  17.245 -0.1023 -0.1942 -0.0087
 2703TIP3    H132304   1.774   5.711  17.186  1.0288  1.6570  1.5390
 2703TIP3    H232305   1.628   5.671  17.189  1.4423 -0.5158 -1.8841
 2704TIP3   OH232306   3.717   6.045  17.465  0.1974  0.1917 -0.0377
 2704TIP3    H132307   3.748   6.074  17.378  1.0920  0.8597  0.4839
 2704TIP3    H232308   3.694   6.127  17.510 -0.7429 -0.1888  0.1848
 2705TIP3   OH232309   0.921   1.627  16.385  0.0751  0.0614  0.1636
 2705TIP3    H132310   0.945   1.555  16.328  1.4219  0.8910 -0.3521
 2705TIP3    H232311   0.958   1.705  16.343 -0.1327  0.8699  1.4246
 2706TIP3   OH232312   5.706   2.924  16.444 -0.3534  0.1589 -0.2991
 2706TIP3    H132313   5.784   2.980  16.433 -0.2672  0.1774  0.3632
 2706TIP3    H232314   5.684   2.896  16.355  0.6225 -0.1337 -0.4642
 2707TIP3   OH232315   3.268   5.056  17.458 -0.0936 -0.1122  0.6066
 2707TIP3    H132316   3.274   5.145  17.423  1.0399 -1.0124 -1.7425
 2707TIP3    H232317   3.178   5.048  17.489 -0.6312  1.4126 -0.4574
 2708TIP3   OH232318   6.962   5.712  16.659 -0.4711  0.2807 -0.0504
 2708TIP3    H132319   6.956   5.647  16.729 -0.3440  0.5450  0.2085
 2708TIP3    H232320   6.913   5.674  16.586  0.9386 -0.8046 -0.4503
 2709TIP3   OH232321   4.410   0.198  17.079 -0.4248  0.0543  0.7901
 2709TIP3    H132322   4.331   0.252  17.075  0.1345  0.8380 -2.3619
 2709TIP3    H232323   4.378   0.109  17.070 -0.9703  0.3896 -0.8272
 2710TIP3   OH232324   2.669   3.373  16.678  0.1841  0.3776  0.3645
 2710TIP3    H132325   2.596   3.435  16.678 -0.1542 -0.0084 -0.1597
 2710TIP3    H232326   2.632   3.292  16.641  1.3330  0.7290 -1.7287
 2711TIP3   OH232327   1.884   6.567  16.315 -0.1219  0.3028 -0.4558
 2711TIP3    H132328   1.952   6.565  16.383 -0.1879 -0.3311 -0.3959
 2711TIP3    H232329   1.859   6.475  16.305 -1.3265  0.5862 -0.1175
 2712TIP3   OH232330   4.831   6.193  16.781  0.4030 -0.3230  0.0770
 2712TIP3    H132331   4.782   6.228  16.856 -0.6531 -0.1976 -0.6519
 2712TIP3    H232332   4.800   6.244  16.706  0.9463 -0.9097 -0.5622
 2713TIP3   OH232333   6.917   1.562  16.034 -0.0804 -0.1091  0.3266
 2713TIP3    H132334   6.825   1.543  16.015  0.1375 -0.2915 -0.5740
 2713TIP3    H232335   6.950   1.606  15.956  0.7622 -0.5966  0.3932
 2714TIP3   OH232336   4.559   3.380  15.826  0.8319 -0.7790 -0.4884
 2714TIP3    H132337   4.592   3.304  15.778 -0.5063 -0.9185 -1.2480
 2714TIP3    H232338   4.468   3.387  15.799  0.1050 -0.6313  1.7641
 2715TIP3   OH232339   8.296   6.029  16.694  0.1544  0.2769 -0.3375
 2715TIP3    H132340   8.207   6.047  16.663  0.1963 -0.7722 -1.1225
 2715TIP3    H232341   8.333   5.972  16.627 -0.1331 -3.0380  2.0949
 2716TIP3   OH232342   5.984   2.087  16.577  0.5958 -0.2456 -0.2294
 2716TIP3    H132343   6.047   2.154  16.551  0.1337  1.1846  2.0195
 2716TIP3    H232344   5.928   2.075  16.500  2.2862 -0.0380 -1.5613
 2717TIP3   OH232345   7.776   2.715  15.571 -0.2126 -0.0401 -0.1120
 2717TIP3    H132346   7.764   2.802  15.608 -2.0451  0.9791 -2.7617
 2717TIP3    H232347   7.871   2.704  15.563  0.1246  0.7838  2.1476
 2718TIP3   OH232348   0.005   6.608  16.745 -0.2741  0.3851  0.1465
 2718TIP3    H132349  -0.044   6.546  16.690 -0.2938 -0.1523  0.7520
 2718TIP3    H232350  -0.036   6.600  16.831  0.5335  0.3233  0.5311
 2719TIP3   OH232351   8.238   5.273  17.082  0.4119 -0.0142  0.3391
 2719TIP3    H132352   8.205   5.355  17.119  0.3822 -0.0760  0.4472
 2719TIP3    H232353   8.287   5.300  17.004 -1.6014 -0.0779 -1.0020
 2720TIP3   OH232354   4.673   7.407  17.818  0.6357  0.0467 -0.0207
 2720TIP3    H132355   4.609   7.403  17.747 -1.2929 -0.8760  1.6456
 2720TIP3    H232356   4.718   7.322  17.815 -0.5662 -0.6563  0.7644
 2721TIP3   OH232357   4.254   3.559  17.528  0.4357  0.5291  0.6961
 2721TIP3    H132358   4.310   3.627  17.489 -0.7308  0.4796 -1.2249
 2721TIP3    H232359   4.169   3.572  17.486  0.4473 -2.8512 -0.7083
 2722TIP3   OH232360   3.778   8.199  15.912  0.7597 -0.0890 -0.0467
 2722TIP3    H132361   3.751   8.255  15.985  1.3235  1.2635 -0.8379
 2722TIP3    H232362   3.742   8.113  15.934 -1.6572  0.9496  0.3576
 2723TIP3   OH232363   5.187   1.037  16.094 -0.0680  0.3373 -0.3617
 2723TIP3    H132364   5.246   1.005  16.025 -0.7670  0.2058 -0.9131
 2723TIP3    H232365   5.213   0.989  16.172  0.4313  0.1434 -0.6391
 2724TIP3   OH232366   0.211   4.324  17.642  0.2906 -0.1096 -0.8034
 2724TIP3    H132367   0.134   4.360  17.686  0.5362  1.0058 -1.2618
 2724TIP3    H232368   0.232   4.244  17.692  0.6765  1.1830  1.2187
 2725TIP3   OH232369   2.559   5.278  17.269  0.3368 -0.0065  0.5301
 2725TIP3    H132370   2.648   5.309  17.288  0.7169 -0.9445  0.3707
 2725TIP3    H232371   2.552   5.195  17.316 -0.2429 -0.2328  0.0569
 2726TIP3   OH232372   1.431   8.177  17.161 -0.1393  0.8133 -0.4151
 2726TIP3    H132373   1.451   8.086  17.183 -0.2319  0.3087 -2.2300
 2726TIP3    H232374   1.492   8.229  17.213 -0.9768 -0.1918  1.6530
 2727TIP3   OH232375   5.152   1.844  17.691  0.0815 -0.3104 -0.3290
 2727TIP3    H132376   5.236   1.854  17.646  1.0551 -0.3381  1.3663
 2727TIP3    H232377   5.176   1.826  17.782 -1.7794  0.4539  0.3694
 2728TIP3   OH232378   7.648   6.910  17.717 -0.6553  0.5398  0.5555
 2728TIP3    H132379   7.694   6.849  17.775  0.3661 -1.2318 -1.9428
 2728TIP3    H232380   7.709   6.983  17.706  1.1854 -1.1991 -1.7168
 2729TIP3   OH232381   1.752   7.994  17.164 -0.4493  0.0729 -0.0565
 2729TIP3    H132382   1.804   7.915  17.154 -2.3067 -1.1782 -0.4021
 2729TIP3    H232383   1.757   8.038  17.079  2.1115  1.3855  0.6900
 2730TIP3   OH232384   8.414   3.588  17.814 -0.4618 -0.3040  0.3369
 2730TIP3    H132385   8.422   3.681  17.835 -1.6200  0.2278 -1.4012
 2730TIP3    H232386   8.325   3.579  17.780 -0.0118 -1.8350 -0.5104
 2731TIP3   OH232387   3.778   2.762  16.403 -0.7337 -0.0079  0.2163
 2731TIP3    H132388   3.696   2.804  16.429 -0.1480  0.6734  0.9958
 2731TIP3    H232389   3.757   2.668  16.401 -1.4513  0.1307  0.6722
 2732TIP3   OH232390   7.408   2.192  16.592 -0.2340  0.3060  0.3403
 2732TIP3    H132391   7.342   2.261  16.588 -0.8635 -0.3155 -0.1873
 2732TIP3    H232392   7.409   2.155  16.503 -0.1394 -0.5785  0.7035
 2733TIP3   OH232393   3.895   2.290  16.893  0.2024 -0.3363 -0.2236
 2733TIP3    H132394   3.906   2.197  16.872 -0.1309 -0.3701 -0.2537
 2733TIP3    H232395   3.842   2.324  16.821  0.4247 -0.0957 -0.2736
 2734TIP3   OH232396   0.430   6.441  17.743 -0.2283 -0.0460 -0.5029
 2734TIP3    H132397   0.345   6.396  17.747  0.6556 -1.7332  0.6459
 2734TIP3    H232398   0.423   6.512  17.805 -0.6761 -0.4203 -0.1162
 2735TIP3   OH232399   7.878   0.248  16.212 -0.7833 -0.4352 -0.5638
 2735TIP3    H132400   7.941   0.191  16.168 -0.7898 -0.4032 -0.6157
 2735TIP3    H232401   7.855   0.314  16.146 -1.0341 -0.5748 -0.6175
 2736TIP3   OH232402   6.281   4.143  16.553  0.3250 -0.5359 -0.3117
 2736TIP3    H132403   6.289   4.135  16.648 -0.1357 -1.3766 -0.3352
 2736TIP3    H232404   6.331   4.222  16.531  1.7339 -1.1987  0.4442
 2737TIP3   OH232405   6.633   5.724  17.691  0.2624 -0.0829  0.9723
 2737TIP3    H132406   6.559   5.688  17.641  1.2603 -0.4562 -0.2910
 2737TIP3    H232407   6.671   5.649  17.736  0.1983  0.0203  1.2009
 2738TIP3   OH232408   5.424   4.831  16.655  0.1093  0.3294  0.1465
 2738TIP3    H132409   5.482   4.823  16.731  0.6689 -1.1628 -0.4137
 2738TIP3    H232410   5.341   4.861  16.693  0.1474 -1.0971  1.4959
 2739TIP3   OH232411   5.110   0.473  17.375  0.1383  0.1818  0.4068
 2739TIP3    H132412   5.145   0.436  17.456 -0.5432 -0.1121  0.5681
 2739TIP3    H232413   5.167   0.438  17.306  0.7045  0.4173  0.7517
 2740TIP3   OH232414   2.602   6.411  15.815 -0.3928 -0.1931  0.0867
 2740TIP3    H132415   2.634   6.491  15.773 -0.0958 -0.9084 -1.0820
 2740TIP3    H232416   2.509   6.407  15.792 -0.1352 -0.8079 -0.8972
 2741TIP3   OH232417   1.431   1.436  16.405 -0.2892 -0.1917 -0.4243
 2741TIP3    H132418   1.509   1.466  16.450  0.7018 -1.3489 -1.2863
 2741TIP3    H232419   1.387   1.516  16.377 -0.3255  0.5124  1.5150
 2742TIP3   OH232420   8.319   8.055  16.360  0.6502 -0.3487 -0.0081
 2742TIP3    H132421   8.239   8.104  16.379  0.3263 -1.4174  1.6384
 2742TIP3    H232422   8.336   8.070  16.267 -2.2923 -1.2582 -0.7986
 2743TIP3   OH232423   7.032   0.627  17.738 -0.3165  0.2512  0.0578
 2743TIP3    H132424   6.977   0.674  17.801 -0.8829 -0.8588  0.4124
 2743TIP3    H232425   6.998   0.653  17.653 -0.6911  0.4152  0.2552
 2744TIP3   OH232426   6.985   5.756  17.080  0.0722 -0.3360  0.0952
 2744TIP3    H132427   7.019   5.769  16.992  1.1700 -0.3260  0.5083
 2744TIP3    H232428   6.934   5.835  17.098  0.0064 -0.2537 -0.4552
 2745TIP3   OH232429   8.393   4.995  16.754  0.1911 -0.7200  0.1128
 2745TIP3    H132430   8.342   5.071  16.725  0.4133 -0.7615 -0.3910
 2745TIP3    H232431   8.330   4.922  16.752 -0.2983 -0.3779  1.5798
 2746TIP3   OH232432   4.787   7.633  16.090  0.5455 -0.2906 -0.1444
 2746TIP3    H132433   4.715   7.590  16.045  0.1880 -0.3388  0.4697
 2746TIP3    H232434   4.866   7.596  16.050  0.2369 -0.9354 -0.1626
 2747TIP3   OH232435   3.733   6.480  17.740  0.2881 -0.0353 -0.0270
 2747TIP3    H132436   3.717   6.459  17.648 -0.7779  1.3807 -0.2174
 2747TIP3    H232437   3.794   6.554  17.737 -0.4390  0.5965  0.3398
 2748TIP3   OH232438   2.964   5.647  16.346  0.4137 -0.3208  0.3503
 2748TIP3    H132439   2.894   5.709  16.324 -0.0484 -1.0939 -0.3952
 2748TIP3    H232440   2.940   5.613  16.432 -0.0695 -0.4909  0.1511
 2749TIP3   OH232441   8.057   0.408  16.375  0.2867  0.0714  0.3559
 2749TIP3    H132442   8.130   0.400  16.314  0.0444  2.0835 -0.3013
 2749TIP3    H232443   7.986   0.357  16.335  0.6355  0.0288 -0.2145
 2750TIP3   OH232444   4.114   1.140  16.743 -0.1408  0.0018 -0.4508
 2750TIP3    H132445   4.199   1.184  16.747 -1.0200  1.7183  0.1555
 2750TIP3    H232446   4.117   1.076  16.814  0.5613  0.2125 -0.2773
 2751TIP3   OH232447   4.039   2.017  16.957  0.0360  0.0728 -0.1874
 2751TIP3    H132448   4.093   1.970  17.020  0.3311 -0.7049 -1.0071
 2751TIP3    H232449   3.956   1.971  16.957  0.9482 -1.7684 -2.4322
 2752TIP3   OH232450   1.457   7.010  16.077 -0.2011  0.2022 -0.3989
 2752TIP3    H132451   1.492   6.935  16.125 -0.4362 -0.2008 -0.8487
 2752TIP3    H232452   1.534   7.050  16.035 -0.1122  0.0532 -0.3761
 2753TIP3   OH232453   8.090   8.067  17.440 -0.2121 -0.4122  0.0988
 2753TIP3    H132454   8.174   8.072  17.486 -0.1614 -0.8206  0.0567
 2753TIP3    H232455   8.105   8.116  17.359 -0.8898  2.0301  1.3414
 2754TIP3   OH232456   7.614   5.324  16.147  0.1611 -0.3553  0.0934
 2754TIP3    H132457   7.625   5.283  16.061  0.5618 -2.1833  0.9682
 2754TIP3    H232458   7.646   5.414  16.134  0.7012 -0.7343 -1.5334
 2755TIP3   OH232459   4.943   6.754  16.299 -0.2064  0.1006 -0.3721
 2755TIP3    H132460   4.959   6.699  16.375 -0.1183 -0.5370 -0.8434
 2755TIP3    H232461   4.911   6.694  16.232  0.0285  0.5978 -0.9434
 2756TIP3   OH232462   6.458   0.322  17.352 -0.0399  0.2754 -0.2014
 2756TIP3    H132463   6.535   0.305  17.298 -0.6603  0.7252 -1.2657
 2756TIP3    H232464   6.446   0.242  17.403  1.3503  0.3470  0.2787
 2757TIP3   OH232465   7.105   2.888  15.402 -0.2336  0.1431 -0.4545
 2757TIP3    H132466   7.099   2.799  15.435  1.4445 -0.3074 -1.2482
 2757TIP3    H232467   7.077   2.882  15.311 -0.7073  0.5609 -0.3455
 2758TIP3   OH232468   7.323   8.173  16.184 -0.0328 -0.1352 -0.2714
 2758TIP3    H132469   7.255   8.109  16.204 -0.1799 -0.4899 -1.7915
 2758TIP3    H232470   7.402   8.120  16.174  0.1539  0.1008 -0.0625
 2759TIP3   OH232471   5.876   0.781  16.464 -0.1178  0.4553 -0.4119
 2759TIP3    H132472   5.921   0.864  16.478  0.3302  0.0724  0.5158
 2759TIP3    H232473   5.932   0.716  16.504 -0.3298 -0.3477 -1.3707
 2760TIP3   OH232474   4.742   6.180  17.623 -0.2198  0.1268  0.4222
 2760TIP3    H132475   4.794   6.162  17.545 -2.9001  1.3787 -1.7808
 2760TIP3    H232476   4.785   6.128  17.692  3.3188  0.3800 -1.3759
 2761TIP3   OH232477   4.186   6.121  16.453  0.1576 -0.2493 -0.1619
 2761TIP3    H132478   4.251   6.103  16.385  0.3557 -2.4526  0.5474
 2761TIP3    H232479   4.237   6.132  16.533 -0.2722 -3.2050  0.6450
 2762TIP3   OH232480   6.703   4.114  17.506  0.1882 -0.3604 -0.1377
 2762TIP3    H132481   6.761   4.190  17.514 -0.3906  0.1393 -0.5393
 2762TIP3    H232482   6.714   4.067  17.588  1.1786 -0.2909 -0.2173
 2763TIP3   OH232483   1.182   2.279  15.204  0.8470 -0.4822  0.1096
 2763TIP3    H132484   1.123   2.287  15.128  0.8099 -2.5259 -0.1241
 2763TIP3    H232485   1.124   2.259  15.277  0.8229  2.0131  0.8609
 2764TIP3   OH232486   0.091   2.458  16.948  0.0261  0.0769  0.3595
 2764TIP3    H132487   0.068   2.541  16.989  1.9903 -0.3665  2.5983
 2764TIP3    H232488   0.079   2.393  17.018  1.0372 -1.1322 -0.5468
 2765TIP3   OH232489   3.209   0.625  17.576  0.2173  0.6858 -0.3704
 2765TIP3    H132490   3.288   0.571  17.578 -0.1162  0.1921  1.9134
 2765TIP3    H232491   3.242   0.715  17.581  0.7235  0.4451  4.1277
 2766TIP3   OH232492   4.044   2.516  17.784  0.0883  0.0414 -0.2332
 2766TIP3    H132493   4.053   2.420  17.786  0.7757 -0.0694 -3.4161
 2766TIP3    H232494   3.951   2.531  17.769 -0.6350  0.1235  3.3271
 2767TIP3   OH232495   3.218   7.555  16.071 -0.0301  0.1690 -0.6622
 2767TIP3    H132496   3.242   7.580  16.160 -0.6835  0.5825 -0.5998
 2767TIP3    H232497   3.265   7.473  16.056 -1.0059 -0.6410  0.5585
 2768TIP3   OH232498   7.239   6.626  16.363 -0.4151 -0.0132  0.2696
 2768TIP3    H132499   7.328   6.651  16.337  0.2938 -1.9209  0.7053
 2768TIP3    H232500   7.185   6.698  16.333  1.0684  0.4562 -1.4933
 2769TIP3   OH232501   1.896   0.248  17.471  0.4544  0.2708  0.6936
 2769TIP3    H132502   1.802   0.264  17.465  0.7581  1.5075 -2.0050
 2769TIP3    H232503   1.907   0.156  17.447  0.0110  0.3959  0.0004
 2770TIP3   OH232504   1.212   1.270  15.896 -0.3616  0.3527  0.0866
 2770TIP3    H132505   1.284   1.255  15.835 -0.1812  1.3183  0.0475
 2770TIP3    H232506   1.238   1.225  15.976  1.0816  2.0565  0.6294
 2771TIP3   OH232507   4.036   2.577  16.315  0.1280 -0.1719 -0.0473
 2771TIP3    H132508   3.978   2.607  16.386  0.5230  0.0733  0.1766
 2771TIP3    H232509   3.978   2.568  16.239 -0.0727  0.8349 -0.0356
 2772TIP3   OH232510   4.601   8.146  16.295  0.1859 -0.2910 -0.7292
 2772TIP3    H132511   4.538   8.209  16.332  0.5320  0.2398 -1.0265
 2772TIP3    H232512   4.626   8.091  16.369  1.9139  1.6213  0.2091
 2773TIP3   OH232513   5.399   7.506  17.001  0.3075 -0.3365 -0.3537
 2773TIP3    H132514   5.454   7.495  16.923  0.0690  0.2491 -0.6123
 2773TIP3    H232515   5.329   7.565  16.972 -1.9509 -3.0047 -0.8003
 2774TIP3   OH232516   5.053   5.435  17.761 -0.0393 -0.0396 -0.1382
 2774TIP3    H132517   4.980   5.495  17.746 -0.3057 -0.2392  0.3364
 2774TIP3    H232518   5.020   5.349  17.734 -0.3191 -0.2978  0.9938
 2775TIP3   OH232519   2.573   3.663  17.190  0.0736  0.5290  0.1218
 2775TIP3    H132520   2.626   3.602  17.137  0.8573  0.2909  1.1565
 2775TIP3    H232521   2.531   3.719  17.125 -0.4355 -0.9052 -0.8620
 2776TIP3   OH232522   3.657   4.826  17.735 -0.0691  0.0637 -0.1044
 2776TIP3    H132523   3.562   4.817  17.747 -1.0106  1.1678 -4.7427
 2776TIP3    H232524   3.668   4.918  17.709  2.0943 -0.3579 -0.8259
 2777TIP3   OH232525   8.138   6.389  16.950  0.3182 -0.4457  0.2560
 2777TIP3    H132526   8.087   6.447  17.007  1.9961  1.5031 -0.1102
 2777TIP3    H232527   8.119   6.301  16.983 -1.2003  0.3884  1.7863
 2778TIP3   OH232528   5.507   5.506  16.600 -0.3178  0.0675 -0.2749
 2778TIP3    H132529   5.554   5.512  16.683 -0.5875 -0.0996 -0.1066
 2778TIP3    H232530   5.469   5.594  16.588  0.2756  0.2868 -0.5578
 2779TIP3   OH232531   2.083   4.404  16.998  0.4532  0.3256 -0.1940
 2779TIP3    H132532   2.139   4.466  17.046  0.6466 -1.0509  1.4725
 2779TIP3    H232533   1.994   4.426  17.026  0.6499 -1.2816  1.9152
 2780TIP3   OH232534   0.225   5.343  15.732  0.3889  0.1599  0.5630
 2780TIP3    H132535   0.158   5.276  15.720  0.6997 -0.0880  0.1867
 2780TIP3    H232536   0.272   5.346  15.648  0.6531  0.5460  0.7189
 2781TIP3   OH232537   3.845   6.950  17.733 -0.4893  0.1434  0.0340
 2781TIP3    H132538   3.870   7.038  17.706 -0.4431  0.0447 -0.2416
 2781TIP3    H232539   3.755   6.939  17.700 -0.0713 -0.3547 -0.9754
 2782TIP3   OH232540   2.504   6.756  17.730  0.3233 -0.1505  0.2194
 2782TIP3    H132541   2.526   6.715  17.646 -0.3727 -0.8740  0.3839
 2782TIP3    H232542   2.487   6.683  17.789  0.6901  0.3585  0.9650
 2783TIP3   OH232543   5.002   3.914  16.941 -0.0644  0.5800 -0.0945
 2783TIP3    H132544   5.031   3.823  16.937 -2.0916 -0.0572 -1.5167
 2783TIP3    H232545   4.929   3.913  17.003 -0.1489  1.2426 -0.1766
 2784TIP3   OH232546   4.190   2.790  16.325  0.2027  0.0590 -0.0942
 2784TIP3    H132547   4.268   2.760  16.372 -0.6494  0.6659  1.8065
 2784TIP3    H232548   4.139   2.710  16.310  0.0477 -0.0419  0.8997
 2785TIP3   OH232549   2.655   0.446  16.455  0.1006 -0.3047 -0.1518
 2785TIP3    H132550   2.575   0.421  16.501  0.2347  0.9164  0.8060
 2785TIP3    H232551   2.723   0.391  16.495 -0.1213 -0.7473 -0.3759
 2786TIP3   OH232552   6.521   6.604  16.579  0.1127  0.0595  0.0963
 2786TIP3    H132553   6.527   6.697  16.599 -1.5130  0.0915  0.5174
 2786TIP3    H232554   6.455   6.570  16.640  0.1531 -1.2228 -0.5400
 2787TIP3   OH232555   6.273   6.289  16.871 -0.3257 -0.0491  0.2340
 2787TIP3    H132556   6.231   6.215  16.827 -0.6198 -0.6935  1.5797
 2787TIP3    H232557   6.210   6.316  16.938  0.9876 -0.4558  1.6869
 2788TIP3   OH232558   1.711   1.724  16.384 -0.7073  0.0523 -0.2275
 2788TIP3    H132559   1.748   1.736  16.471 -1.2108 -0.5770  0.0851
 2788TIP3    H232560   1.779   1.679  16.335 -0.1156  1.1245 -0.4030
 2789TIP3   OH232561   3.447   3.185  15.381  0.3263  0.1713  0.4134
 2789TIP3    H132562   3.491   3.141  15.308 -0.6750 -0.2032  0.0073
 2789TIP3    H232563   3.490   3.271  15.387  0.8556 -0.0403 -0.1933
 2790TIP3   OH232564   4.914   0.598  17.682 -0.2516  0.4696  0.2057
 2790TIP3    H132565   4.919   0.547  17.762  1.4663  0.5789  0.1878
 2790TIP3    H232566   4.997   0.646  17.678 -0.0415  0.0255 -1.9299
 2791TIP3   OH232567   0.535   2.012  16.121  0.8486 -0.0545  0.6393
 2791TIP3    H132568   0.613   2.067  16.119  1.0888 -0.4061 -0.4550
 2791TIP3    H232569   0.567   1.927  16.151  0.5613  0.2508  1.8728
 2792TIP3   OH232570   0.501   0.963  16.797  0.6021  0.2859  0.1978
 2792TIP3    H132571   0.531   1.041  16.844  0.3756 -0.9811  2.6269
 2792TIP3    H232572   0.582   0.917  16.773  0.7992 -0.9275  2.8350
 2793TIP3   OH232573   4.088   4.079  16.183 -0.1340 -0.1665 -0.2181
 2793TIP3    H132574   4.078   3.989  16.152  1.9323  0.3422 -2.7156
 2793TIP3    H232575   4.007   4.122  16.158 -0.0921 -0.7451 -1.4066
 2794TIP3   OH232576   5.969   4.761  16.953  0.2298 -0.4647  0.2078
 2794TIP3    H132577   5.919   4.839  16.927  0.3863 -0.1233  0.9028
 2794TIP3    H232578   6.048   4.796  16.993  0.1222 -0.9729  0.8765
 2795TIP3   OH232579   6.326   7.398  17.162 -0.1126  0.2244  0.2388
 2795TIP3    H132580   6.320   7.350  17.079 -0.9563 -1.5307  1.2521
 2795TIP3    H232581   6.236   7.399  17.196  0.4700 -0.5888  1.9142
 2796TIP3   OH232582   0.655   5.286  17.807  0.4880 -0.4154 -0.1132
 2796TIP3    H132583   0.669   5.192  17.818 -1.2264 -0.4556  2.9491
 2796TIP3    H232584   0.726   5.327  17.855 -0.0588 -0.2500  0.5808
 2797TIP3   OH232585   2.098   3.782  17.279  0.1319 -1.0625  0.8352
 2797TIP3    H132586   2.003   3.773  17.273  0.1192 -0.5334  0.1055
 2797TIP3    H232587   2.127   3.703  17.325 -0.9084  0.0542  3.6261
 2798TIP3   OH232588   2.205   8.356  17.432 -0.2387 -0.1117  0.0532
 2798TIP3    H132589   2.254   8.297  17.489  1.5964  0.6516 -0.6538
 2798TIP3    H232590   2.261   8.367  17.355 -2.4325 -0.7798 -1.7529
 2799TIP3   OH232591   0.025   6.338  16.356  0.1559 -0.3541 -0.4564
 2799TIP3    H132592   0.098   6.380  16.311 -0.0296 -1.1455 -1.5307
 2799TIP3    H232593   0.004   6.262  16.302 -1.3591 -0.2372 -0.0738
 2800TIP3   OH232594   0.453   7.053  16.254 -0.0519 -0.1795  0.0497
 2800TIP3    H132595   0.521   7.103  16.209  0.6529 -0.7748  0.4492
 2800TIP3    H232596   0.465   7.073  16.347  0.1575 -0.9971  0.2023
 2801TIP3   OH232597   5.384   1.606  16.183 -0.0877 -0.0578  0.2177
 2801TIP3    H132598   5.322   1.643  16.120  1.1627  0.1758 -0.8992
 2801TIP3    H232599   5.412   1.524  16.143 -0.1010 -0.4537  1.0000
 2802TIP3   OH232600   1.136   1.330  17.405  0.1900 -0.3939 -0.6248
 2802TIP3    H132601   1.081   1.319  17.327  0.1979  1.2274 -0.9001
 2802TIP3    H232602   1.087   1.392  17.459  1.4672  0.6358 -0.6134
 2803TIP3   OH232603   2.406   0.297  17.623  0.3244 -0.0273  0.1346
 2803TIP3    H132604   2.395   0.212  17.666 -1.3770 -0.5762 -1.2818
 2803TIP3    H232605   2.455   0.349  17.686  2.6460 -2.4507  0.5022
 2804TIP3   OH232606   3.713   5.768  17.841  0.3690 -0.2647  0.4410
 2804TIP3    H132607   3.739   5.848  17.886  0.7260  0.4731 -1.0441
 2804TIP3    H232608   3.621   5.756  17.866  0.3120  0.5905  0.6770
 2805TIP3   OH232609   1.264   6.684  17.400  0.1496  0.3315 -0.0265
 2805TIP3    H132610   1.291   6.592  17.404  0.2849  0.4161  1.6038
 2805TIP3    H232611   1.277   6.717  17.489 -1.2814  1.5503 -0.2311
 2806TIP3   OH232612   0.043   6.375  17.116 -0.4587 -0.1955 -0.4658
 2806TIP3    H132613   0.038   6.425  17.035 -0.2940 -0.9415 -0.9486
 2806TIP3    H232614   0.049   6.284  17.087 -0.7564 -0.4971  0.3916
 2807TIP3   OH232615   4.533   7.394  17.585  0.5326  0.1210  0.7668
 2807TIP3    H132616   4.483   7.435  17.515  0.7420 -0.7587  0.0827
 2807TIP3    H232617   4.469   7.342  17.634  0.3027  1.0755  1.5205
 2808TIP3   OH232618   5.762   3.149  17.465 -0.0905  0.1832 -0.3204
 2808TIP3    H132619   5.771   3.237  17.428  0.5075  0.8369  1.2656
 2808TIP3    H232620   5.667   3.136  17.474 -0.1583  1.0990  0.3803
 2809TIP3   OH232621   0.411   4.661  15.891  0.5504 -0.3728 -0.4988
 2809TIP3    H132622   0.429   4.590  15.830  0.0560 -1.1027  0.1854
 2809TIP3    H232623   0.328   4.699  15.860  1.6616  1.0861 -1.9046
 2810TIP3   OH232624   5.843   0.612  17.907 -0.5966  0.3044  0.3562
 2810TIP3    H132625   5.795   0.649  17.981  0.5022  2.6203  0.0093
 2810TIP3    H232626   5.802   0.653  17.830  2.0102  2.6739  0.0728
 2811TIP3   OH232627   4.717   0.263  16.456 -0.0839  0.6873  0.6504
 2811TIP3    H132628   4.676   0.325  16.516  1.7913  0.4693  2.2591
 2811TIP3    H232629   4.801   0.303  16.434  0.3344 -0.4156  0.1813
 2812TIP3   OH232630   8.064   1.731  17.318 -0.1896 -0.5276  0.4425
 2812TIP3    H132631   8.133   1.794  17.338  0.0144 -0.5662 -0.1215
 2812TIP3    H232632   8.008   1.776  17.254  0.2470 -1.0904 -0.3644
 2813TIP3   OH232633   5.728   6.695  16.542  0.4929 -0.0201 -0.4671
 2813TIP3    H132634   5.794   6.654  16.486  1.7285 -1.2098  1.7143
 2813TIP3    H232635   5.656   6.632  16.543  0.3033  0.1840 -1.0003
 2814TIP3   OH232636   5.227   7.637  16.052  0.0213 -0.3729 -0.4598
 2814TIP3    H132637   5.214   7.697  16.125  2.0361  0.9387 -1.0882
 2814TIP3    H232638   5.261   7.557  16.093 -1.1036 -0.5217  0.2238
 2815TIP3   OH232639   4.015   8.338  17.083 -0.0990 -0.3749  0.1735
 2815TIP3    H132640   4.056   8.288  17.013 -0.7582  0.3813 -0.7702
 2815TIP3    H232641   3.932   8.368  17.047  0.0548  0.9868  0.8625
 2816TIP3   OH232642   4.289   5.740  16.197 -1.2737 -0.3795 -0.3450
 2816TIP3    H132643   4.342   5.726  16.276 -2.1179 -0.7014  0.1802
 2816TIP3    H232644   4.345   5.793  16.140  0.3994 -2.3489 -0.6563
 2817TIP3   OH232645   1.910   5.621  17.737 -0.0243 -0.3900  0.0564
 2817TIP3    H132646   1.942   5.624  17.646 -0.2809  2.6209 -0.0443
 2817TIP3    H232647   1.916   5.529  17.761  3.2017 -0.8788 -1.9022
 2818TIP3   OH232648   8.081   4.652  16.164  0.1270  0.0099 -0.0926
 2818TIP3    H132649   8.061   4.731  16.114  1.1266 -0.1603 -0.7875
 2818TIP3    H232650   8.004   4.596  16.154 -0.1879  0.4964 -0.3946
 2819TIP3   OH232651   0.047   8.424  17.207 -0.4633  0.2168  0.2685
 2819TIP3    H132652   0.055   8.338  17.249 -1.1063  0.2950  0.5615
 2819TIP3    H232653   0.136   8.446  17.179 -0.0679  0.0333  1.3409
 2820TIP3   OH232654   4.593   0.314  16.211 -0.3850 -0.2029 -0.3590
 2820TIP3    H132655   4.651   0.280  16.280  0.4561  1.4344 -0.2037
 2820TIP3    H232656   4.632   0.283  16.129  0.0252 -0.1118 -0.1992
 2821TIP3   OH232657   1.762   0.658  16.907  0.4736 -0.4648  0.0646
 2821TIP3    H132658   1.758   0.741  16.860 -1.9570 -0.6800 -0.2228
 2821TIP3    H232659   1.766   0.591  16.839  2.5426 -0.6581  0.2920
 2822TIP3   OH232660   1.968   7.604  16.695 -0.9268 -0.0631 -0.4331
 2822TIP3    H132661   1.880   7.631  16.670 -1.2179 -1.8535 -1.4524
 2822TIP3    H232662   1.957   7.516  16.730  0.4891 -0.4069 -0.8098
 2823TIP3   OH232663   0.051   3.845  17.588 -0.1902 -0.5675 -0.5174
 2823TIP3    H132664   0.076   3.841  17.680  1.0968  1.4250 -0.7160
 2823TIP3    H232665  -0.045   3.838  17.588 -0.2367 -0.1495  1.0129
 2824TIP3   OH232666   0.809   0.369  16.796 -0.0911 -0.3301  0.0754
 2824TIP3    H132667   0.809   0.310  16.872 -0.1139 -0.4482 -0.0151
 2824TIP3    H232668   0.784   0.313  16.722  0.1330 -0.2579 -0.0545
 2825TIP3   OH232669   7.763   1.029  16.595  0.3535  0.5013  0.4072
 2825TIP3    H132670   7.772   0.937  16.619  1.2313 -0.0081 -1.6258
 2825TIP3    H232671   7.678   1.056  16.631  0.2275 -0.9915  1.2953
 2826TIP3   OH232672   3.422   5.846  16.753 -0.2648  0.4459 -0.0949
 2826TIP3    H132673   3.394   5.872  16.840  1.7291  0.0590  0.7151
 2826TIP3    H232674   3.455   5.926  16.713 -1.2578  0.6402 -0.5503
 2827TIP3   OH232675   6.738   6.815  16.887  0.0807  0.3209  0.2169
 2827TIP3    H132676   6.794   6.762  16.942  0.3709  0.7477  0.3336
 2827TIP3    H232677   6.756   6.785  16.798  0.8840  0.8095  0.2049
 2828TIP3   OH232678   3.006   6.940  17.271  0.3309 -0.1863  0.2004
 2828TIP3    H132679   3.088   6.902  17.239  1.3988  1.0801  1.3158
 2828TIP3    H232680   3.016   7.034  17.257 -0.9954 -0.0237  0.2299
 2829TIP3   OH232681   4.155   4.316  15.908 -0.3843  0.1880 -0.6361
 2829TIP3    H132682   4.061   4.298  15.895  0.0163 -2.1260 -0.7976
 2829TIP3    H232683   4.163   4.411  15.896 -2.9078  0.6719  0.7678
 2830TIP3   OH232684   3.610   4.697  17.306  0.5494  0.5098  0.5408
 2830TIP3    H132685   3.547   4.768  17.318  1.1044  1.0560  0.2422
 2830TIP3    H232686   3.583   4.630  17.370 -0.0603  0.9247  0.7230
 2831TIP3   OH232687   1.162   1.579  17.181  0.5901  0.2763  0.0796
 2831TIP3    H132688   1.119   1.494  17.186  0.9648  0.0405 -0.5515
 2831TIP3    H232689   1.099   1.640  17.219 -0.5358  0.0211 -1.2884
 2832TIP3   OH232690   4.100   2.986  17.453 -0.3097  0.3167 -0.4564
 2832TIP3    H132691   4.094   2.952  17.364 -0.3463 -1.4813  0.1936
 2832TIP3    H232692   4.192   2.980  17.475 -0.5112 -0.8105  0.1713
 2833TIP3   OH232693   7.259   1.560  17.385 -0.4638  0.5092  0.2344
 2833TIP3    H132694   7.171   1.546  17.420 -0.2620 -0.2072  0.4664
 2833TIP3    H232695   7.316   1.515  17.446 -0.0403 -0.1837 -0.6571
 2834TIP3   OH232696   7.520   2.979  16.464 -0.1791  0.3766 -0.6979
 2834TIP3    H132697   7.461   3.043  16.504 -0.0462 -0.0865  0.2672
 2834TIP3    H232698   7.461   2.910  16.432 -0.1451 -0.6076  1.2120
 2835TIP3   OH232699   0.725   3.732  17.952  0.1416 -0.2344  0.5653
 2835TIP3    H132700   0.757   3.758  18.038 -1.3060 -2.2410  1.7987
 2835TIP3    H232701   0.796   3.756  17.892  1.8193 -0.1060  2.4845
 2836TIP3   OH232702   6.706   6.616  17.347  0.2135 -0.5129 -0.6633
 2836TIP3    H132703   6.745   6.700  17.323  1.1625 -1.1647 -1.4362
 2836TIP3    H232704   6.626   6.640  17.394  0.5904  0.8247 -0.6632
 2837TIP3   OH232705   3.750   2.093  17.455  0.1350  0.3935 -0.3585
 2837TIP3    H132706   3.831   2.044  17.445  0.6770  0.9473  1.0489
 2837TIP3    H232707   3.778   2.183  17.470 -0.7288  0.5885  0.1791
 2838TIP3   OH232708   4.626   6.583  16.360 -0.4767 -0.4362 -0.0035
 2838TIP3    H132709   4.641   6.650  16.427 -0.0583  0.5544 -1.0587
 2838TIP3    H232710   4.636   6.630  16.277 -1.3452 -1.5636 -0.7631
 2839TIP3   OH232711   8.442   2.786  17.538  0.4764  0.9426  0.3113
 2839TIP3    H132712   8.534   2.795  17.565  0.3191  1.1542  0.7966
 2839TIP3    H232713   8.407   2.875  17.545  0.8779  1.4073 -2.3699
 2840TIP3   OH232714   4.934   2.587  16.847  0.7083  0.0824 -0.5298
 2840TIP3    H132715   4.905   2.567  16.936  1.2780 -0.1995 -0.4031
 2840TIP3    H232716   5.029   2.595  16.854  0.8644 -0.9499 -1.3120
 2841TIP3   OH232717   5.086   0.266  15.762 -0.1746  0.3197  0.0654
 2841TIP3    H132718   5.109   0.209  15.689 -2.0047 -0.2818 -0.0926
 2841TIP3    H232719   5.151   0.247  15.830  1.0550  0.2908 -1.0713
 2842TIP3   OH232720   3.982   5.593  16.938  0.0157  0.4433  0.0607
 2842TIP3    H132721   3.981   5.663  16.872  0.4385  1.6603  1.2927
 2842TIP3    H232722   3.994   5.639  17.021  2.4718 -1.2262  0.7305
 2843TIP3   OH232723   3.277   4.097  17.389  0.1510 -0.2322  0.2437
 2843TIP3    H132724   3.275   4.167  17.455 -1.9583 -0.4154  0.4343
 2843TIP3    H232725   3.247   4.139  17.309  1.6750 -0.2738 -0.3850
 2844TIP3   OH232726   4.935   6.822  15.539 -0.3779  0.6096  0.3069
 2844TIP3    H132727   4.860   6.769  15.511  1.0953 -1.1879 -0.4770
 2844TIP3    H232728   5.007   6.792  15.483  1.0816  1.8015  1.4727
 2845TIP3   OH232729   0.978   7.869  17.568  0.1168  0.2294  0.3176
 2845TIP3    H132730   0.994   7.792  17.513 -0.6920 -0.5516  1.1454
 2845TIP3    H232731   1.025   7.850  17.649 -1.2848 -0.0794  1.0813
 2846TIP3   OH232732   7.081   6.637  16.558  0.0935  0.1853  0.2222
 2846TIP3    H132733   7.026   6.651  16.480 -0.5742  0.0155  0.6547
 2846TIP3    H232734   7.158   6.591  16.524  0.2648  0.9651 -0.4931
 2847TIP3   OH232735   0.184   7.065  16.591  0.1639  0.1155 -0.1249
 2847TIP3    H132736   0.129   7.138  16.563 -0.1175 -0.2557 -0.5611
 2847TIP3    H232737   0.162   7.052  16.683 -1.0252 -0.4940 -0.4762
 2848TIP3   OH232738   0.444   1.876  17.170  0.1534 -0.1240 -0.2015
 2848TIP3    H132739   0.439   1.810  17.100  0.8266  1.3903 -1.7554
 2848TIP3    H232740   0.355   1.909  17.178  0.1690  0.0450 -0.7020
 2849TIP3   OH232741   2.371   0.808  15.733 -0.0407 -0.1851  0.0531
 2849TIP3    H132742   2.439   0.874  15.721 -0.2566  0.5615  2.5006
 2849TIP3    H232743   2.416   0.736  15.777 -0.9815  0.8606  2.9547
 2850TIP3   OH232744   8.386   3.433  16.399  0.2497 -0.0261 -0.0785
 2850TIP3    H132745   8.355   3.466  16.315 -0.3031 -0.6516 -0.1277
 2850TIP3    H232746   8.397   3.339  16.384  2.4574  0.1920 -0.1593
 2851TIP3   OH232747   2.086   8.023  15.768  0.0542  0.1552 -0.1309
 2851TIP3    H132748   2.178   7.997  15.766  0.5928  1.9697 -1.1235
 2851TIP3    H232749   2.039   7.948  15.729  1.1526 -0.5857 -0.0783
 2852TIP3   OH232750   0.336   5.487  16.794 -0.3762  0.3837  0.0614
 2852TIP3    H132751   0.247   5.504  16.826 -0.1477 -2.0524  2.3300
 2852TIP3    H232752   0.326   5.418  16.729 -0.2785  1.4660 -1.1402
 2853TIP3   OH232753   6.571   8.304  17.162  0.0536 -0.0108 -0.6387
 2853TIP3    H132754   6.506   8.342  17.103  0.6623  0.4036 -1.0583
 2853TIP3    H232755   6.642   8.277  17.105  1.2169  1.5492 -0.0053
 2854TIP3   OH232756   7.133   1.324  17.703  0.7314 -0.1420  0.1713
 2854TIP3    H132757   7.091   1.329  17.617  2.7210 -0.2016 -0.8583
 2854TIP3    H232758   7.111   1.237  17.735  0.3725 -0.3015 -0.4951
 2855TIP3   OH232759   0.568   2.579  16.188 -0.4255 -0.2484 -0.2895
 2855TIP3    H132760   0.512   2.525  16.244 -0.1521  1.1662  1.4352
 2855TIP3    H232761   0.657   2.551  16.210 -0.3253  0.1543 -0.1788
 2856TIP3   OH232762   5.896   7.026  16.687  0.2808  0.3980  0.0874
 2856TIP3    H132763   5.919   7.065  16.771 -1.8157  1.5605  0.1987
 2856TIP3    H232764   5.827   6.963  16.708  0.4296 -0.0311 -0.6689
 2857TIP3   OH232765   0.280   4.623  17.738  0.4156  0.0146 -0.1558
 2857TIP3    H132766   0.370   4.655  17.743  0.1656  0.5183  2.2699
 2857TIP3    H232767   0.287   4.538  17.694  1.7296  1.0765 -2.1288
 2858TIP3   OH232768   3.258   0.861  15.717  0.4303  0.3654 -0.2066
 2858TIP3    H132769   3.290   0.826  15.800 -3.6188 -0.5392  1.1963
 2858TIP3    H232770   3.296   0.803  15.651  3.2370  0.7251  0.9317
 2859TIP3   OH232771   1.680   0.320  16.327  0.2275  0.9038  0.2258
 2859TIP3    H132772   1.752   0.370  16.365  0.4653  0.4066  0.4406
 2859TIP3    H232773   1.634   0.283  16.402  0.6518 -0.0198  0.0426
 2860TIP3   OH232774   3.754   6.289  16.636  0.3206  0.2080  0.4895
 2860TIP3    H132775   3.727   6.360  16.578  0.9770 -0.6532 -0.9331
 2860TIP3    H232776   3.831   6.322  16.682 -0.5456  1.1084  1.3381
 2861TIP3   OH232777   2.286   0.745  16.867 -0.1911  0.4108  0.5561
 2861TIP3    H132778   2.291   0.675  16.933 -0.0931 -0.7390 -0.6196
 2861TIP3    H232779   2.326   0.706  16.789  1.6975  2.4739  0.4126
 2862TIP3   OH232780   4.799   1.827  16.210  0.2424 -0.0318  0.7227
 2862TIP3    H132781   4.743   1.750  16.219  1.3051 -0.7413  1.5170
 2862TIP3    H232782   4.855   1.807  16.135  0.6040 -0.0959  1.0065
 2863TIP3   OH232783   7.524   4.169  16.196 -0.6098  1.1020  0.2639
 2863TIP3    H132784   7.599   4.229  16.196 -0.6294  1.1437 -0.9572
 2863TIP3    H232785   7.559   4.088  16.233 -0.3442  1.5670  1.0655
 2864TIP3   OH232786   6.298   4.769  17.418  0.2156 -0.1992 -0.5703
 2864TIP3    H132787   6.307   4.825  17.341  0.8113 -1.8462 -1.7598
 2864TIP3    H232788   6.379   4.781  17.467 -0.0642  0.6709 -0.3077
 2865TIP3   OH232789   4.011   8.312  17.663 -0.4249  0.0881  0.5139
 2865TIP3    H132790   3.923   8.273  17.670 -1.8069  2.6585 -0.8129
 2865TIP3    H232791   4.025   8.322  17.569  0.1835  1.9266  0.7580
 2866TIP3   OH232792   1.930   4.659  17.642 -0.3558 -0.5932  0.2147
 2866TIP3    H132793   1.953   4.719  17.571  1.0157 -0.8884  0.3687
 2866TIP3    H232794   1.842   4.629  17.621 -1.0357  1.3629  0.0770
 2867TIP3   OH232795   0.802   7.252  16.575  0.4377  0.3876 -0.4391
 2867TIP3    H132796   0.769   7.214  16.657  1.0530  0.5905 -0.0899
 2867TIP3    H232797   0.796   7.180  16.512  3.9248 -1.2244  0.7896
 2868TIP3   OH232798   2.232   4.920  16.435  0.5259  0.0713  0.5519
 2868TIP3    H132799   2.222   4.875  16.351  1.6014 -0.8751  0.9046
 2868TIP3    H232800   2.217   5.012  16.415 -2.7758 -0.4746 -0.0159
 2869TIP3   OH232801   3.841   0.362  16.990  1.0922  0.4315 -0.0534
 2869TIP3    H132802   3.796   0.291  16.943  0.1551  1.5484 -0.9008
 2869TIP3    H232803   3.887   0.317  17.061  1.9511 -1.2316 -1.5656
 2870TIP3   OH232804   5.964   8.333  17.255  0.3319  0.3910 -0.3681
 2870TIP3    H132805   6.050   8.292  17.246  1.0219  2.0075 -1.7565
 2870TIP3    H232806   5.904   8.272  17.212  0.6666 -1.0018  1.0638
 2871TIP3   OH232807   6.935   7.509  16.557  0.3174  0.5467 -0.7524
 2871TIP3    H132808   6.905   7.420  16.540  1.0756  0.0081  0.6118
 2871TIP3    H232809   6.880   7.564  16.500 -2.7838 -0.4225  1.0357
 2872TIP3   OH232810   1.982   5.478  17.245  0.4105  0.0299  0.3722
 2872TIP3    H132811   1.939   5.425  17.177 -0.3668  1.5496 -0.3730
 2872TIP3    H232812   1.966   5.569  17.218  0.7494  0.6679  2.2010
 2873TIP3   OH232813   2.884   1.324  16.233  0.4242  0.1817  0.6529
 2873TIP3    H132814   2.960   1.370  16.198 -0.3242  1.3849  0.5202
 2873TIP3    H232815   2.812   1.387  16.225 -0.2507 -0.3072  2.2766
 2874TIP3   OH232816   7.410   1.914  15.702 -0.5182 -0.8961 -0.0687
 2874TIP3    H132817   7.426   1.905  15.608 -0.9607 -1.9260 -0.0668
 2874TIP3    H232818   7.491   1.883  15.743 -0.0278  0.3014 -0.1064
 2875TIP3   OH232819   0.493   3.489  17.379 -0.4731  0.3348 -0.0130
 2875TIP3    H132820   0.494   3.585  17.382 -0.5126  0.3283  0.2063
 2875TIP3    H232821   0.479   3.468  17.287 -0.6172  0.5408 -0.0381
 2876TIP3   OH232822   2.737   2.389  17.604  0.3091  0.7406 -0.3147
 2876TIP3    H132823   2.668   2.420  17.546  0.0800 -0.1374 -0.5284
 2876TIP3    H232824   2.761   2.303  17.569 -0.7764 -0.4231  1.6633
 2877TIP3   OH232825   4.289   6.561  16.367 -0.3256  0.1884 -0.4318
 2877TIP3    H132826   4.280   6.498  16.439 -1.8708  1.4991  0.5972
 2877TIP3    H232827   4.340   6.514  16.301 -2.2541 -2.5366 -0.1764
 2878TIP3   OH232828   7.912   4.205  16.097 -0.1000  0.0593 -0.3304
 2878TIP3    H132829   7.903   4.240  16.008 -2.0110 -0.0789 -0.2367
 2878TIP3    H232830   7.841   4.247  16.146  0.0806 -0.9013  0.7868
 2879TIP3   OH232831   1.562   2.219  17.295 -0.4871 -0.3631  0.3834
 2879TIP3    H132832   1.526   2.302  17.327  0.4392 -0.2383  1.1417
 2879TIP3    H232833   1.569   2.230  17.201 -1.3038  0.0440  0.3571
 2880TIP3   OH232834   0.795   6.922  16.650 -0.3149  0.1234  0.1277
 2880TIP3    H132835   0.830   6.956  16.568 -1.9479  1.2939 -0.1375
 2880TIP3    H232836   0.702   6.905  16.631 -0.5195 -0.3917  1.4911
 2881TIP3   OH232837   1.370   8.338  15.745 -0.4204  0.0494 -0.2465
 2881TIP3    H132838   1.349   8.431  15.748  1.3443  0.4436  1.2463
 2881TIP3    H232839   1.357   8.307  15.834 -0.2570 -0.9639 -0.5603
 2882TIP3   OH232840   5.564   4.431  15.763 -0.7195 -0.2137  0.0213
 2882TIP3    H132841   5.551   4.510  15.710  0.1553 -0.2047 -0.1931
 2882TIP3    H232842   5.483   4.422  15.813 -1.0210  0.5416 -0.3186
 2883TIP3   OH232843   6.017   8.445  16.713  0.2980 -0.1522 -0.6531
 2883TIP3    H132844   6.071   8.491  16.649  1.2246  0.7046  0.6827
 2883TIP3    H232845   6.078   8.389  16.761 -0.2369 -0.2030 -0.0061
 2884TIP3   OH232846   6.086   8.033  18.166 -0.2915 -0.1663 -0.2399
 2884TIP3    H132847   6.012   7.971  18.170  0.4421 -1.0023  1.0189
 2884TIP3    H232848   6.163   7.977  18.157  0.3551  0.5977  0.4363
 2885TIP3   OH232849   3.261   3.948  16.368 -0.2164  0.2757 -0.2406
 2885TIP3    H132850   3.224   3.993  16.443  1.2785 -0.2749  0.8875
 2885TIP3    H232851   3.218   3.863  16.367 -1.0918  0.7156 -0.7392
 2886TIP3   OH232852   0.242   1.986  15.629  0.5640  0.2635 -0.0130
 2886TIP3    H132853   0.259   1.891  15.628  0.6253  0.2665  0.3924
 2886TIP3    H232854   0.158   1.994  15.674 -0.3175  0.2797 -1.5977
 2887TIP3   OH232855   6.943   6.873  17.692  0.3125  0.5827 -0.1624
 2887TIP3    H132856   6.852   6.898  17.677  0.5694  1.7203  0.0212
 2887TIP3    H232857   6.993   6.952  17.670  0.9145  1.6796  4.1674
 2888TIP3   OH232858   0.218   0.996  16.475  0.9963  0.1417  0.1255
 2888TIP3    H132859   0.251   0.906  16.467  1.0969  0.2459 -0.7998
 2888TIP3    H232860   0.124   0.989  16.455  0.8123  0.1145  0.9612
 2889TIP3   OH232861   1.864   3.811  16.692 -0.1244 -0.6806  0.6376
 2889TIP3    H132862   1.934   3.874  16.712 -2.0658  1.6210  0.5678
 2889TIP3    H232863   1.867   3.748  16.764  0.4800  0.7684  1.9319
 2890TIP3   OH232864   3.491   4.465  17.055 -0.0746 -0.1608 -0.1833
 2890TIP3    H132865   3.550   4.522  17.004 -0.2091 -1.2707 -1.6621
 2890TIP3    H232866   3.433   4.525  17.100  0.3271  0.9086 -1.0326
 2891TIP3   OH232867   8.394   6.177  17.789  0.1050 -0.2105 -0.5760
 2891TIP3    H132868   8.341   6.114  17.741  1.1355  0.3983 -2.6525
 2891TIP3    H232869   8.335   6.250  17.807  0.2260  0.5943 -3.1358
 2892TIP3   OH232870   1.942   5.173  17.453  0.0461 -0.5408  0.2819
 2892TIP3    H132871   1.857   5.184  17.410  0.4204 -3.5167 -1.5547
 2892TIP3    H232872   2.004   5.213  17.392  0.1865 -1.0896  0.0496
 2893TIP3   OH232873   8.131   4.373  16.764  0.1713  0.2933 -0.5165
 2893TIP3    H132874   8.109   4.318  16.689 -2.5890  1.0345 -0.3310
 2893TIP3    H232875   8.213   4.416  16.739  1.7782 -2.8405 -1.1766
 2894TIP3   OH232876   2.190   8.171  16.959  0.4562  0.0344  0.3529
 2894TIP3    H132877   2.255   8.164  16.889  0.5020  0.5484  0.3385
 2894TIP3    H232878   2.239   8.159  17.040  0.7453  1.3174  0.3974
 2895TIP3   OH232879   7.514   0.300  17.654 -0.2683  0.2346  0.1595
 2895TIP3    H132880   7.606   0.284  17.637  0.3740  0.9543  2.5650
 2895TIP3    H232881   7.472   0.293  17.568  1.7814 -1.4656 -0.7900
 2896TIP3   OH232882   5.204   0.916  16.416  0.5606 -0.0605 -0.0740
 2896TIP3    H132883   5.300   0.923  16.419  0.6131 -0.8020  0.0442
 2896TIP3    H232884   5.181   0.865  16.493  0.0983 -0.2079 -0.3065
 2897TIP3   OH232885   5.559   5.794  16.902  0.1997  0.2503 -0.7281
 2897TIP3    H132886   5.472   5.758  16.918  0.8111 -0.0926  2.5402
 2897TIP3    H232887   5.555   5.883  16.937  1.4821 -0.2351  0.7800
 2898TIP3   OH232888   3.082   3.927  16.962 -0.0270  0.0821  0.0070
 2898TIP3    H132889   3.020   3.874  16.912  0.8652 -2.2214  1.1687
 2898TIP3    H232890   3.148   3.864  16.992  2.0984  2.1931  0.0226
 2899TIP3   OH232891   8.065   7.501  17.492  0.0907 -0.0019  0.2963
 2899TIP3    H132892   8.039   7.558  17.419  0.1835  0.4603  0.6209
 2899TIP3    H232893   8.049   7.554  17.570 -2.4565 -1.3950  0.8015
 2900TIP3   OH232894   6.920   1.655  17.580  0.2268  0.1407  0.1009
 2900TIP3    H132895   6.860   1.720  17.542 -0.6753 -1.7113 -1.8133
 2900TIP3    H232896   6.994   1.708  17.611 -0.4483  2.1098 -1.3750
 2901TIP3   OH232897   5.735   7.718  16.731  0.0226 -0.0652  0.6206
 2901TIP3    H132898   5.781   7.716  16.816 -1.2638 -0.2054  1.3409
 2901TIP3    H232899   5.707   7.809  16.721  1.0743  0.1925 -0.1871
 2902TIP3   OH232900   0.604   2.274  15.569  0.8167  0.0688  0.2242
 2902TIP3    H132901   0.521   2.262  15.523  1.3430  2.0185 -1.4238
 2902TIP3    H232902   0.657   2.199  15.543 -0.3419 -1.1386  1.2097
 2903TIP3   OH232903   7.833   1.618  16.636 -0.3577  0.2122 -0.7424
 2903TIP3    H132904   7.841   1.709  16.662 -1.1369  0.5413 -1.5950
 2903TIP3    H232905   7.745   1.611  16.599 -0.6761 -1.1057  0.1524
 2904TIP3   OH232906   3.744   0.129  17.168  0.1657  0.0162 -0.3679
 2904TIP3    H132907   3.815   0.128  17.232  0.1846 -1.8281 -0.3708
 2904TIP3    H232908   3.671   0.171  17.215  0.7114  0.3135  0.2349
 2905TIP3   OH232909   7.565   1.630  15.978 -0.2013 -0.0403 -0.2827
 2905TIP3    H132910   7.605   1.684  15.911  0.3598 -1.0413 -0.7840
 2905TIP3    H232911   7.472   1.649  15.972 -0.1755 -0.2011 -1.4503
 2906TIP3   OH232912   2.084   6.124  17.847 -0.3426 -0.0517  0.0699
 2906TIP3    H132913   2.099   6.195  17.909  0.6590  0.6619 -0.9590
 2906TIP3    H232914   1.990   6.126  17.830 -0.7178 -0.5588  1.8778
 2907TIP3   OH232915   5.384   5.295  17.205  0.2941  0.0548 -0.2065
 2907TIP3    H132916   5.347   5.269  17.121  0.1937 -0.0381 -0.1335
 2907TIP3    H232917   5.452   5.229  17.223 -1.5988 -1.6509  1.1386
 2908TIP3   OH232918   7.954   5.671  15.875  0.4004 -0.6184  0.3893
 2908TIP3    H132919   7.914   5.681  15.788  0.6216 -1.5295  0.1742
 2908TIP3    H232920   8.013   5.746  15.883 -1.2312  0.6945  0.6662
 2909TIP3   OH232921   7.606   1.080  17.317 -0.0682 -0.4241 -0.0455
 2909TIP3    H132922   7.546   1.150  17.294  1.4479  0.8576 -0.2160
 2909TIP3    H232923   7.679   1.089  17.256  1.8672  0.1616  2.2003
 2910TIP3   OH232924   0.638   3.497  16.822  0.4989  0.3908 -0.4619
 2910TIP3    H132925   0.641   3.585  16.860 -0.0885  0.3642 -0.3396
 2910TIP3    H232926   0.729   3.466  16.826  0.3795  0.1312  1.5663
 2911TIP3   OH232927   0.729   6.542  17.050  0.3033 -0.0619  0.0715
 2911TIP3    H132928   0.635   6.524  17.050  0.3875 -0.5670  0.8554
 2911TIP3    H232929   0.758   6.518  17.139  1.5639 -1.9415 -0.7820
 2912TIP3   OH232930   0.906   3.624  15.554 -0.7654 -0.2543  0.5274
 2912TIP3    H132931   0.848   3.697  15.529 -1.9728 -1.4309 -0.2965
 2912TIP3    H232932   0.966   3.614  15.480 -1.2128 -0.6681  0.2099
 2913TIP3   OH232933   0.673   8.420  16.921  0.1092  0.1049 -0.1577
 2913TIP3    H132934   0.715   8.506  16.917 -2.5553  1.4943 -0.1900
 2913TIP3    H232935   0.633   8.408  16.835 -1.0055 -0.3467  0.3974
 2914TIP3   OH232936   3.185   3.845  17.434  0.2193 -0.1572 -0.1546
 2914TIP3    H132937   3.237   3.924  17.446  0.2177  0.5608 -3.7054
 2914TIP3    H232938   3.095   3.877  17.424 -0.6153 -1.1385  2.9494
 2915TIP3   OH232939   5.940   5.785  16.932 -0.6170 -0.3306 -0.2253
 2915TIP3    H132940   6.026   5.819  16.909 -0.5221 -0.2523  0.2256
 2915TIP3    H232941   5.884   5.862  16.938 -0.3995 -0.2322  0.8107
 2916TIP3   OH232942   1.201   2.716  16.057  0.3318  0.1573 -0.3249
 2916TIP3    H132943   1.164   2.630  16.076  1.4882 -1.1094 -3.1879
 2916TIP3    H232944   1.277   2.723  16.115 -0.4078 -0.2414  0.7137
 2917TIP3   OH232945   5.817   6.288  16.893 -0.3721  0.2248 -0.1203
 2917TIP3    H132946   5.779   6.338  16.965  0.0801  0.9885 -0.3968
 2917TIP3    H232947   5.798   6.340  16.815 -2.2609 -1.3850 -0.7893
 2918TIP3   OH232948   7.016   1.858  16.467 -0.9333  0.2932 -0.4222
 2918TIP3    H132949   7.060   1.929  16.420  0.3936  0.1757  0.5670
 2918TIP3    H232950   7.006   1.788  16.402  1.4988 -0.1309 -0.4287
 2919TIP3   OH232951   6.566   6.595  15.719 -0.1526  0.1915  0.0124
 2919TIP3    H132952   6.491   6.574  15.774 -0.5006  2.2212  0.4007
 2919TIP3    H232953   6.578   6.689  15.730  0.7219  0.4009 -2.1973
 2920TIP3   OH232954   4.599   5.772  17.278  0.7705  0.2836  0.4997
 2920TIP3    H132955   4.590   5.690  17.327 -0.8648 -1.5127 -2.5104
 2920TIP3    H232956   4.687   5.768  17.240  0.4906 -0.4129 -0.1061
 2921TIP3   OH232957   1.208   3.393  16.834 -0.3793 -0.2419 -0.3789
 2921TIP3    H132958   1.181   3.325  16.771 -0.5925  0.3785 -0.9732
 2921TIP3    H232959   1.302   3.400  16.822 -0.5878  0.7911 -1.5878
 2922TIP3   OH232960   4.235   0.646  16.405 -0.3249 -0.0459 -0.0092
 2922TIP3    H132961   4.211   0.673  16.316  0.4940 -1.2029 -0.6074
 2922TIP3    H232962   4.322   0.608  16.396 -0.1608 -0.0245  1.3250
 2923TIP3   OH232963   2.266   6.637  16.864 -0.2248  0.7687  0.1762
 2923TIP3    H132964   2.289   6.671  16.951 -1.1434  0.1524  0.6666
 2923TIP3    H232965   2.301   6.703  16.803  1.4327  0.6505  0.9446
 2924TIP3   OH232966   6.937   7.400  16.182  0.4698 -0.2298 -0.6271
 2924TIP3    H132967   6.988   7.321  16.163  0.1393 -1.2402  2.2038
 2924TIP3    H232968   6.851   7.367  16.208  0.4564  0.9841  1.0441
 2925TIP3   OH232969   6.528   0.625  16.430  0.7259 -0.0753  0.1122
 2925TIP3    H132970   6.610   0.657  16.394  1.1624 -1.8765 -0.6023
 2925TIP3    H232971   6.551   0.542  16.473 -0.4368  0.2149  1.3779
 2926TIP3   OH232972   1.175   1.246  15.497 -0.1398 -0.2712 -0.5588
 2926TIP3    H132973   1.222   1.203  15.568 -0.2333  0.6701  0.1003
 2926TIP3    H232974   1.153   1.176  15.436 -0.7083 -1.2307  0.7059
 2927TIP3   OH232975   8.214   1.766  15.679  0.1933 -0.3521 -0.6318
 2927TIP3    H132976   8.139   1.708  15.668 -0.6713  0.6030  0.0210
 2927TIP3    H232977   8.255   1.769  15.592 -0.6924 -0.6512 -1.0732
 2928TIP3   OH232978   4.327   1.141  17.440  0.2481 -0.4204  0.2094
 2928TIP3    H132979   4.368   1.205  17.382  0.5162 -1.1171 -0.4014
 2928TIP3    H232980   4.390   1.128  17.511  0.6232 -0.6981 -0.1663
 2929TIP3   OH232981   8.366   5.038  17.913  0.1057  0.4504 -0.0559
 2929TIP3    H132982   8.450   4.999  17.892  0.2447  0.8326 -0.2235
 2929TIP3    H232983   8.302   4.968  17.900  0.2999  0.4028 -0.7748
 2930TIP3   OH232984   3.757   0.943  16.118  0.0509  0.0249  0.2751
 2930TIP3    H132985   3.681   0.978  16.164 -0.8565  0.0401 -1.1666
 2930TIP3    H232986   3.748   0.848  16.126 -0.6538 -0.0057 -0.6583
 2931TIP3   OH232987   5.731   3.321  16.124 -0.2892 -0.2695 -0.1105
 2931TIP3    H132988   5.714   3.266  16.047  0.6169 -1.3531  0.4334
 2931TIP3    H232989   5.662   3.387  16.122  0.3525  0.4189 -2.4680
 2932TIP3   OH232990   0.921   4.048  17.140 -0.1053 -0.1772 -0.3087
 2932TIP3    H132991   0.996   4.085  17.093 -0.3486 -0.2805 -0.7876
 2932TIP3    H232992   0.855   4.033  17.072 -0.6021  0.0076  0.1199
 2933TIP3   OH232993   6.147   1.807  17.273  0.0647 -0.0320 -0.2049
 2933TIP3    H132994   6.225   1.843  17.314  0.6092 -0.2679 -0.9994
 2933TIP3    H232995   6.172   1.794  17.181 -0.4843 -1.3090 -0.2003
 2934TIP3   OH232996   2.079   4.034  16.455  0.1753  0.6703 -0.2810
 2934TIP3    H132997   1.993   4.070  16.437  0.2590  1.5797  1.0085
 2934TIP3    H232998   2.067   3.939  16.452 -1.1133  0.7736  0.9134
 2935TIP3   OH232999   0.193   7.625  17.604 -0.2228 -0.9682  0.8573
 2935TIP3    H133000   0.241   7.550  17.570  2.2815  0.8116  0.1071
 2935TIP3    H233001   0.220   7.631  17.696 -0.0141 -0.7454  0.7860
 2936TIP3   OH233002   0.091   7.044  17.886  0.4709 -0.0237 -0.2157
 2936TIP3    H133003   0.157   7.060  17.819 -2.0241 -1.8714 -3.3752
 2936TIP3    H233004   0.117   6.961  17.926 -0.5459 -1.4931 -2.4400
 2937TIP3   OH233005   3.358   1.322  16.752 -0.4657  0.3077  0.3148
 2937TIP3    H133006   3.426   1.351  16.692 -0.8212 -1.0782 -0.8047
 2937TIP3    H233007   3.399   1.253  16.804 -0.7350  0.1190  0.2820
 2938TIP3   OH233008   0.209   3.086  17.879  0.1727  0.2163 -0.2229
 2938TIP3    H133009   0.166   3.168  17.904 -0.5619  0.1480 -1.2325
 2938TIP3    H233010   0.149   3.044  17.818  0.5109 -1.1181  0.3214
 2939TIP3   OH233011   2.872   7.045  15.735 -0.2727  0.0231 -0.1768
 2939TIP3    H133012   2.927   7.123  15.743  0.4519 -0.5026  0.0739
 2939TIP3    H233013   2.918   6.989  15.672 -1.3136  0.2253 -1.1438
 2940TIP3   OH233014   0.683   7.030  17.067  0.1629  0.2143  0.2258
 2940TIP3    H133015   0.636   7.000  17.145  0.6316 -0.2628  0.3263
 2940TIP3    H233016   0.775   7.032  17.093  0.4544 -0.9846 -0.6224
 2941TIP3   OH233017   7.559   2.971  17.429 -0.7889 -0.0644  0.0598
 2941TIP3    H133018   7.483   2.963  17.485  0.1266  0.6236  1.4481
 2941TIP3    H233019   7.575   3.065  17.422 -0.5303 -0.1629 -0.8676
 2942TIP3   OH233020   6.379   3.767  17.154 -0.1512  0.1221  0.3830
 2942TIP3    H133021   6.431   3.837  17.193  0.2700  0.0655 -0.0642
 2942TIP3    H233022   6.315   3.812  17.099 -1.4600  0.2599  1.9260
 2943TIP3   OH233023   7.143   7.810  16.055  0.6439 -0.0363 -0.4130
 2943TIP3    H133024   7.086   7.736  16.034 -1.2446  1.5826 -1.3531
 2943TIP3    H233025   7.219   7.799  15.998  0.9785 -1.8334  0.3065
 2944TIP3   OH233026   4.028   4.225  17.090  0.4962 -0.0458 -0.1593
 2944TIP3    H133027   3.946   4.261  17.054  0.1458 -0.4693  0.2079
 2944TIP3    H233028   4.001   4.146  17.138  1.3050 -0.9957 -1.2349
 2945TIP3   OH233029   8.073   2.902  17.450  0.2744  0.6491 -0.1205
 2945TIP3    H133030   8.112   2.984  17.420  0.1490  0.9466  0.4982
 2945TIP3    H233031   8.012   2.929  17.519  0.3517  0.0225  0.1984
 2946TIP3   OH233032   0.388   7.427  17.700  0.1552  0.2925 -0.2817
 2946TIP3    H133033   0.458   7.422  17.635  1.1921 -0.9758  0.8866
 2946TIP3    H233034   0.426   7.478  17.772 -0.5960  0.7148 -0.1677
 2947TIP3   OH233035   6.662   7.723  16.675 -0.1913  0.3761  0.4041
 2947TIP3    H133036   6.643   7.649  16.734  1.8947 -1.0740 -0.6026
 2947TIP3    H233037   6.748   7.755  16.705 -1.4467  3.1024  1.4181
 2948TIP3   OH233038   2.318   2.287  17.587  0.0942 -0.2791 -0.1821
 2948TIP3    H133039   2.377   2.299  17.662 -0.8028  3.1279  0.1499
 2948TIP3    H233040   2.376   2.289  17.511  0.6232  1.6746  0.2134
 2949TIP3   OH233041   3.370   1.054  15.569 -0.2289  0.0439  0.5418
 2949TIP3    H133042   3.462   1.055  15.594 -0.3058 -0.8627  0.8973
 2949TIP3    H233043   3.336   0.973  15.607 -0.5548 -0.9700 -1.7935
 2950TIP3   OH233044   2.796   0.563  16.227  0.2959  0.7029 -0.1086
 2950TIP3    H133045   2.862   0.494  16.223  0.6669  1.0947 -0.9643
 2950TIP3    H233046   2.738   0.536  16.299  0.7454 -0.2100 -0.0695
 2951TIP3   OH233047   0.963   1.825  16.644 -0.0809  0.6035  0.2434
 2951TIP3    H133048   0.986   1.830  16.736  0.7883 -1.1908  0.1615
 2951TIP3    H233049   1.045   1.844  16.598 -0.1034 -0.1811 -0.1290
 2952TIP3   OH233050   7.297   7.093  17.138 -0.1319  0.2463  0.0206
 2952TIP3    H133051   7.325   7.033  17.208 -1.0406 -4.0456 -2.8927
 2952TIP3    H233052   7.378   7.122  17.097  0.3305 -0.8823  0.1043
 2953TIP3   OH233053   5.219   5.956  16.437 -0.9025 -0.4344  0.1815
 2953TIP3    H133054   5.182   5.977  16.351  0.2754  3.1460  0.4154
 2953TIP3    H233055   5.171   6.011  16.498  0.8550 -0.0553  1.2718
 2954TIP3   OH233056   7.259   3.941  16.228 -0.2121 -0.4474  0.3485
 2954TIP3    H133057   7.203   3.959  16.152  0.8877  1.2594 -0.1073
 2954TIP3    H233058   7.338   3.902  16.189  0.6845  1.1562  0.4883
 2955TIP3   OH233059   4.446   7.501  17.174  0.0898  0.3327 -0.6255
 2955TIP3    H133060   4.466   7.547  17.256  0.3350 -1.3078  0.2714
 2955TIP3    H233061   4.398   7.423  17.202  0.6216 -0.5180 -2.0129
 2956TIP3   OH233062   0.161   5.766  15.818  0.4019 -0.3052 -0.0511
 2956TIP3    H133063   0.075   5.747  15.781 -0.0595  0.1525  0.7839
 2956TIP3    H233064   0.221   5.712  15.766 -0.2590  0.0993 -1.2756
 2957TIP3   OH233065   2.886   3.445  15.574  0.1519 -0.4470  0.1495
 2957TIP3    H133066   2.852   3.532  15.595 -0.0772 -0.7844  1.2200
 2957TIP3    H233067   2.832   3.415  15.501  1.0741  0.8206 -1.0998
 2958TIP3   OH233068   5.502   7.309  17.172 -0.2175 -0.0922  0.4370
 2958TIP3    H133069   5.483   7.351  17.256  2.4983  2.3797 -0.0068
 2958TIP3    H233070   5.471   7.371  17.106  0.9024 -0.2904 -0.3111
 2959TIP3   OH233071   5.200   3.432  17.067  0.2868  0.2672  0.6470
 2959TIP3    H133072   5.108   3.409  17.055  0.3418  0.7315 -0.9817
 2959TIP3    H233073   5.199   3.503  17.131 -0.4313 -0.0625  1.0160
 2960TIP3   OH233074   8.177   4.914  17.588  0.1393 -0.3145 -0.1528
 2960TIP3    H133075   8.238   4.886  17.656  0.9981 -0.2659 -0.8851
 2960TIP3    H233076   8.113   4.968  17.634  1.6017  1.0291  0.3849
 2961TIP3   OH233077   7.737   1.932  16.637 -0.1367 -0.4460  0.5127
 2961TIP3    H133078   7.644   1.948  16.654 -0.1970  0.9270 -0.8570
 2961TIP3    H233079   7.756   1.983  16.558  2.0457  0.2655  1.4182
 2962TIP3   OH233080   5.919   0.334  16.538 -0.2321  0.0756 -0.0988
 2962TIP3    H133081   6.008   0.337  16.573 -0.2454  1.5655 -0.1529
 2962TIP3    H233082   5.867   0.295  16.609  0.4077 -0.6029  0.0098
 2963TIP3   OH233083   4.820   1.266  16.613 -0.0198  0.1813  0.1050
 2963TIP3    H133084   4.845   1.220  16.533 -2.2237  1.8381 -1.6169
 2963TIP3    H233085   4.752   1.211  16.652  1.7889 -1.1956  1.5739
 2964TIP3   OH233086   4.243   8.007  16.086 -0.3253 -0.0332  0.3361
 2964TIP3    H133087   4.247   8.096  16.051  0.0041 -1.0068 -2.3386
 2964TIP3    H233088   4.208   7.954  16.013 -0.0138 -2.1710  1.6587
 2965TIP3   OH233089   7.718   1.303  16.126  0.1329 -0.4340  0.5484
 2965TIP3    H133090   7.790   1.290  16.188 -0.1524 -2.8618  0.4553
 2965TIP3    H233091   7.758   1.289  16.040 -0.1181 -0.2086  0.3957
 2966TIP3   OH233092   3.261   7.892  15.894 -0.4190 -0.5882  0.0749
 2966TIP3    H133093   3.257   7.923  15.985 -2.1655  2.4080 -0.8686
 2966TIP3    H233094   3.355   7.892  15.873 -0.0365 -0.7486  1.6801
 2967TIP3   OH233095   2.090   3.446  17.286  0.0402  0.6201  0.1043
 2967TIP3    H133096   2.085   3.474  17.378 -0.7848  1.6174 -0.2291
 2967TIP3    H233097   2.181   3.461  17.262  0.8901 -1.8423  1.3992
 2968TIP3   OH233098   3.676   5.841  16.539 -0.1378  0.5682 -0.0621
 2968TIP3    H133099   3.702   5.892  16.616 -0.0180  0.0529  0.2443
 2968TIP3    H233100   3.648   5.757  16.575  1.3597 -0.2457 -0.6872
 2969TIP3   OH233101   7.411   1.454  16.755  0.3853  0.1632 -0.0216
 2969TIP3    H133102   7.363   1.387  16.705  0.1653  0.6023 -0.4067
 2969TIP3    H233103   7.407   1.423  16.846 -0.5490  0.1404 -0.0590
 2970TIP3   OH233104   6.091   7.414  16.321 -0.1522 -0.1235  0.5804
 2970TIP3    H133105   6.034   7.491  16.320  1.0866  0.8281 -0.5265
 2970TIP3    H233106   6.121   7.406  16.231  1.2490 -0.7598  1.0805
 2971TIP3   OH233107   0.047   8.342  15.739  0.0697 -0.0872  0.6305
 2971TIP3    H133108  -0.038   8.298  15.730 -0.3163  0.7512 -0.0107
 2971TIP3    H233109   0.025   8.427  15.777  0.6194  0.1458  0.4383
 2972TIP3   OH233110   5.310   5.335  16.510  0.7114  0.0401  0.1432
 2972TIP3    H133111   5.272   5.280  16.578 -0.8544  1.1497  0.2142
 2972TIP3    H233112   5.379   5.384  16.554  2.8278 -2.4545 -0.1253
 2973TIP3   OH233113   7.653   0.116  16.004  0.2540 -0.8616 -0.0616
 2973TIP3    H133114   7.700   0.165  15.937 -1.4161 -0.0085 -0.6572
 2973TIP3    H233115   7.595   0.180  16.045  0.0547 -1.7385  1.0723
 2974TIP3   OH233116   8.199   5.698  17.569  0.8821  0.3658 -0.3541
 2974TIP3    H133117   8.162   5.639  17.634 -0.1229  2.1325  0.7435
 2974TIP3    H233118   8.193   5.650  17.486  0.0908 -1.0434  0.4993
 2975TIP3   OH233119   1.074   8.266  15.996  0.3034  0.2253 -0.4128
 2975TIP3    H133120   1.144   8.201  15.995  0.9205  0.8711 -1.6843
 2975TIP3    H233121   1.011   8.232  16.060  1.9675 -0.1543  1.1376
 2976TIP3   OH233122   4.022   5.918  16.511 -0.0379  0.6856  0.0737
 2976TIP3    H133123   3.948   5.952  16.459 -0.6608 -0.8963 -0.1403
 2976TIP3    H233124   4.097   5.968  16.481 -0.9964  2.2913  0.2351
 2977TIP3   OH233125   7.087   4.776  17.477 -0.6783  0.2302  0.1687
 2977TIP3    H133126   7.129   4.698  17.513 -1.1275  0.4146  1.1357
 2977TIP3    H233127   7.030   4.743  17.408 -2.0476 -0.5197  1.5859
 2978TIP3   OH233128   0.349   0.883  17.123  0.2933  0.2154 -0.0317
 2978TIP3    H133129   0.360   0.911  17.032  0.8233 -3.2761 -1.1967
 2978TIP3    H233130   0.436   0.893  17.161  0.1266  1.4586  0.0817
 2979TIP3   OH233131   5.627   6.876  16.361 -0.3359  0.5815 -0.0763
 2979TIP3    H133132   5.704   6.876  16.303 -0.9217 -0.6681 -0.8969
 2979TIP3    H233133   5.648   6.812  16.429 -0.2283  1.0182  0.3070
 2980TIP3   OH233134   2.318   3.522  16.096 -0.7934 -0.2873  0.3142
 2980TIP3    H133135   2.376   3.532  16.021 -0.6446  2.2305  0.6846
 2980TIP3    H233136   2.230   3.524  16.058 -0.6981 -0.3851  0.0855
 2981TIP3   OH233137   2.819   1.695  15.780  0.3056 -0.1061  0.0766
 2981TIP3    H133138   2.783   1.662  15.698  0.7455  1.1664 -0.6667
 2981TIP3    H233139   2.770   1.775  15.797  0.7530  0.0587  0.6330
 2982TIP3   OH233140   3.357   3.146  17.052  0.6118 -0.7337  0.2198
 2982TIP3    H133141   3.393   3.162  16.965  0.4311  2.9190  0.6924
 2982TIP3    H233142   3.386   3.220  17.105 -2.4040 -0.8202  2.2631
 2983TIP3   OH233143   1.636   2.963  17.081 -0.4519  0.4684 -0.2395
 2983TIP3    H133144   1.583   3.003  17.012 -2.3008  1.0054  1.3748
 2983TIP3    H233145   1.620   3.018  17.158  2.5365  0.6486  0.3626
 2984TIP3   OH233146   3.942   4.189  16.758 -0.0528 -0.5172  0.1755
 2984TIP3    H133147   3.888   4.110  16.762  0.3806 -0.8042  0.4311
 2984TIP3    H233148   3.881   4.260  16.777 -0.3535 -0.8344  0.4222
 2985TIP3   OH233149   7.141   1.168  15.673  0.0448 -0.6510  0.2471
 2985TIP3    H133150   7.233   1.192  15.682 -0.3245  0.8037  0.5369
 2985TIP3    H233151   7.094   1.250  15.689 -1.3098 -1.4237  0.3579
 2986TIP3   OH233152   3.059   5.299  17.645 -0.8860 -0.2449  0.3040
 2986TIP3    H133153   3.003   5.255  17.709 -0.3873 -1.6629 -0.1929
 2986TIP3    H233154   3.075   5.233  17.578 -1.3390  1.1763 -1.2777
 2987TIP3   OH233155   3.933   0.655  16.043  0.1018 -0.4415  0.4274
 2987TIP3    H133156   3.881   0.575  16.048 -0.7730 -0.0432 -1.3730
 2987TIP3    H233157   3.872   0.721  16.010  1.3552  0.4246 -0.2696
 2988TIP3   OH233158   5.847   8.182  15.985  0.0485 -0.3089 -0.3295
 2988TIP3    H133159   5.790   8.170  15.909 -0.6308 -0.9747  0.2677
 2988TIP3    H233160   5.794   8.232  16.047  0.8981  0.9840 -0.6130
 2989TIP3   OH233161   8.426   6.520  15.589 -0.2598  0.5805  0.2221
 2989TIP3    H133162   8.490   6.450  15.572 -0.2417  1.2821 -3.4749
 2989TIP3    H233163   8.389   6.498  15.674  1.7072 -2.3614  0.4915
 2990TIP3   OH233164   1.692   0.728  16.502 -0.6371  0.1181  0.2398
 2990TIP3    H133165   1.676   0.644  16.545 -0.8018  0.2704  0.4737
 2990TIP3    H233166   1.786   0.727  16.482 -1.0847 -1.2999 -2.2118
 2991TIP3   OH233167   3.498   4.424  16.076  0.0856  0.1067  0.0521
 2991TIP3    H133168   3.554   4.381  16.012  1.0804  0.3743  0.7112
 2991TIP3    H233169   3.557   4.483  16.124 -1.1287  1.8483 -0.4922
 2992TIP3   OH233170   3.936   0.292  17.517  0.1408 -0.6161 -0.1952
 2992TIP3    H133171   3.950   0.355  17.587 -2.7259 -0.0695 -0.0101
 2992TIP3    H233172   3.993   0.219  17.539  1.3531  0.6596  1.1785
 2993TIP3   OH233173   6.091   5.702  17.551  0.7952  0.3577  0.0901
 2993TIP3    H133174   6.008   5.743  17.527 -0.7879 -2.9725 -0.7358
 2993TIP3    H233175   6.118   5.746  17.631 -0.0019  3.7407 -1.3284
 2994TIP3   OH233176   2.949   2.010  16.378 -0.0298 -0.2374  0.8097
 2994TIP3    H133177   3.019   1.966  16.329  1.0323  0.5851  1.5329
 2994TIP3    H233178   2.979   2.101  16.385 -1.1179  0.0946  1.2484
 2995TIP3   OH233179   0.596   1.517  15.635 -0.0061 -0.0334 -0.2437
 2995TIP3    H133180   0.623   1.591  15.580 -0.9063  0.5765  0.1324
 2995TIP3    H233181   0.509   1.493  15.603  0.3200 -1.0223 -0.4412
 2996TIP3   OH233182   4.846   3.200  16.716  0.0598  0.1393 -0.1793
 2996TIP3    H133183   4.871   3.110  16.737 -0.5851 -0.0026  0.0135
 2996TIP3    H233184   4.926   3.251  16.730  0.0219 -0.1642  1.3277
 2997TIP3   OH233185   6.910   7.877  15.647  0.2692  0.4156  0.3188
 2997TIP3    H133186   6.913   7.854  15.554  0.7708  0.2788  0.3634
 2997TIP3    H233187   7.001   7.871  15.675  0.2814  1.5383  0.5568
 2998TIP3   OH233188   3.758   2.527  16.657  0.0991  0.0244  0.0082
 2998TIP3    H133189   3.849   2.522  16.628 -0.3428  1.4716 -1.7762
 2998TIP3    H233190   3.711   2.465  16.601 -0.1601 -0.0629  0.3175
 2999TIP3   OH233191   0.049   7.340  16.579  0.6605  0.0858 -0.0277
 2999TIP3    H133192  -0.015   7.410  16.588  1.7566  1.0047  0.8076
 2999TIP3    H233193   0.090   7.355  16.493  0.4657  0.0879 -0.1219
 3000TIP3   OH233194   3.053   1.373  17.198  0.5322 -0.1695  0.0698
 3000TIP3    H133195   2.963   1.364  17.167  0.9275  0.9460 -1.5377
 3000TIP3    H233196   3.045   1.412  17.285 -0.5941 -2.6039  1.1453
 3001TIP3   OH233197   3.499   4.604  16.519  0.5416 -0.3278 -0.0437
 3001TIP3    H133198   3.426   4.610  16.458 -0.8820 -1.4711  1.4500
 3001TIP3    H233199   3.494   4.684  16.571 -0.6791 -1.1097  1.0959
 3002TIP3   OH233200   0.453   3.421  17.652  0.0054  0.6302 -0.2853
 3002TIP3    H133201   0.467   3.451  17.562 -0.5461  0.7210 -0.3469
 3002TIP3    H233202   0.358   3.412  17.659  0.1569 -2.4801 -0.7077
 3003TIP3   OH233203   0.348   6.161  16.866  0.0094  0.7396  0.0764
 3003TIP3    H133204   0.411   6.217  16.820  1.1166  0.0231  0.6760
 3003TIP3    H233205   0.275   6.220  16.887 -0.0084  1.3492 -1.5450
 3004TIP3   OH233206   3.250   1.520  17.069  0.5514 -0.1852 -0.4927
 3004TIP3    H133207   3.179   1.464  17.100  2.2886 -1.5666  1.3023
 3004TIP3    H233208   3.232   1.606  17.108  0.2806 -0.7449  0.6705
 3005TIP3   OH233209   1.103   6.833  17.226 -0.2202 -0.3592 -0.1995
 3005TIP3    H133210   1.133   6.789  17.305 -2.4899  0.5016  1.2585
 3005TIP3    H233211   1.055   6.766  17.177 -1.6502 -0.1433  0.8479
 3006TIP3   OH233212   6.512   1.094  15.954  0.5164 -0.0359 -0.0782
 3006TIP3    H133213   6.474   1.055  15.875  2.2213 -0.3404 -0.7897
 3006TIP3    H233214   6.480   1.184  15.955 -1.2517 -0.6343  0.0827
 3007TIP3   OH233215   4.906   6.194  15.510 -0.3758 -0.2001  0.0626
 3007TIP3    H133216   4.944   6.273  15.472 -1.1968 -0.4354 -1.3016
 3007TIP3    H233217   4.907   6.210  15.604  1.2274  0.6245 -0.0554
 3008TIP3   OH233218   6.987   6.602  17.745  0.1051 -0.7463 -0.1373
 3008TIP3    H133219   6.946   6.687  17.728 -2.2166 -1.6215  0.6395
 3008TIP3    H233220   7.027   6.578  17.661  0.5754  0.9511 -0.4440
 3009TIP3   OH233221   4.478   0.378  15.925 -0.0325 -0.2239 -0.6342
 3009TIP3    H133222   4.522   0.389  15.840  1.6601  0.5531  0.2971
 3009TIP3    H233223   4.521   0.302  15.965 -1.0816 -0.8225 -0.5987
 3010TIP3   OH233224   0.415   5.269  17.686  0.1696 -0.6230 -0.1924
 3010TIP3    H133225   0.416   5.185  17.730 -0.1182 -0.6301 -0.1962
 3010TIP3    H233226   0.489   5.317  17.722 -2.0579  0.7583  3.0092
 3011TIP3   OH233227   1.073   1.242  16.492  0.1961 -0.3994 -0.0986
 3011TIP3    H133228   1.132   1.178  16.452 -0.6309 -0.9138 -0.5117
 3011TIP3    H233229   1.038   1.198  16.569  0.3252 -0.1070  0.1285
 3012TIP3   OH233230   6.963   5.275  16.211  0.3861 -0.9847  0.0484
 3012TIP3    H133231   6.876   5.292  16.176  0.2870 -1.6470 -0.0359
 3012TIP3    H233232   7.004   5.361  16.216 -0.6838 -0.5037  1.1895
 3013TIP3   OH233233   1.822   7.644  17.870  0.4752  0.1647  0.0736
 3013TIP3    H133234   1.883   7.716  17.888  1.0991  0.8866 -4.0157
 3013TIP3    H233235   1.748   7.687  17.827  0.1906 -1.4468 -1.1115
 3014TIP3   OH233236   6.754   6.555  15.998 -0.0758  0.3079  0.7186
 3014TIP3    H133237   6.750   6.503  15.917 -1.0587  1.2054  0.1581
 3014TIP3    H233238   6.790   6.495  16.063  0.2185 -0.6094 -0.2534
 3015TIP3   OH233239   0.530   6.534  15.778  0.1746  0.1092 -0.0112
 3015TIP3    H133240   0.585   6.605  15.746  1.1613 -0.9891 -0.8282
 3015TIP3    H233241   0.498   6.491  15.699  1.4322 -1.7370  0.4178
 3016TIP3   OH233242   4.089   6.704  17.413  0.2333 -0.4544  0.2493
 3016TIP3    H133243   3.995   6.699  17.428  0.0841 -1.5288 -0.8957
 3016TIP3    H233244   4.116   6.786  17.455 -1.1766 -0.2023  0.7041
 3017TIP3   OH233245   5.454   0.114  16.237  0.2649  0.1144 -0.1983
 3017TIP3    H133246   5.440   0.038  16.294  1.9110  0.1751  0.3412
 3017TIP3    H233247   5.469   0.076  16.150 -1.2289 -0.0334 -0.4061
 3018TIP3   OH233248   2.905   5.925  17.742 -0.4849  0.6328  0.1122
 3018TIP3    H133249   2.967   5.909  17.813  0.7189  0.0736 -1.0333
 3018TIP3    H233250   2.883   6.018  17.750  2.2420  1.4509 -0.7586
 3019TIP3   OH233251   4.063   8.290  16.080 -0.1192  0.2263 -0.1360
 3019TIP3    H133252   4.027   8.373  16.111  0.5686  1.0167 -1.3952
 3019TIP3    H233253   3.996   8.256  16.021 -0.6637 -0.4419  0.8228
 3020TIP3   OH233254   5.139   6.105  17.090 -0.2431 -0.0001 -0.3547
 3020TIP3    H133255   5.139   6.060  17.175  2.0624  0.7943  0.1615
 3020TIP3    H233256   5.081   6.180  17.102  0.8748  0.7079  0.9377
 3021TIP3   OH233257   0.976   3.089  16.896 -0.2487  0.2182 -0.3344
 3021TIP3    H133258   1.015   3.116  16.813  1.0258 -0.1125  0.1328
 3021TIP3    H233259   0.943   3.001  16.880 -1.8767  0.9043 -1.0488
 3022TIP3   OH233260   0.939   2.673  17.789  0.2339 -0.2421 -0.1060
 3022TIP3    H133261   1.022   2.712  17.815  0.8012 -0.6880 -1.1568
 3022TIP3    H233262   0.874   2.742  17.804  0.7380  0.0081  1.0020
 3023TIP3   OH233263   6.081   5.550  17.203  0.2473  0.2509  0.4367
 3023TIP3    H133264   6.017   5.479  17.197  0.8688 -0.2124 -1.6931
 3023TIP3    H233265   6.028   5.629  17.214 -0.4730 -0.4435  2.4624
 3024TIP3   OH233266   1.108   0.554  17.157 -0.5045 -0.1037 -0.5352
 3024TIP3    H133267   1.061   0.490  17.210 -0.4967 -0.7169 -1.2566
 3024TIP3    H233268   1.194   0.560  17.199 -0.7399 -0.0392 -0.0515
 3025TIP3   OH233269   3.359   1.148  16.168 -0.0092  0.2319  0.1015
 3025TIP3    H133270   3.300   1.077  16.193 -0.0642 -0.4067 -1.6577
 3025TIP3    H233271   3.313   1.228  16.192  0.0978 -0.2987  2.2091
 3026TIP3   OH233272   5.290   0.696  15.749  0.3839 -0.0204  0.0771
 3026TIP3    H133273   5.206   0.677  15.707 -0.1037 -2.6451  1.9579
 3026TIP3    H233274   5.352   0.637  15.705  1.6419  2.6571 -2.0587
 3027TIP3   OH233275   0.875   6.160  16.475 -0.3048  0.4114 -0.4375
 3027TIP3    H133276   0.893   6.245  16.514 -1.3184  0.8153 -0.8221
 3027TIP3    H233277   0.792   6.132  16.515 -0.1422 -0.2479 -0.5478
 3028TIP3   OH233278   2.439   5.018  18.115 -0.0330  0.6153 -0.0932
 3028TIP3    H133279   2.484   4.945  18.157 -0.4966  0.1757 -0.3473
 3028TIP3    H233280   2.421   5.080  18.186  2.5573  1.6604 -0.2477
 3029TIP3   OH233281   4.754   1.811  17.289 -0.0931 -0.0914  0.2271
 3029TIP3    H133282   4.773   1.833  17.198  0.3844 -0.9691  0.1014
 3029TIP3    H233283   4.711   1.888  17.324  3.0676  1.8279  0.3155
 3030TIP3   OH233284   6.265   0.588  17.038 -0.1825 -0.5991  0.8357
 3030TIP3    H133285   6.263   0.583  17.133 -0.4329  1.5320  0.9998
 3030TIP3    H233286   6.200   0.524  17.009 -0.6883 -0.7087  2.1325
 3031TIP3   OH233287   7.783   0.521  16.544 -0.1120  0.1012 -0.0744
 3031TIP3    H133288   7.790   0.462  16.619  0.3779  1.2493  0.8071
 3031TIP3    H233289   7.865   0.571  16.544 -0.0673  0.0854 -1.4268
 3032TIP3   OH233290   3.596   7.482  15.893 -1.1865 -0.4022 -0.1160
 3032TIP3    H133291   3.562   7.401  15.854  0.9334 -1.8021  0.7279
 3032TIP3    H233292   3.683   7.492  15.855 -1.2351  1.2730  0.1437
 3033TIP3   OH233293   8.286   2.897  16.079 -0.5110 -0.0425  0.0029
 3033TIP3    H133294   8.338   2.901  16.159 -0.3792 -0.4328 -0.0618
 3033TIP3    H233295   8.263   2.804  16.070  1.8008 -0.5056 -1.9158
 3034TIP3   OH233296   4.085   4.593  16.915  0.5946 -0.3398 -0.0161
 3034TIP3    H133297   4.129   4.564  16.995  0.8665  0.4311  0.1240
 3034TIP3    H233298   4.119   4.536  16.847 -0.0812 -1.3966  0.5042
 3035TIP3   OH233299   7.635   2.597  16.974  0.5175 -0.2609  0.5709
 3035TIP3    H133300   7.681   2.544  17.039  0.2409 -0.2747  0.7524
 3035TIP3    H233301   7.683   2.679  16.973 -0.8615  0.6458  2.5006
 3036TIP3   OH233302   2.074   5.691  16.448  0.2876 -0.3530  0.0937
 3036TIP3    H133303   2.036   5.661  16.366  1.9534 -4.0607  0.4469
 3036TIP3    H233304   2.002   5.683  16.512 -0.1601 -0.6124 -0.4351
 3037TIP3   OH233305   4.764   4.392  17.321 -0.3278  0.0785  0.0586
 3037TIP3    H133306   4.735   4.440  17.243 -0.5211  1.9375  1.2287
 3037TIP3    H233307   4.768   4.458  17.390  4.8037 -0.2894  0.5195
 3038TIP3   OH233308   0.669   5.146  17.188  0.1105 -0.5214  0.1469
 3038TIP3    H133309   0.672   5.186  17.275 -2.3287 -0.0158  0.0438
 3038TIP3    H233310   0.723   5.067  17.197 -0.3350 -0.6465  2.2165
 3039TIP3   OH233311   8.244   1.092  15.214 -0.5795  0.4039 -1.0089
 3039TIP3    H133312   8.234   1.149  15.290  0.0926  0.8163 -1.2295
 3039TIP3    H233313   8.182   1.020  15.231 -0.5010  0.5271 -0.1142
 3040TIP3   OH233314   1.360   3.692  17.136  0.1223  0.0925  0.0292
 3040TIP3    H133315   1.268   3.665  17.128 -0.1769  1.1614 -0.4570
 3040TIP3    H233316   1.358   3.759  17.205  0.4072  0.5947 -0.4393
 3041TIP3   OH233317   6.303   4.637  16.881 -0.5212 -0.2356  0.2455
 3041TIP3    H133318   6.247   4.652  16.957 -1.3613  0.9045 -0.5670
 3041TIP3    H233319   6.253   4.576  16.826 -0.7693  0.3978 -0.2483
 3042TIP3   OH233320   6.076   8.221  15.467 -0.2395 -0.3718  0.2190
 3042TIP3    H133321   6.092   8.126  15.467 -0.2092 -0.3959  1.7523
 3042TIP3    H233322   6.133   8.255  15.398 -1.2276 -1.5985 -1.2786
 3043TIP3   OH233323   1.071   7.844  16.970  0.7107  0.1311 -0.4260
 3043TIP3    H133324   1.078   7.939  16.980  0.7302  0.0764  0.1122
 3043TIP3    H233325   1.064   7.811  17.060  0.0799 -0.3290 -0.6416
 3044TIP3   OH233326   3.661   2.140  17.813  0.0727  0.2569  0.3333
 3044TIP3    H133327   3.617   2.058  17.790  0.8587 -0.7518  2.1731
 3044TIP3    H233328   3.591   2.205  17.820 -0.6872 -0.4957 -0.1356
 3045TIP3   OH233329   1.095   2.105  16.471 -0.2378  0.2871 -0.0192
 3045TIP3    H133330   1.027   2.136  16.531  0.3879  0.3147  0.6831
 3045TIP3    H233331   1.057   2.026  16.431 -0.9571  0.6969 -0.1749
 3046TIP3   OH233332   0.061   6.760  16.045  0.1517 -0.2923 -0.3201
 3046TIP3    H133333   0.122   6.782  15.975  2.7820 -1.2753  1.5077
 3046TIP3    H233334   0.087   6.816  16.118 -1.4791 -0.4125  0.3998
 3047TIP3   OH233335   7.686   2.261  16.656  0.2145  0.1630 -0.3617
 3047TIP3    H133336   7.594   2.236  16.641 -0.5608  1.4788  1.7278
 3047TIP3    H233337   7.697   2.254  16.751  2.8178 -1.5406 -0.7037
 3048TIP3   OH233338   0.365   4.996  17.733  1.2686 -0.5235 -0.5488
 3048TIP3    H133339   0.314   4.961  17.805 -0.1974  1.0121 -0.7946
 3048TIP3    H233340   0.442   4.938  17.728  0.0362 -2.3320  0.4188
 3049TIP3   OH233341   5.651   0.131  17.194  0.2204 -0.1819 -0.4005
 3049TIP3    H133342   5.695   0.046  17.203  0.7846  0.2300  0.9359
 3049TIP3    H233343   5.719   0.195  17.217 -0.2318  0.6418 -1.2817
 3050TIP3   OH233344   3.444   8.330  17.000 -0.5479  0.2721 -0.0162
 3050TIP3    H133345   3.519   8.306  17.054 -0.5986 -1.5011 -0.6572
 3050TIP3    H233346   3.369   8.291  17.044 -0.5823 -1.2620 -1.3303
 3051TIP3   OH233347   1.082   5.772  17.530 -1.0682 -0.4171  0.3535
 3051TIP3    H133348   1.031   5.722  17.467 -0.1762 -0.8284 -0.0619
 3051TIP3    H233349   1.097   5.712  17.603 -1.1454 -0.3125  0.4564
 3052TIP3   OH233350   0.660   3.740  16.185  0.3906  0.0281 -0.2811
 3052TIP3    H133351   0.655   3.828  16.146  0.4888  0.4631  0.6454
 3052TIP3    H233352   0.571   3.721  16.213 -0.0509 -1.0298 -2.2283
 3053TIP3   OH233353   3.576   3.479  17.344  0.0931  0.0985  0.6142
 3053TIP3    H133354   3.595   3.573  17.347 -0.3835  0.2461 -0.5408
 3053TIP3    H233355   3.594   3.455  17.253  0.1874 -0.9307  0.9009
 3054TIP3   OH233356   6.263   6.233  15.934  0.3113 -0.0198 -0.0939
 3054TIP3    H133357   6.304   6.318  15.949  0.3056  0.2557 -1.5065
 3054TIP3    H233358   6.315   6.194  15.864 -0.8466 -0.3707 -0.7775
 3055TIP3   OH233359   4.653   8.210  17.089  0.0999  0.8497 -0.3561
 3055TIP3    H133360   4.643   8.297  17.129  0.3741  1.3501 -1.3464
 3055TIP3    H233361   4.572   8.197  17.039  0.4731  0.9625 -0.9957
 3056TIP3   OH233362   0.372   5.699  16.245 -0.2276  0.3555 -0.2172
 3056TIP3    H133363   0.403   5.610  16.261 -1.1507  0.0281 -0.2094
 3056TIP3    H233364   0.448   5.744  16.208  0.1459 -0.5308 -0.5602
 3057TIP3   OH233365   8.319   5.494  15.985 -0.5039  0.0070  0.3230
 3057TIP3    H133366   8.277   5.428  15.930  1.0614 -0.5562 -0.2722
 3057TIP3    H233367   8.326   5.571  15.929 -0.9393  0.1797  0.5023
 3058TIP3   OH233368   4.959   0.208  18.145  0.0828 -0.5826 -1.1379
 3058TIP3    H133369   4.879   0.200  18.196  0.7392 -2.4425 -0.2994
 3058TIP3    H233370   4.997   0.291  18.173 -0.2576 -0.9179  0.4181
 3059TIP3   OH233371   4.593   5.442  16.253  0.5340  0.2926 -0.4258
 3059TIP3    H133372   4.589   5.463  16.160 -0.3478  2.2580  0.0163
 3059TIP3    H233373   4.682   5.466  16.279  0.2324  1.4726 -0.4143
 3060TIP3   OH233374   4.942   3.312  16.967 -0.2681 -0.2429 -0.0558
 3060TIP3    H133375   4.940   3.218  16.984  1.4378 -0.3883 -0.5307
 3060TIP3    H233376   4.882   3.349  17.032 -0.4929 -1.5883  0.5320
 3061TIP3   OH233377   1.929   8.223  15.899  0.1779  0.0724 -0.2634
 3061TIP3    H133378   1.847   8.243  15.853 -0.9833 -2.8418  0.3266
 3061TIP3    H233379   1.963   8.146  15.854  1.9544  0.4487  0.3647
 3062TIP3   OH233380   3.995   0.921  17.714 -0.8906 -0.2197 -0.0583
 3062TIP3    H133381   3.987   0.941  17.807 -0.7948 -1.7689  0.3008
 3062TIP3    H233382   3.906   0.928  17.680 -0.8959  0.5545  0.0925
 3063TIP3   OH233383   0.476   6.903  17.242  0.7849 -0.4346  0.1292
 3063TIP3    H133384   0.418   6.925  17.169 -0.4755 -1.0456  0.9180
 3063TIP3    H233385   0.494   6.809  17.231  0.2039 -0.6441  0.8351
 3064TIP3   OH233386   2.040   7.358  16.440  0.5517 -0.0754  0.0515
 3064TIP3    H133387   2.036   7.295  16.368 -0.4906  0.3280 -0.2605
 3064TIP3    H233388   1.990   7.433  16.409 -0.3774 -0.1096  1.4042
 3065TIP3   OH233389   3.336   3.562  15.452 -0.2199  0.4026 -0.5137
 3065TIP3    H133390   3.425   3.538  15.427  0.0981 -1.0625  1.7455
 3065TIP3    H233391   3.348   3.632  15.516 -0.6421 -0.0495  0.0711
 3066TIP3   OH233392   3.240   4.348  16.440 -0.0246 -0.4185 -0.2165
 3066TIP3    H133393   3.206   4.275  16.387  1.7760 -1.0697 -0.5224
 3066TIP3    H233394   3.249   4.420  16.377  1.1983 -0.9059 -0.6295
 3067TIP3   OH233395   6.638   2.935  15.399 -0.3419 -0.1097 -0.5320
 3067TIP3    H133396   6.726   2.931  15.360 -0.8792  1.0463 -1.9588
 3067TIP3    H233397   6.619   2.845  15.423  1.6973 -0.2246  0.9239
 3068TIP3   OH233398   3.891   7.242  17.698  0.5146 -0.0390 -0.1966
 3068TIP3    H133399   3.964   7.259  17.639  0.1691  1.8950 -0.1397
 3068TIP3    H233400   3.889   7.317  17.757  0.2321 -1.4368  1.6730
 3069TIP3   OH233401   5.363   4.453  16.682 -0.0373  0.3841  0.0827
 3069TIP3    H133402   5.311   4.514  16.629 -1.9407 -1.4708 -0.3102
 3069TIP3    H233403   5.387   4.504  16.759  0.2307  2.2504 -1.1655
 3070TIP3   OH233404   4.820   5.547  16.373  0.0151 -0.2182  0.0247
 3070TIP3    H133405   4.827   5.623  16.431 -1.9798  0.3497 -0.4092
 3070TIP3    H233406   4.887   5.487  16.405 -0.4341  0.4350  2.4005
 3071TIP3   OH233407   1.925   4.134  17.103  0.1035 -0.3217 -0.2241
 3071TIP3    H133408   1.895   4.224  17.113  0.4890 -0.1410 -0.6771
 3071TIP3    H233409   1.956   4.109  17.191  1.7541  0.6336 -0.4944
 3072TIP3   OH233410   3.489   7.495  17.726 -0.3195 -0.1839  0.0245
 3072TIP3    H133411   3.448   7.497  17.640 -0.7183  0.6057  0.2250
 3072TIP3    H233412   3.492   7.402  17.749 -0.8656 -0.3422 -0.5271
 3073TIP3   OH233413   0.171   4.380  16.719  0.1714  0.2821 -0.7114
 3073TIP3    H133414   0.171   4.360  16.812 -0.2975 -0.2332 -0.8136
 3073TIP3    H233415   0.109   4.317  16.681  2.0202 -1.0528 -1.6873
 3074TIP3   OH233416   2.002   4.038  17.361 -0.6018  0.2076  0.7634
 3074TIP3    H133417   2.049   3.955  17.350 -0.4566  0.0802  2.1554
 3074TIP3    H233418   2.058   4.090  17.419 -1.6077  0.5228  1.4749
 3075TIP3   OH233419   6.670   7.576  17.089  0.3587 -0.3331  0.1576
 3075TIP3    H133420   6.761   7.563  17.114  0.2938  1.5274  1.6340
 3075TIP3    H233421   6.620   7.537  17.161  0.0298 -0.2108 -0.0028
 3076TIP3   OH233422   4.795   2.652  16.622  0.4225  1.2070 -0.2009
 3076TIP3    H133423   4.838   2.613  16.698  0.2786  2.3556  0.4987
 3076TIP3    H233424   4.812   2.746  16.631 -3.1428  1.9089  0.7979
 3077TIP3   OH233425   2.147   6.530  16.184  0.6432 -0.1018 -0.0912
 3077TIP3    H133426   2.144   6.517  16.279  1.2639 -1.1297 -0.1952
 3077TIP3    H233427   2.056   6.520  16.156  0.2895  1.2716  0.5112
 3078TIP3   OH233428   0.149   3.735  16.046  0.1744 -0.7041  0.1256
 3078TIP3    H133429   0.101   3.654  16.067 -1.2168  0.0572 -0.0136
 3078TIP3    H233430   0.211   3.709  15.978 -1.1502 -1.4263 -0.8731
 3079TIP3   OH233431   2.283   0.412  16.444 -0.8290 -0.2693 -0.0438
 3079TIP3    H133432   2.197   0.370  16.450 -1.5503  1.1773  0.1364
 3079TIP3    H233433   2.343   0.348  16.482 -1.7389 -1.4989 -0.5929
 3080TIP3   OH233434   0.991   6.713  16.791 -0.5488 -0.3881  0.3056
 3080TIP3    H133435   0.948   6.785  16.743  1.7977  0.1910 -1.0957
 3080TIP3    H233436   1.030   6.659  16.722  0.8206 -0.9490  1.4913
 3081TIP3   OH233437   3.775   2.646  15.483 -0.1261  0.6190  1.4194
 3081TIP3    H133438   3.809   2.557  15.484  2.4622  1.5168  2.3688
 3081TIP3    H233439   3.825   2.689  15.413 -0.8590  1.4894  1.4195
 3082TIP3   OH233440   6.091   8.139  16.699  0.5568  0.0545 -0.3747
 3082TIP3    H133441   6.015   8.154  16.643  1.2499  2.2029 -0.8274
 3082TIP3    H233442   6.103   8.044  16.698 -1.0393 -0.1841 -1.7165
 3083TIP3   OH233443   0.799   3.052  17.461 -0.2363  0.6998 -0.0496
 3083TIP3    H133444   0.784   3.146  17.448  0.5157  0.7955 -0.2844
 3083TIP3    H233445   0.872   3.048  17.522 -1.4502  0.2420  1.4410
 3084TIP3   OH233446   7.546   2.986  17.033  0.1906  0.9303  0.2197
 3084TIP3    H133447   7.606   2.973  16.960  2.1333  2.1792  1.4971
 3084TIP3    H233448   7.565   2.914  17.093  0.6066  1.4699  0.7430
 3085TIP3   OH233449   1.229   2.225  17.245  0.1974  0.0819 -0.2485
 3085TIP3    H133450   1.164   2.284  17.284  1.4679  1.7038 -0.4908
 3085TIP3    H233451   1.313   2.267  17.262  1.1234 -1.3991 -0.9376
 3086TIP3   OH233452   7.078   8.273  16.819 -0.2914  0.4671  0.4947
 3086TIP3    H133453   7.100   8.248  16.729 -0.6401  1.3842  0.1440
 3086TIP3    H233454   7.002   8.330  16.810  0.9901  2.3547  1.1817
 3087TIP3   OH233455   7.573   3.235  17.158  0.0458 -0.0279 -0.2844
 3087TIP3    H133456   7.567   3.156  17.104 -0.6066 -1.3755  1.6514
 3087TIP3    H233457   7.495   3.232  17.214  0.4871  1.5128  0.4899
 3088TIP3   OH233458   2.303   7.479  17.746  0.6890  0.4701  0.1033
 3088TIP3    H133459   2.376   7.498  17.806  1.0633  0.8121 -0.4455
 3088TIP3    H233460   2.225   7.501  17.796  1.0068  1.0030  0.3851
 3089TIP3   OH233461   7.265   4.558  16.667 -0.1898 -0.2853 -0.4405
 3089TIP3    H133462   7.191   4.498  16.665  0.3499 -1.0172  0.6480
 3089TIP3    H233463   7.322   4.528  16.596 -1.4537  1.0277 -2.0887
 3090TIP3   OH233464   4.255   0.981  16.172  0.1244  0.2956  0.0915
 3090TIP3    H133465   4.231   0.888  16.174  0.7884  0.1229  1.9965
 3090TIP3    H233466   4.189   1.022  16.116  0.0103 -1.3583 -1.0470
 3091TIP3   OH233467   5.098   0.519  15.613  0.0547  0.0429  0.0478
 3091TIP3    H133468   5.088   0.466  15.692 -1.9793  0.0636 -0.1462
 3091TIP3    H233469   5.123   0.456  15.545  2.3579  0.1033  0.7509
 3092TIP3   OH233470   4.129   2.046  16.691  0.5634  0.2706  0.1178
 3092TIP3    H133471   4.059   2.079  16.635  0.3655  0.4791  0.4777
 3092TIP3    H233472   4.098   2.064  16.780  1.0964  0.4101  0.2799
 3093TIP3   OH233473   6.806   8.214  15.986 -0.3906 -0.1941  0.3434
 3093TIP3    H133474   6.733   8.164  15.950 -0.8627  0.1501  0.8097
 3093TIP3    H233475   6.858   8.148  16.033  0.5220 -0.7454 -1.3438
 3094TIP3   OH233476   6.617   2.331  17.366  0.1898 -0.4580 -0.2807
 3094TIP3    H133477   6.543   2.354  17.310  1.2942 -0.6371 -1.9085
 3094TIP3    H233478   6.587   2.257  17.418 -0.7080 -0.6480 -1.0554
 3095TIP3   OH233479   1.684   6.095  17.227 -0.7154 -0.1685  0.6081
 3095TIP3    H133480   1.649   6.011  17.198 -0.3541 -0.3388  0.6602
 3095TIP3    H233481   1.664   6.156  17.155 -1.1058 -0.2660  0.6351
 3096TIP3   OH233482   7.741   1.874  17.543 -0.0105  0.0200  0.0533
 3096TIP3    H133483   7.663   1.857  17.595 -0.4049  0.4666 -0.3827
 3096TIP3    H233484   7.709   1.916  17.463  0.6905  0.4135 -0.0387
 3097TIP3   OH233485   1.577   3.163  17.741  0.0964 -0.2901  0.1544
 3097TIP3    H133486   1.640   3.147  17.671  0.2623  0.7450  0.0470
 3097TIP3    H233487   1.628   3.150  17.822  0.3093 -0.0276  0.0675
 3098TIP3   OH233488   4.446   7.890  16.252 -0.0179 -0.0051 -0.3481
 3098TIP3    H133489   4.504   7.962  16.276 -0.8099  0.4213  0.3388
 3098TIP3    H233490   4.381   7.929  16.193  1.3394 -0.8386 -2.5450
 3099TIP3   OH233491   0.150   5.173  17.278 -0.5587 -0.0261  0.5417
 3099TIP3    H133492   0.130   5.128  17.361  0.7142  0.3612  1.0900
 3099TIP3    H233493   0.243   5.158  17.265 -0.9748 -1.0845 -1.4724
 3100TIP3   OH233494   0.781   0.528  16.241  0.3313 -0.0892 -0.1120
 3100TIP3    H133495   0.780   0.610  16.191  0.6250  0.5185  0.8511
 3100TIP3    H233496   0.749   0.462  16.180  2.4320  0.2774 -1.7483
 3101TIP3   OH233497   0.730   1.872  17.090  1.2850 -0.6859  0.4527
 3101TIP3    H133498   0.787   1.820  17.147  0.4015 -1.3169  0.7872
 3101TIP3    H233499   0.641   1.846  17.115  0.8226  0.8265  0.4730
 3102TIP3   OH233500   5.755   6.013  16.416  0.5450  0.2399  0.3796
 3102TIP3    H133501   5.715   5.927  16.433 -0.3058  0.7579  1.1276
 3102TIP3    H233502   5.693   6.056  16.357  1.8878 -0.3275 -1.5252
 3103TIP3   OH233503   2.333   2.156  16.816 -0.0158  0.1619 -0.1181
 3103TIP3    H133504   2.384   2.113  16.884  1.5803 -1.3961 -2.1385
 3103TIP3    H233505   2.243   2.128  16.832  0.3509 -0.3475  1.1700
 3104TIP3   OH233506   5.257   8.304  15.995  0.1561  0.2883 -0.6249
 3104TIP3    H133507   5.320   8.351  15.940  1.1857 -0.0414  0.2307
 3104TIP3    H233508   5.312   8.254  16.056 -0.9262  1.2393  1.2088
 3105TIP3   OH233509   5.851   2.276  16.034 -0.0488 -0.3065 -0.5725
 3105TIP3    H133510   5.892   2.303  15.952 -1.1604  2.1092 -0.4436
 3105TIP3    H233511   5.923   2.268  16.096  0.4931  1.8716 -0.8341
 3106TIP3   OH233512   6.171   1.588  15.696  0.3239 -0.1336  0.0460
 3106TIP3    H133513   6.232   1.568  15.626  0.3264  0.2655 -0.0673
 3106TIP3    H233514   6.217   1.563  15.776 -0.2614 -2.0781 -0.1582
 3107TIP3   OH233515   3.234   4.825  16.855  0.3656 -0.2517  0.0212
 3107TIP3    H133516   3.263   4.750  16.803  1.1631  1.1665 -1.7174
 3107TIP3    H233517   3.167   4.790  16.913  1.4395 -2.5009  0.0220
 3108TIP3   OH233518   6.832   7.758  16.920  0.1781  0.2927  0.3432
 3108TIP3    H133519   6.813   7.679  16.971 -1.8829 -1.0783 -2.2685
 3108TIP3    H233520   6.924   7.749  16.896  0.7492  0.1915  2.3820
 3109TIP3   OH233521   7.602   7.385  16.204  0.4593 -0.3608 -0.5578
 3109TIP3    H133522   7.584   7.345  16.119  0.4643 -1.9173  0.1499
 3109TIP3    H233523   7.517   7.389  16.247  0.4758  0.3223 -0.5786
 3110TIP3   OH233524   0.767   4.884  17.164 -0.4597 -0.3283 -0.2099
 3110TIP3    H133525   0.724   4.863  17.081 -0.2369 -0.8056 -0.2095
 3110TIP3    H233526   0.767   4.801  17.212 -0.5736 -0.0589  0.2603
 3111TIP3   OH233527   6.285   4.058  16.182  0.5112  0.0734  0.0705
 3111TIP3    H133528   6.343   4.124  16.220 -0.6655  1.4047 -0.3579
 3111TIP3    H233529   6.339   4.014  16.116  1.3091  0.6365  0.3345
 3112TIP3   OH233530   7.830   0.290  17.628  0.5459  0.2559  0.3659
 3112TIP3    H133531   7.847   0.212  17.575 -0.5401  0.0338  0.3199
 3112TIP3    H233532   7.842   0.363  17.568 -1.8077 -0.0336 -0.5629
 3113TIP3   OH233533   5.459   5.119  17.779 -0.0609 -0.2807  0.0091
 3113TIP3    H133534   5.499   5.111  17.693  0.1639 -1.8391  0.2313
 3113TIP3    H233535   5.420   5.207  17.780  1.3500  0.3803 -1.0488
 3114TIP3   OH233536   4.387   4.282  17.408  0.2308 -0.0442  0.3049
 3114TIP3    H133537   4.294   4.302  17.401 -0.8688 -4.1305  0.6937
 3114TIP3    H233538   4.412   4.310  17.496 -1.1872 -0.7192  0.9402
 3115TIP3   OH233539   5.636   1.033  18.080 -0.3364 -0.1176  1.0247
 3115TIP3    H133540   5.587   1.114  18.097 -2.5525 -1.2885  0.6697
 3115TIP3    H233541   5.726   1.061  18.069 -1.1037  2.3888  0.4048
 3116TIP3   OH233542   7.084   5.522  16.189 -0.5536  0.3863 -0.0836
 3116TIP3    H133543   7.179   5.515  16.176 -0.6180 -4.0345  0.2516
 3116TIP3    H233544   7.049   5.537  16.101  0.3560 -1.1747 -0.7573
 3117TIP3   OH233545   4.129   5.746  17.144  0.6518  0.0449  0.1326
 3117TIP3    H133546   4.148   5.833  17.109  0.9683  0.5401  1.4510
 3117TIP3    H233547   4.052   5.759  17.199 -1.7117 -1.3024 -2.6105
 3118TIP3   OH233548   4.049   0.717  17.035 -0.6741  0.2557  0.7406
 3118TIP3    H133549   4.028   0.635  16.990 -0.3667 -0.4927  1.9091
 3118TIP3    H233550   4.125   0.751  16.988 -1.2541  0.2661 -0.2168
 3119TIP3   OH233551   6.518   3.123  15.542  0.0789 -0.2256 -0.2943
 3119TIP3    H133552   6.565   3.069  15.479  1.1815  0.4945 -0.1194
 3119TIP3    H233553   6.567   3.113  15.623  0.5090  1.2921 -0.3451
 3120TIP3   OH233554   0.219   1.079  17.290 -0.2970  0.5061 -0.3385
 3120TIP3    H133555   0.125   1.059  17.284 -0.6439  2.4097 -2.9127
 3120TIP3    H233556   0.260   1.024  17.223  0.9861 -2.2983  2.4593
 3121TIP3   OH233557   0.532   2.000  16.593  0.3017  0.0994 -0.1738
 3121TIP3    H133558   0.526   2.089  16.558  0.5429  1.3092  2.6072
 3121TIP3    H233559   0.444   1.964  16.583  0.0915  0.8041 -0.9314
 3122TIP3   OH233560   4.711   4.021  17.341 -0.2786 -0.0006  0.1325
 3122TIP3    H133561   4.756   4.083  17.398  1.4376 -0.7745 -0.3015
 3122TIP3    H233562   4.646   4.073  17.295  0.3871  1.2509  0.5549
 3123TIP3   OH233563   5.672   2.867  17.241 -0.1142  0.2056  0.4543
 3123TIP3    H133564   5.643   2.776  17.253  1.0185 -0.6485 -2.4640
 3123TIP3    H233565   5.761   2.868  17.276  1.5715 -1.1382 -3.3004
 3124TIP3   OH233566   6.310   6.043  17.117  0.3542 -0.3813 -0.1933
 3124TIP3    H133567   6.331   6.135  17.104  0.0676 -0.2651  0.1540
 3124TIP3    H233568   6.251   6.022  17.045  0.0547 -0.1727 -0.0085
 3125TIP3   OH233569   2.484   0.672  16.699 -0.2901 -0.1179 -0.1627
 3125TIP3    H133570   2.562   0.684  16.645 -0.4825  0.5325 -0.3015
 3125TIP3    H233571   2.503   0.593  16.750  0.8180  0.4997  0.4275
 3126TIP3   OH233572   7.736   3.341  15.665  0.0657  0.6520  0.2357
 3126TIP3    H133573   7.809   3.305  15.716  0.5993  0.4832 -0.6215
 3126TIP3    H233574   7.759   3.433  15.653  0.8603  0.2909 -1.2230
 3127TIP3   OH233575   3.075   5.861  17.969 -0.3191  0.0828  0.5576
 3127TIP3    H133576   3.118   5.797  18.026  1.4028  0.3949 -0.3229
 3127TIP3    H233577   3.060   5.937  18.025 -1.6546 -0.7586  1.4046
 3128TIP3   OH233578   3.223   6.174  16.943  0.5027 -0.2828  0.1632
 3128TIP3    H133579   3.141   6.129  16.964 -0.3748  0.9522 -0.4575
 3128TIP3    H233580   3.246   6.220  17.024  1.7778 -2.2779  1.0292
 3129TIP3   OH233581   8.253   0.895  17.036 -0.2580 -0.7339  0.4263
 3129TIP3    H133582   8.313   0.828  17.068 -0.1057 -0.5007  0.6351
 3129TIP3    H233583   8.246   0.958  17.108  0.8516  0.3020 -0.3156
 3130TIP3   OH233584   2.066   2.114  16.870 -0.1538 -0.4102  0.6802
 3130TIP3    H133585   2.005   2.042  16.854 -1.0072 -0.0164  1.9741
 3130TIP3    H233586   2.035   2.154  16.952  1.1874  0.5001  0.7765
 3131TIP3   OH233587   4.666   0.897  16.438  0.6224  0.2482 -0.1982
 3131TIP3    H133588   4.613   0.963  16.393  0.9419 -0.8244 -2.2678
 3131TIP3    H233589   4.754   0.909  16.403  0.9827 -0.3698  0.4677
 3132TIP3   OH233590   4.303   5.592  17.289  0.3133 -0.1320 -0.0611
 3132TIP3    H133591   4.308   5.621  17.380  0.1705 -1.5027  0.4101
 3132TIP3    H233592   4.234   5.645  17.250 -0.6234 -0.5123  1.0376
 3133TIP3   OH233593   1.754   5.854  17.812  0.9773 -0.3256  0.4313
 3133TIP3    H133594   1.673   5.821  17.775  0.8844  1.1108 -0.7482
 3133TIP3    H233595   1.818   5.784  17.796  0.1432 -1.1973  0.7920
 3134TIP3   OH233596   7.633   7.860  16.839 -0.0115  0.3049 -0.3442
 3134TIP3    H133597   7.640   7.886  16.747  2.0095  0.1001 -0.2892
 3134TIP3    H233598   7.679   7.776  16.843 -1.7192 -0.6435  0.5230
 3135TIP3   OH233599   7.469   1.440  16.262 -0.3570 -0.2676  0.4079
 3135TIP3    H133600   7.528   1.435  16.187 -0.4711 -1.1195  0.3717
 3135TIP3    H233601   7.384   1.464  16.223  0.2856  2.9064  0.6395
 3136TIP3   OH233602   0.361   4.292  17.413 -0.2608 -0.5269 -0.2403
 3136TIP3    H133603   0.325   4.312  17.499 -0.6400 -1.3075 -0.2031
 3136TIP3    H233604   0.393   4.375  17.380  3.7746 -0.7534  2.3790
 3137TIP3   OH233605   0.232   7.756  15.797  0.0909  1.0215  0.5071
 3137TIP3    H133606   0.152   7.711  15.825  0.8174 -0.1746  0.6948
 3137TIP3    H233607   0.300   7.689  15.798  1.0554  1.9576  0.0785
 3138TIP3   OH233608   5.132   3.857  17.488 -0.7528  0.0857 -1.1648
 3138TIP3    H133609   5.040   3.881  17.497 -1.4315 -2.6219  0.3232
 3138TIP3    H233610   5.175   3.896  17.564 -1.4121 -1.4361  0.0440
 3139TIP3   OH233611   6.595   5.569  16.505  0.4571 -0.1547  0.2435
 3139TIP3    H133612   6.639   5.488  16.531  0.6831  0.2763  1.2662
 3139TIP3    H233613   6.622   5.584  16.415  1.2067 -0.6976  0.3695
 3140TIP3   OH233614   5.460   7.947  17.548  0.5087 -0.1213  0.4093
 3140TIP3    H133615   5.388   7.971  17.607 -2.3073  1.0363 -3.1766
 3140TIP3    H233616   5.447   7.854  17.530 -0.1497  0.0972 -0.2692
 3141TIP3   OH233617   0.154   6.031  17.715 -0.1062  0.2927 -0.1076
 3141TIP3    H133618   0.082   6.066  17.767 -0.0985  1.2662 -0.7449
 3141TIP3    H233619   0.118   6.020  17.627 -0.1388 -1.4099  0.0746
 3142TIP3   OH233620   1.319   7.614  17.206  0.0520 -0.5473 -0.3068
 3142TIP3    H133621   1.284   7.619  17.118 -0.3181 -1.2497 -0.2072
 3142TIP3    H233622   1.275   7.684  17.254  0.8614  0.3662 -0.8765
 3143TIP3   OH233623   6.053   1.089  17.608  0.0597 -0.2231 -0.0732
 3143TIP3    H133624   5.992   1.018  17.628  0.0827 -0.0516  0.6679
 3143TIP3    H233625   6.139   1.048  17.602 -0.1779 -0.5557 -1.6965
 3144TIP3   OH233626   4.687   5.066  17.750  0.1639  0.7293 -0.0520
 3144TIP3    H133627   4.623   4.995  17.759  0.5466  0.5377  1.6761
 3144TIP3    H233628   4.653   5.122  17.681 -1.4763  0.2271  0.3224
 3145TIP3   OH233629   4.921   4.371  15.682 -0.1690  0.1825 -0.4649
 3145TIP3    H133630   4.836   4.398  15.646 -0.4535 -0.6572 -0.4530
 3145TIP3    H233631   4.903   4.353  15.774 -0.0417 -0.2879 -0.5323
 3146TIP3   OH233632   0.188   3.442  17.412 -0.5917 -0.1099 -0.3669
 3146TIP3    H133633   0.154   3.436  17.501  0.4711  0.2421  0.0812
 3146TIP3    H233634   0.204   3.536  17.399 -0.4322 -0.1941 -0.8007
 3147TIP3   OH233635   3.621   1.859  15.542 -0.3182  0.1091 -0.0080
 3147TIP3    H133636   3.612   1.911  15.463  1.2696 -0.3501 -0.5269
 3147TIP3    H233637   3.710   1.823  15.538 -0.7122 -1.1258  1.2454
 3148TIP3   OH233638   4.622   0.843  16.708 -0.4129 -0.0357 -0.5937
 3148TIP3    H133639   4.529   0.826  16.699 -0.7571  1.3711  0.1095
 3148TIP3    H233640   4.651   0.861  16.618 -0.6960 -0.9418 -0.8828
 3149TIP3   OH233641   2.936   0.824  16.258 -0.0223  0.0369  0.4150
 3149TIP3    H133642   2.924   0.855  16.348  0.3759 -0.4956  0.6623
 3149TIP3    H233643   2.915   0.730  16.263  0.0147  0.0033 -0.0426
 3150TIP3   OH233644   0.624   0.863  17.111  0.2353  0.1243  0.1747
 3150TIP3    H133645   0.708   0.903  17.087 -0.2128  0.5131 -0.8144
 3150TIP3    H233646   0.619   0.784  17.056 -0.4010  0.5327 -0.3625
 3151TIP3   OH233647   5.428   4.451  17.198  0.6865  0.3211  0.2982
 3151TIP3    H133648   5.376   4.438  17.278 -1.6139  1.3598 -0.9109
 3151TIP3    H233649   5.478   4.370  17.188 -1.5599 -1.2712  1.0380
 3152TIP3   OH233650   2.239   3.160  16.943  0.4162 -0.0056  0.0496
 3152TIP3    H133651   2.160   3.114  16.972 -0.8039  1.2790 -1.0994
 3152TIP3    H233652   2.229   3.248  16.977  1.2432  0.2425 -0.3221
 3153TIP3   OH233653   6.808   0.641  16.959  0.3145  0.1431  0.3826
 3153TIP3    H133654   6.724   0.682  16.977  0.4824  0.1809  1.1593
 3153TIP3    H233655   6.790   0.547  16.960  0.1783  0.1639 -0.0349
 3154TIP3   OH233656   3.825   8.182  16.414  0.7061 -0.0682 -0.1311
 3154TIP3    H133657   3.753   8.246  16.417 -0.3018 -1.2228  2.5917
 3154TIP3    H233658   3.799   8.122  16.344 -0.0590  0.5507 -0.4070
 3155TIP3   OH233659   8.414   7.882  16.558  0.6552 -0.5255  0.5968
 3155TIP3    H133660   8.371   7.941  16.620 -0.9821 -0.2729 -0.6962
 3155TIP3    H233661   8.379   7.908  16.473  1.3764 -2.0982 -0.2092
 3156TIP3   OH233662   4.782   3.356  17.176  0.0764  1.0714  0.7515
 3156TIP3    H133663   4.805   3.449  17.181  1.3919  0.7841  0.3308
 3156TIP3    H233664   4.842   3.313  17.236  0.4993  0.3240 -0.1800
 3157TIP3   OH233665   7.605   7.169  17.517 -0.6381 -0.5876 -0.1302
 3157TIP3    H133666   7.661   7.156  17.594 -0.6151  3.5484  0.7854
 3157TIP3    H233667   7.516   7.153  17.549 -0.4343 -1.3983  0.0394
 3158TIP3   OH233668   4.823   1.077  17.813  0.4809  0.8171  0.8383
 3158TIP3    H133669   4.878   1.058  17.889 -0.3741 -0.6261  1.1277
 3158TIP3    H233670   4.813   0.992  17.769 -0.0774  1.3964 -0.1883
 3159TIP3   OH233671   1.008   2.485  16.697  0.6259  0.1400  0.2825
 3159TIP3    H133672   1.011   2.558  16.759 -0.9839  1.1043 -0.7195
 3159TIP3    H233673   0.938   2.429  16.729  0.6610 -0.0346  0.0557
 3160TIP3   OH233674   6.935   7.040  16.283  0.6235 -0.7057  0.4054
 3160TIP3    H133675   6.965   7.053  16.193 -0.0093  2.3209  0.5452
 3160TIP3    H233676   6.848   6.999  16.273 -0.5345  1.7675 -0.5620
 3161TIP3   OH233677   5.899   6.283  15.629  0.0236 -0.6938 -0.2795
 3161TIP3    H133678   5.828   6.347  15.615  0.9883  0.5530  0.2983
 3161TIP3    H233679   5.859   6.198  15.610 -1.3897  0.0491 -0.7971
 3162TIP3   OH233680   1.990   4.740  18.069  0.4561 -0.3247  0.0767
 3162TIP3    H133681   2.040   4.790  18.005 -0.1116 -0.7019 -0.6762
 3162TIP3    H233682   1.999   4.649  18.041 -0.5627 -0.4066 -0.0177
 3163TIP3   OH233683   7.767   2.482  17.197  0.3109  0.0138  0.3037
 3163TIP3    H133684   7.856   2.447  17.192 -0.4107 -2.3938  2.3101
 3163TIP3    H233685   7.774   2.558  17.254  1.1778  0.2654 -0.1253
 3164TIP3   OH233686   0.648   2.616  17.679  0.6491  0.0258 -0.5169
 3164TIP3    H133687   0.600   2.677  17.734  0.1504 -0.8444  0.0372
 3164TIP3    H233688   0.737   2.616  17.715  0.7665  0.7243 -0.7844
 3165TIP3   OH233689   2.526   7.697  16.789  0.4035  0.2101  0.2100
 3165TIP3    H133690   2.555   7.630  16.726  1.9212  1.1587 -0.1727
 3165TIP3    H233691   2.554   7.664  16.874  1.9151  0.6866 -0.0628
 3166TIP3   OH233692   1.148   4.250  15.142 -0.7361  0.3063 -0.6511
 3166TIP3    H133693   1.194   4.334  15.132 -1.1931  0.8212  1.1822
 3166TIP3    H233694   1.204   4.187  15.096  0.3378  1.3796 -0.8841
 3167TIP3   OH233695   5.163   0.059  15.584 -0.2121 -0.4407 -0.2761
 3167TIP3    H133696   5.138   0.009  15.662  0.2456 -1.2087 -0.6105
 3167TIP3    H233697   5.176  -0.007  15.516 -0.8399  0.2373 -1.0767
 3168TIP3   OH233698   5.356   6.254  16.648  0.3710  0.3474  0.2735
 3168TIP3    H133699   5.383   6.233  16.738  0.0241  0.4332  0.4000
 3168TIP3    H233700   5.374   6.348  16.640 -0.0742  0.4466  0.4256
 3169TIP3   OH233701   3.404   3.406  17.540 -0.3008 -0.3316  0.2862
 3169TIP3    H133702   3.366   3.326  17.503  0.2602 -0.5793  0.2469
 3169TIP3    H233703   3.456   3.443  17.469 -1.7963  0.9174 -0.2196
 3170TIP3   OH233704   7.468   7.564  17.049  0.2526 -0.0859 -0.1062
 3170TIP3    H133705   7.408   7.490  17.038  0.7564 -0.4456 -0.4721
 3170TIP3    H233706   7.421   7.638  17.010  0.5214 -0.6100 -1.4786
 3171TIP3   OH233707   7.335   5.794  16.933 -0.2074 -0.6721 -0.3663
 3171TIP3    H133708   7.326   5.831  17.021  0.3369  0.0167 -0.5864
 3171TIP3    H233709   7.245   5.774  16.906 -0.3484 -1.2277  0.4764
 3172TIP3   OH233710   1.659   3.628  16.536 -0.4251  0.2800 -0.7728
 3172TIP3    H133711   1.712   3.681  16.596  0.3431 -0.3631 -0.8633
 3172TIP3    H233712   1.571   3.631  16.573 -0.3047  1.2579 -0.5362
 3173TIP3   OH233713   1.258   4.921  16.009  0.3748 -0.3633  0.9354
 3173TIP3    H133714   1.239   4.923  15.916  0.8383 -1.3967  0.8041
 3173TIP3    H233715   1.267   4.828  16.030 -0.5934 -0.2039  2.1971
 3174TIP3   OH233716   1.310   6.284  17.160  0.6578 -0.2563  0.1353
 3174TIP3    H133717   1.215   6.274  17.167  0.8105 -1.2101  1.0646
 3174TIP3    H233718   1.333   6.244  17.076  0.1736  0.6030 -0.4201
 3175TIP3   OH233719   4.278   4.547  17.601 -0.2432 -0.7308 -0.5301
 3175TIP3    H133720   4.190   4.552  17.563 -0.7331  1.1751  0.7441
 3175TIP3    H233721   4.325   4.622  17.564 -0.2452  0.2493  1.3302
 3176TIP3   OH233722   3.270   4.615  16.332 -0.5674 -0.2948  0.3425
 3176TIP3    H133723   3.183   4.651  16.314 -0.3882 -0.0978 -0.1483
 3176TIP3    H233724   3.325   4.649  16.261 -0.2030 -0.8357  0.3588
 3177TIP3   OH233725   3.124   1.627  16.363 -0.2217  0.6530 -0.1963
 3177TIP3    H133726   3.092   1.711  16.331  1.8022  1.0862 -1.2383
 3177TIP3    H233727   3.168   1.648  16.445 -1.7180  0.1909  0.7775
 3178TIP3   OH233728   0.669   1.872  15.634  0.0078  0.4575  0.0200
 3178TIP3    H133729   0.690   1.949  15.582 -0.8261  0.3480 -0.5089
 3178TIP3    H233730   0.677   1.798  15.573  0.6873  0.1303  0.4911
 3179TIP3   OH233731   7.447   4.093  18.149 -0.0752 -0.2045  0.2220
 3179TIP3    H133732   7.427   4.007  18.112  0.6532 -0.3687  0.1843
 3179TIP3    H233733   7.377   4.109  18.212 -0.6296 -0.4873 -0.3128
 3180TIP3   OH233734   4.029   1.410  16.742  0.0571 -0.5038 -0.5097
 3180TIP3    H133735   4.096   1.397  16.809 -0.1686 -3.3352 -0.6948
 3180TIP3    H233736   3.989   1.323  16.731 -2.1921  0.6127 -1.9294
 3181TIP3   OH233737   1.400   3.629  16.683  0.6112  0.6019  0.1757
 3181TIP3    H133738   1.377   3.708  16.732 -3.1311 -1.3004  1.8820
 3181TIP3    H233739   1.323   3.611  16.630  1.5562 -1.6702 -0.5158
 3182TIP3   OH233740   3.336   8.327  16.528  0.2212 -0.5993 -0.3636
 3182TIP3    H133741   3.273   8.379  16.477  0.4648 -0.5383 -0.6001
 3182TIP3    H233742   3.283   8.287  16.597 -0.0071 -0.2155 -0.3142
 3183TIP3   OH233743   5.463   3.897  16.035  0.0782  0.0485  0.0559
 3183TIP3    H133744   5.373   3.902  16.002 -0.4944 -1.3185  1.2894
 3183TIP3    H233745   5.497   3.815  15.999 -0.1496 -0.8584  1.7834
 3184TIP3   OH233746   3.795   8.431  16.951  0.5212 -0.1880  0.0055
 3184TIP3    H133747   3.762   8.489  17.019 -0.5200 -1.8671  1.0243
 3184TIP3    H233748   3.806   8.487  16.875  0.8485  1.5802  1.2829
 3185TIP3   OH233749   0.172   2.183  16.144 -0.2473  0.9413  0.1200
 3185TIP3    H133750   0.181   2.239  16.067  1.6775 -0.1443 -0.5162
 3185TIP3    H233751   0.081   2.154  16.142 -0.6683  2.2439 -0.7912
 3186TIP3   OH233752   0.363   6.162  16.414  0.4364 -0.1154  0.0751
 3186TIP3    H133753   0.295   6.220  16.380  1.0697  0.6415  0.0681
 3186TIP3    H233754   0.355   6.082  16.361  0.3202  0.4147 -0.7319
 3187TIP3   OH233755   7.998   1.270  17.065 -0.3127 -0.1912  0.7004
 3187TIP3    H133756   7.950   1.352  17.081  0.3790  0.2569  0.5537
 3187TIP3    H233757   8.001   1.262  16.970 -1.9789 -1.3742  0.7160
 3188TIP3   OH233758   2.229   5.788  17.214 -0.0211  0.4136 -0.1903
 3188TIP3    H133759   2.276   5.787  17.130 -0.6021  2.2850 -0.5864
 3188TIP3    H233760   2.266   5.715  17.263  0.9654 -0.1758 -1.7398
 3189TIP3   OH233761   2.966   6.652  16.963 -0.1391  0.0485 -0.2945
 3189TIP3    H133762   3.049   6.605  16.966  0.6307  1.2938 -1.0851
 3189TIP3    H233763   2.981   6.723  16.901 -1.4492  0.9592  0.3806
 3190TIP3   OH233764   5.107   1.647  17.514  0.7272  0.2428 -0.6244
 3190TIP3    H133765   5.146   1.684  17.434  0.2996  2.7875  0.2667
 3190TIP3    H233766   5.104   1.720  17.575 -1.5250 -0.9350  0.8009
 3191TIP3   OH233767   4.249   0.916  17.252 -0.3747 -0.0472 -0.6705
 3191TIP3    H133768   4.334   0.890  17.217  0.0537  1.6851 -1.0320
 3191TIP3    H233769   4.268   0.991  17.309 -1.6047  0.0403 -0.3347
 3192TIP3   OH233770   0.054   0.816  17.547  0.3149  0.1082 -0.6664
 3192TIP3    H133771  -0.031   0.771  17.546 -1.0963  2.5983 -1.0676
 3192TIP3    H233772   0.081   0.818  17.456  0.7062 -0.4551 -0.5690
 3193TIP3   OH233773   2.109   6.420  16.729 -0.2329 -0.5376  0.1652
 3193TIP3    H133774   2.180   6.468  16.773 -0.9636  0.4416  0.3246
 3193TIP3    H233775   2.119   6.330  16.759  1.2380 -0.5297 -0.1982
 3194TIP3   OH233776   6.198   2.622  17.381 -0.0291  0.0298 -0.1355
 3194TIP3    H133777   6.215   2.651  17.291 -0.6249 -1.3937 -0.7406
 3194TIP3    H233778   6.253   2.679  17.435  0.4479  0.8256 -1.4019
 3195TIP3   OH233779   3.880   2.101  16.081  0.0405  0.2719 -0.3491
 3195TIP3    H133780   3.957   2.058  16.118 -0.1999  0.8030  0.7853
 3195TIP3    H233781   3.873   2.065  15.993  2.7328  1.5909 -1.2350
 3196TIP3   OH233782   3.371   5.977  15.966 -0.1798  0.3608  0.1913
 3196TIP3    H133783   3.369   5.968  15.871  0.5071  1.1992  0.0827
 3196TIP3    H233784   3.279   5.986  15.992 -0.3709  0.1096 -0.3856
 3197TIP3   OH233785   7.980   8.072  15.969 -0.6057  0.0787 -0.1586
 3197TIP3    H133786   8.025   8.001  15.924 -1.9746 -0.8441 -0.1256
 3197TIP3    H233787   7.990   8.051  16.062  0.3336  0.8041 -0.0751
 3198TIP3   OH233788   3.486   6.857  16.539 -0.3188 -0.1815  0.1533
 3198TIP3    H133789   3.421   6.832  16.473 -0.7028  0.9967  0.0594
 3198TIP3    H233790   3.508   6.948  16.518  1.0437 -0.4272  0.4544
 3199TIP3   OH233791   3.474   7.545  16.611  0.1833  0.4964 -0.1204
 3199TIP3    H133792   3.434   7.572  16.529 -0.5941  0.7433  0.3249
 3199TIP3    H233793   3.405   7.499  16.658  1.0907 -1.1140 -0.2779
 3200TIP3   OH233794   1.459   1.852  15.098  0.0393 -0.1800  0.0687
 3200TIP3    H133795   1.415   1.937  15.100 -0.3561 -0.3889  1.6272
 3200TIP3    H233796   1.543   1.869  15.055 -0.7186  0.6331 -1.1630
 3201TIP3   OH233797   0.361   8.438  17.706  0.7521 -0.3872  0.1573
 3201TIP3    H133798   0.375   8.446  17.611  0.7141  0.0112  0.1823
 3201TIP3    H233799   0.381   8.526  17.740  0.6527 -0.4986  0.5039
 3202TIP3   OH233800   4.950   6.693  16.895  0.2508  0.0170  0.5362
 3202TIP3    H133801   4.971   6.740  16.976  0.4982  0.5866  0.1473
 3202TIP3    H233802   4.988   6.606  16.907  0.8559  0.3133  0.7645
 3203TIP3   OH233803   1.801   6.126  17.835  0.4016 -0.0187  0.9704
 3203TIP3    H133804   1.721   6.169  17.865 -0.1454  0.1384 -0.6134
 3203TIP3    H233805   1.777   6.033  17.828  0.3126  0.0377  0.4306
 3204TIP3   OH233806   0.465   5.589  16.532 -0.5828 -0.3780  0.1915
 3204TIP3    H133807   0.430   5.674  16.504 -1.2593 -0.1522  1.6171
 3204TIP3    H233808   0.390   5.530  16.524 -0.6357 -0.4220  0.9828
 3205TIP3   OH233809   7.631   7.039  16.811  0.4850 -0.1710 -0.0675
 3205TIP3    H133810   7.575   7.050  16.888  1.2068  0.3991  0.3932
 3205TIP3    H233811   7.571   7.044  16.736 -0.1653 -0.2766  0.4363
 3206TIP3   OH233812   4.826   0.308  17.517 -0.3174  0.2459 -0.0455
 3206TIP3    H133813   4.756   0.282  17.457  0.9217 -2.6257 -0.4254
 3206TIP3    H233814   4.816   0.402  17.526 -1.9343  0.4951 -3.0274
 3207TIP3   OH233815   0.405   0.035  17.427  0.1114 -0.1759 -0.3981
 3207TIP3    H133816   0.428  -0.058  17.424 -0.6729 -0.3620 -1.2470
 3207TIP3    H233817   0.487   0.080  17.446  0.3512 -1.0949  0.8340
 3208TIP3   OH233818   7.629   3.821  17.011 -0.3202  0.1804 -0.3083
 3208TIP3    H133819   7.585   3.737  17.023 -0.0628  0.0722 -0.0947
 3208TIP3    H233820   7.705   3.801  16.955  0.7042 -0.0664  1.1032
 3209TIP3   OH233821   6.527   3.481  17.040  0.2578  0.4228  0.7362
 3209TIP3    H133822   6.566   3.460  16.955  1.3111 -0.1771  1.3345
 3209TIP3    H233823   6.601   3.515  17.091 -0.6607  2.1504  0.9651
 3210TIP3   OH233824   3.103   6.446  16.208  0.0747 -0.4169  0.4924
 3210TIP3    H133825   3.161   6.372  16.224  0.3540 -0.1957  0.5283
 3210TIP3    H233826   3.163   6.520  16.192 -0.1765 -0.5962 -1.4797
 3211TIP3   OH233827   7.498   4.329  16.625 -0.1896  0.0942 -0.1900
 3211TIP3    H133828   7.448   4.331  16.543  0.4353 -1.7967 -0.6730
 3211TIP3    H233829   7.584   4.295  16.599  0.8755  1.8529  0.8653
 3212TIP3   OH233830   4.991   0.815  16.250  0.5253 -0.1601 -0.6603
 3212TIP3    H133831   5.063   0.877  16.260 -0.7583  1.2999 -0.0163
 3212TIP3    H233832   4.920   0.867  16.212 -0.9444 -0.9407  0.8796
 3213TIP3   OH233833   1.035   5.265  16.418  0.5072  0.0487 -0.3598
 3213TIP3    H133834   0.977   5.232  16.349  3.5675  1.0494 -3.7291
 3213TIP3    H233835   0.997   5.349  16.442 -0.3580 -0.0716 -1.2137
 3214TIP3   OH233836   8.127   3.175  16.921  0.3690  0.0009 -0.1863
 3214TIP3    H133837   8.095   3.088  16.896 -3.1412  1.2500 -0.6439
 3214TIP3    H233838   8.165   3.162  17.008  0.7406 -2.1153 -0.6122
 3215TIP3   OH233839   6.075   2.901  17.669 -0.0521 -0.7301  0.0554
 3215TIP3    H133840   6.136   2.909  17.596 -0.6482 -0.8195 -0.4558
 3215TIP3    H233841   6.043   2.990  17.684 -0.2984 -0.7892 -0.1135
 3216TIP3   OH233842   4.388   7.198  17.749  0.2858  0.2342 -0.4247
 3216TIP3    H133843   4.361   7.110  17.775 -1.0080  0.7382  0.0329
 3216TIP3    H233844   4.310   7.235  17.707  0.3619  1.6228  0.5894
 3217TIP3   OH233845   3.770   0.870  17.019 -0.0526  0.4062 -0.2669
 3217TIP3    H133846   3.856   0.841  16.988  1.3207  0.4695  3.1179
 3217TIP3    H233847   3.780   0.964  17.031 -0.8901  0.5444 -0.6190
 3218TIP3   OH233848   0.908   3.300  15.592 -0.7037  0.4391  0.0987
 3218TIP3    H133849   0.923   3.238  15.521  0.5158  1.8064 -0.9129
 3218TIP3    H233850   0.913   3.386  15.549  0.3105  1.3214  1.8716
 3219TIP3   OH233851   0.234   0.306  16.058  0.3924  0.5303  0.0651
 3219TIP3    H133852   0.261   0.397  16.072 -0.0738  0.4484  1.7904
 3219TIP3    H233853   0.145   0.312  16.025  0.9790  0.7126 -1.5560
 3220TIP3   OH233854   4.497   8.252  16.632 -0.0717 -0.1987  0.0035
 3220TIP3    H133855   4.513   8.332  16.583 -1.1526 -0.8568 -1.4915
 3220TIP3    H233856   4.425   8.274  16.691  1.1687  0.5635  1.3178
 3221TIP3   OH233857   5.304   4.217  15.958 -0.0778 -0.1722 -0.0824
 3221TIP3    H133858   5.284   4.261  15.876  1.0195 -1.3262 -1.0272
 3221TIP3    H233859   5.261   4.132  15.951  0.5822 -0.5472  0.2195
 3222TIP3   OH233860   6.760   0.436  16.628  0.0704  0.1503  0.1958
 3222TIP3    H133861   6.757   0.391  16.712  2.7883 -1.2041 -0.3178
 3222TIP3    H233862   6.809   0.516  16.645  0.7406 -0.1898 -0.1030
 3223TIP3   OH233863   7.508   6.156  16.237 -0.4241  0.1408  0.0558
 3223TIP3    H133864   7.518   6.135  16.330 -2.7948  1.0636  0.6018
 3223TIP3    H233865   7.579   6.217  16.218 -0.4009  0.6133  1.5232
 3224TIP3   OH233866   6.621   5.754  16.709  0.4425 -0.2258 -0.2495
 3224TIP3    H133867   6.649   5.837  16.671  1.0220 -0.6636 -0.7953
 3224TIP3    H233868   6.618   5.693  16.634 -1.3875 -0.3484 -0.1230
 3225TIP3   OH233869   2.549   6.237  17.499  0.0872 -0.3394 -0.9501
 3225TIP3    H133870   2.491   6.311  17.518 -0.2698 -0.5908 -1.0458
 3225TIP3    H233871   2.491   6.170  17.463  0.3021 -0.9093 -0.2560
 3226TIP3   OH233872   0.426   7.776  16.084 -0.2575  0.4143  0.1850
 3226TIP3    H133873   0.366   7.830  16.033  1.6448  0.5146 -2.0972
 3226TIP3    H233874   0.474   7.838  16.139  0.1110  0.7508 -0.5080
 3227TIP3   OH233875   3.153   2.229  17.131  0.1877  0.3818 -0.1098
 3227TIP3    H133876   3.142   2.271  17.045  0.9797  1.0398  0.0999
 3227TIP3    H233877   3.234   2.267  17.166 -0.4102  0.5345  1.1687
 3228TIP3   OH233878   3.616   6.569  15.906 -0.1169 -0.3791 -0.4664
 3228TIP3    H133879   3.557   6.604  15.838 -0.4569  0.1633  0.1007
 3228TIP3    H233880   3.564   6.570  15.986  0.6932  0.2389  0.0739
 3229TIP3   OH233881   2.724   8.284  16.443  0.0656 -0.1969  0.3257
 3229TIP3    H133882   2.717   8.192  16.469  2.5196 -1.2970 -2.3318
 3229TIP3    H233883   2.635   8.318  16.448 -1.2332 -3.2109 -0.1957
 3230TIP3   OH233884   4.909   6.050  16.295 -0.0695 -0.2308  0.5866
 3230TIP3    H133885   4.828   6.074  16.340 -0.0860 -1.4221  1.2266
 3230TIP3    H233886   4.971   6.119  16.320 -0.5549  0.0437  1.0507
 3231TIP3   OH233887   6.904   0.932  16.653  0.1792 -0.5009  0.1692
 3231TIP3    H133888   6.896   0.921  16.747  0.4882  0.2408  0.2947
 3231TIP3    H233889   6.824   0.979  16.628  0.6687  0.4078  0.2668
 3232TIP3   OH233890   6.285   4.376  17.467  0.1089  0.4326  0.5863
 3232TIP3    H133891   6.338   4.366  17.388 -2.4735 -0.8898 -1.1184
 3232TIP3    H233892   6.208   4.424  17.438 -1.3791 -0.9711  2.0330
 3233TIP3   OH233893   3.753   6.968  15.920  0.0448 -0.0817 -0.0817
 3233TIP3    H133894   3.843   6.939  15.901 -0.2561 -0.6371 -0.7505
 3233TIP3    H233895   3.754   7.062  15.903  0.9577  0.2724  1.7637
 3234TIP3   OH233896   7.558   4.211  17.335  0.0064 -0.2471 -0.5140
 3234TIP3    H133897   7.607   4.161  17.271  0.3549 -0.6895  0.0838
 3234TIP3    H233898   7.625   4.244  17.396 -0.5385 -2.5823  1.5264
 3235TIP3   OH233899   2.995   0.915  17.093 -0.1696 -0.1675  0.1906
 3235TIP3    H133900   2.940   0.940  17.019 -0.2821  2.2067  1.0019
 3235TIP3    H233901   2.934   0.876  17.156 -1.0457  2.4841  1.1002
 3236TIP3   OH233902   7.610   2.305  17.606 -0.0738 -0.5144 -0.2624
 3236TIP3    H133903   7.599   2.321  17.512  0.3044  0.5547 -0.1461
 3236TIP3    H233904   7.522   2.305  17.642 -0.1496  0.5566 -0.4169
 3237TIP3   OH233905   4.995   5.191  17.081  0.0062  0.7230  0.2680
 3237TIP3    H133906   5.084   5.155  17.083 -0.7891 -1.3815  0.6876
 3237TIP3    H233907   4.968   5.183  16.989  0.2393  1.3850  0.1357
 3238TIP3   OH233908   1.069   8.118  17.055  0.2969  0.7008  0.4824
 3238TIP3    H133909   1.049   8.208  17.028  1.9738  0.7028 -0.9342
 3238TIP3    H233910   1.011   8.102  17.130 -2.2993  1.8400 -1.1305
 3239TIP3   OH233911   6.650   6.932  17.677  0.0133 -0.2163 -0.1144
 3239TIP3    H133912   6.647   6.985  17.598  0.1370  1.2666  0.8477
 3239TIP3    H233913   6.581   6.867  17.665 -0.2814  0.2829 -1.2281
 3240TIP3   OH233914   6.963   0.068  16.694  0.6726  0.5867  0.6638
 3240TIP3    H133915   7.026   0.140  16.692  2.3087 -0.7873  0.9633
 3240TIP3    H233916   6.955   0.041  16.602  1.3132  0.1225  0.7364
 3241TIP3   OH233917   4.642   7.178  15.918  0.3057  0.1886 -0.3327
 3241TIP3    H133918   4.571   7.182  15.854 -0.5049  2.1042  0.6138
 3241TIP3    H233919   4.664   7.085  15.923 -0.8368 -0.2288 -2.0230
 3242TIP3   OH233920   2.354   0.228  15.867  0.0306  0.4726 -0.0590
 3242TIP3    H133921   2.283   0.268  15.818  0.8941 -0.5895 -2.3154
 3242TIP3    H233922   2.433   0.275  15.839  0.5565 -0.2071  0.2262
 3243TIP3   OH233923   4.687   6.643  15.500  0.5871  0.9624 -0.0287
 3243TIP3    H133924   4.683   6.577  15.569  0.8369  0.6993 -0.2665
 3243TIP3    H233925   4.600   6.684  15.501  0.6267  1.0338  0.5121
 3244TIP3   OH233926   7.580   2.340  17.341 -0.0739  0.3458 -0.0221
 3244TIP3    H133927   7.522   2.305  17.274  1.0861 -0.0089 -0.8784
 3244TIP3    H233928   7.659   2.366  17.293  1.7777 -2.1293  1.4090
 3245TIP3   OH233929   3.422   7.024  17.171 -0.0719  0.5334  0.0229
 3245TIP3    H133930   3.339   7.071  17.180 -0.5925 -0.4344  0.5241
 3245TIP3    H233931   3.488   7.092  17.164 -0.6526  1.3750  1.9717
 3246TIP3   OH233932   3.663   0.430  17.807  0.3941 -0.1197  0.2121
 3246TIP3    H133933   3.722   0.443  17.732  1.7503 -0.1194  1.2360
 3246TIP3    H233934   3.683   0.342  17.838 -0.8160 -0.4707  0.0461
 3247TIP3   OH233935   3.692   4.103  17.486  0.1028  0.2460 -0.2370
 3247TIP3    H133936   3.613   4.052  17.505  0.9713 -1.2445 -0.5330
 3247TIP3    H233937   3.677   4.138  17.398  0.8121 -2.1536 -1.3702
 3248TIP3   OH233938   4.458   1.310  17.242  0.4076  0.3642 -0.0705
 3248TIP3    H133939   4.513   1.260  17.182 -0.4345 -0.0775 -0.4902
 3248TIP3    H233940   4.505   1.392  17.254  0.7025  0.3792 -1.1737
 3249TIP3   OH233941   5.848   5.228  16.104  0.2638 -0.3228  0.0505
 3249TIP3    H133942   5.755   5.249  16.095  0.2929  0.0673  0.5919
 3249TIP3    H233943   5.854   5.135  16.083 -0.3074 -0.4420  0.3824
 3250TIP3   OH233944   3.193   0.080  16.385 -0.4054  0.4949 -0.6546
 3250TIP3    H133945   3.103   0.054  16.364 -0.8054  1.1957  0.1084
 3250TIP3    H233946   3.187   0.120  16.472  0.3717  1.9610 -1.2246
 3251TIP3   OH233947   2.215   1.393  16.635  0.8580 -0.2607 -1.1791
 3251TIP3    H133948   2.197   1.412  16.727 -1.4312 -0.6300 -1.4829
 3251TIP3    H233949   2.307   1.415  16.623  0.8787  1.0107  0.8883
 3252TIP3   OH233950   4.600   6.943  15.632  0.1206 -0.3511 -0.2538
 3252TIP3    H133951   4.553   6.886  15.572  0.7078  0.2558 -1.3286
 3252TIP3    H233952   4.535   7.008  15.660 -0.4181 -1.2297  0.5956
 3253TIP3   OH233953   1.217   0.347  16.993  0.5071  0.0842  0.0268
 3253TIP3    H133954   1.170   0.299  16.925  0.5251  0.6492 -0.3893
 3253TIP3    H233955   1.149   0.397  17.039  0.6317  0.5054 -0.2463
 3254TIP3   OH233956   6.742   7.244  16.055 -0.0367 -0.4646  0.5619
 3254TIP3    H133957   6.804   7.188  16.007 -0.4563 -2.9329  2.6687
 3254TIP3    H233958   6.674   7.264  15.991 -0.3181 -3.2088 -0.1330
 3255TIP3   OH233959   7.503   2.229  15.722  0.1183  0.5391 -0.2190
 3255TIP3    H133960   7.480   2.321  15.733 -1.6004  0.1573 -0.3063
 3255TIP3    H233961   7.419   2.184  15.714  0.9281 -1.0118 -0.4405
 3256TIP3   OH233962   1.881   5.949  16.233 -0.3449 -0.1942 -0.8577
 3256TIP3    H133963   1.863   6.025  16.178  0.0133 -0.2944 -1.1160
 3256TIP3    H233964   1.846   5.875  16.184 -4.3966  0.1158  1.0958
 3257TIP3   OH233965   1.765   4.863  17.953  0.0468 -0.9066 -0.1080
 3257TIP3    H133966   1.826   4.820  18.013  0.2546  0.6641  0.8542
 3257TIP3    H233967   1.685   4.812  17.959  0.8575 -2.3027 -0.4943
 3258TIP3   OH233968   3.738   7.452  16.610  0.9501  0.4034  0.0740
 3258TIP3    H133969   3.792   7.518  16.653  0.4472  0.8331  0.0434
 3258TIP3    H233970   3.654   7.495  16.594  1.4147  0.5986 -2.2460
 3259TIP3   OH233971   3.128   2.602  16.991 -0.1638 -0.0511  0.5364
 3259TIP3    H133972   3.222   2.599  17.011  0.2280  1.3907 -0.8092
 3259TIP3    H233973   3.106   2.514  16.963  0.6041 -0.6031  1.6080
 3260TIP3   OH233974   4.650   1.111  16.761  0.5655 -0.3395  0.6597
 3260TIP3    H133975   4.638   1.021  16.730 -0.1777 -0.5911  1.6468
 3260TIP3    H233976   4.702   1.103  16.841 -0.5562 -0.0195  1.4481
 3261TIP3   OH233977   6.653   7.130  17.481  0.1388 -0.1654  0.0953
 3261TIP3    H133978   6.681   7.217  17.510  2.1384 -0.6526 -0.2305
 3261TIP3    H233979   6.632   7.141  17.388  1.0612 -0.1419 -0.1223
 3262TIP3   OH233980   7.028   6.083  16.877 -0.2432  0.2744 -0.6859
 3262TIP3    H133981   6.975   6.095  16.955  1.7803 -0.2481  0.8559
 3262TIP3    H233982   6.965   6.080  16.805 -2.2348  0.0140  0.9881
 3263TIP3   OH233983   3.835   5.832  17.601 -0.1986 -0.4068 -0.0898
 3263TIP3    H133984   3.772   5.810  17.669 -1.5160  1.0942 -0.7673
 3263TIP3    H233985   3.809   5.919  17.570  1.9599  0.1078 -0.6875
 3264TIP3   OH233986   1.017   7.563  16.651 -0.1057 -0.0666  0.0092
 3264TIP3    H133987   0.967   7.579  16.571 -0.1400  1.4236  0.3003
 3264TIP3    H233988   0.971   7.612  16.718 -0.8425 -2.3454  1.2697
 3265TIP3   OH233989   5.829   0.392  17.240  0.0066  0.1034 -0.1610
 3265TIP3    H133990   5.883   0.313  17.244  0.6436  0.5888  1.9207
 3265TIP3    H233991   5.884   0.458  17.198 -0.0550 -0.1912 -0.7111
 3266TIP3   OH233992   5.967   6.931  16.431 -0.6108 -0.0601  0.3708
 3266TIP3    H133993   5.973   6.836  16.438 -0.5756  0.0373  2.1394
 3266TIP3    H233994   5.933   6.959  16.516 -1.1200  1.4785 -0.2931
 3267TIP3   OH233995   3.175   5.575  17.703  0.3400  0.1602  0.1287
 3267TIP3    H133996   3.100   5.519  17.718  0.3605 -0.0441 -0.5134
 3267TIP3    H233997   3.164   5.608  17.614  1.8822 -1.2458 -0.6376
 3268TIP3   OH233998   5.634   2.733  15.640 -0.4378 -0.0531  0.5106
 3268TIP3    H133999   5.586   2.813  15.660  0.4850  0.8192 -0.5842
 3268TIP3    H234000   5.617   2.717  15.547  1.9341  0.7567 -0.1503
 3269TIP3   OH234001   5.814   2.148  17.246  0.2241  0.4233 -0.5578
 3269TIP3    H134002   5.869   2.075  17.276  1.2189  0.5403 -1.9876
 3269TIP3    H234003   5.770   2.115  17.168 -0.8242  0.7443 -0.1226
 3270TIP3   OH234004   7.135   2.388  17.185  0.0091  0.1877  0.5139
 3270TIP3    H134005   7.055   2.365  17.233  0.3504  0.1317  1.0682
 3270TIP3    H234006   7.110   2.462  17.130 -0.2229  0.7026  1.2905
 3271TIP3   OH234007   1.209   2.296  16.677  0.2038 -0.0840 -0.2342
 3271TIP3    H134008   1.246   2.287  16.765 -0.7890  0.8340  0.2982
 3271TIP3    H234009   1.129   2.346  16.690 -0.0658 -0.1228 -1.6448
 3272TIP3   OH234010   6.978   2.932  16.137 -0.3509  0.1325 -0.0394
 3272TIP3    H134011   6.968   2.952  16.044  0.4509  2.4674  0.2971
 3272TIP3    H234012   6.892   2.949  16.175 -0.9615 -1.7986 -0.4450
 3273TIP3   OH234013   7.018   1.921  18.010 -0.0498  0.0622  0.6849
 3273TIP3    H134014   6.947   1.856  18.014  0.4937 -0.4988  1.4197
 3273TIP3    H234015   7.069   1.896  17.933 -0.2789  0.0822  0.5245
 3274TIP3   OH234016   6.600   2.429  15.351  0.1866  0.0664  0.2296
 3274TIP3    H134017   6.605   2.494  15.421  1.5998 -0.2486  0.4551
 3274TIP3    H234018   6.507   2.417  15.336 -0.1296  0.6740  1.5638
 3275TIP3   OH234019   5.523   4.701  15.976  0.0375  0.5306 -0.0509
 3275TIP3    H134020   5.470   4.755  15.918 -0.3419  1.1853  0.8756
 3275TIP3    H234021   5.488   4.612  15.965  0.3776  0.5263 -1.2521
 3276TIP3   OH234022   0.513   0.245  16.098  0.8675  0.3946 -0.0194
 3276TIP3    H134023   0.549   0.185  16.164 -0.9908 -1.5528 -0.6481
 3276TIP3    H234024   0.496   0.326  16.145 -1.1123 -1.1716  2.1803
 3277TIP3   OH234025   5.657   8.260  16.791  0.3179 -0.3818  0.5258
 3277TIP3    H134026   5.589   8.227  16.732  0.0739 -0.6408  0.9410
 3277TIP3    H234027   5.624   8.345  16.821  1.7860  1.1797 -1.9778
 3278TIP3   OH234028   7.467   1.142  17.558 -0.1577  0.2215 -0.0159
 3278TIP3    H134029   7.515   1.097  17.489 -0.0504  0.0777  0.1488
 3278TIP3    H234030   7.433   1.071  17.613  2.5220  0.3162  1.9689
 3279TIP3   OH234031   3.983   2.958  15.680 -0.0447 -0.2491 -0.1789
 3279TIP3    H134032   4.026   3.037  15.713 -1.3574  0.8004 -0.9066
 3279TIP3    H234033   3.932   2.925  15.754 -0.7680  0.5059 -0.3381
 3280TIP3   OH234034   2.974   5.015  17.505 -0.0446  0.1828  0.3333
 3280TIP3    H134035   2.994   4.941  17.448 -0.3679 -1.0898  1.7901
 3280TIP3    H234036   2.887   4.995  17.541 -0.3065  1.4729  0.4581
 3281TIP3   OH234037   0.622   0.137  17.535  0.1457 -0.1157 -0.4621
 3281TIP3    H134038   0.612   0.082  17.613 -2.0416  2.0109  0.8746
 3281TIP3    H234039   0.717   0.138  17.519  0.3574 -3.5208 -0.1059
 3282TIP3   OH234040   6.783   3.415  17.887  0.1913 -0.2776 -0.8358
 3282TIP3    H134041   6.867   3.383  17.852 -0.2845 -2.6249 -0.0073
 3282TIP3    H234042   6.725   3.340  17.881 -1.3686  0.7944  0.2480
 3283TIP3   OH234043   7.718   1.398  17.910  0.3380 -0.1162 -0.3949
 3283TIP3    H134044   7.791   1.414  17.850 -0.1289 -2.5486 -1.7721
 3283TIP3    H234045   7.758   1.392  17.996  1.5612 -0.0290 -0.9425
 3284TIP3   OH234046   4.929   8.368  16.536 -0.7781 -0.2976  0.6441
 3284TIP3    H134047   5.019   8.364  16.503 -0.8031  0.7235  0.3897
 3284TIP3    H234048   4.898   8.278  16.534  0.1677 -0.6302  0.5250
 3285TIP3   OH234049   3.522   8.032  17.067  0.0191  0.2125  0.0674
 3285TIP3    H134050   3.575   8.077  17.002  0.9825  0.5456  1.0473
 3285TIP3    H234051   3.449   7.994  17.017  0.6843  0.5148 -1.1742
 3286TIP3   OH234052   4.425   5.559  16.615  0.4825 -0.4285  0.3208
 3286TIP3    H134053   4.337   5.568  16.579  0.4655  2.5351  0.8474
 3286TIP3    H234054   4.453   5.471  16.589 -1.3813 -0.2694 -2.6867
 3287TIP3   OH234055   7.386   6.471  16.903 -0.7382 -0.3439 -0.2350
 3287TIP3    H134056   7.301   6.429  16.917 -0.4166 -0.4109  1.9724
 3287TIP3    H234057   7.384   6.549  16.960  0.3361  0.1587 -0.8501
 3288TIP3   OH234058   4.831   7.888  16.835  0.3282  0.5878  0.1301
 3288TIP3    H134059   4.737   7.901  16.826  0.1161 -0.7448  0.1201
 3288TIP3    H234060   4.851   7.817  16.774  1.1528  0.1715  0.8545
 3289TIP3   OH234061   5.891   7.143  16.282 -0.1447 -0.0159  0.2587
 3289TIP3    H134062   5.918   7.068  16.336  0.9544  0.4985  0.4369
 3289TIP3    H234063   5.884   7.216  16.344  2.1185  0.8326 -0.3803
 3290TIP3   OH234064   0.177   5.945  16.931 -0.3487  0.8516 -0.7141
 3290TIP3    H134065   0.098   5.928  16.880  0.0874 -1.5786 -0.6817
 3290TIP3    H234066   0.147   6.001  17.003 -2.1611 -0.3482 -0.4655
 3291TIP3   OH234067   3.607   5.979  17.096 -0.2202  0.4014  0.1698
 3291TIP3    H134068   3.644   6.055  17.141  0.1654  0.8518 -0.8855
 3291TIP3    H234069   3.675   5.951  17.035 -1.3972  0.9726 -1.4913
 3292TIP3   OH234070   7.958   1.725  17.589  0.0469  0.4274  0.3401
 3292TIP3    H134071   7.991   1.724  17.499  0.1321 -1.4477  0.3446
 3292TIP3    H234072   7.875   1.771  17.584  1.2002  2.5950 -0.2105
 3293TIP3   OH234073   3.327   2.082  17.481  0.4555  0.1517  0.7243
 3293TIP3    H134074   3.243   2.036  17.486  0.6040 -0.2024  0.0686
 3293TIP3    H234075   3.303   2.175  17.478  0.0370  0.0307 -0.2336
 3294TIP3   OH234076   6.240   0.177  17.057 -0.2933 -1.1140 -0.6456
 3294TIP3    H134077   6.301   0.109  17.025  2.1216  0.8538 -0.5188
 3294TIP3    H234078   6.255   0.180  17.151  1.3235  1.0395 -0.9069
 3295TIP3   OH234079   0.437   4.559  16.125 -0.3225  0.3075 -0.5814
 3295TIP3    H134080   0.390   4.476  16.124  0.6124 -0.3078  1.3922
 3295TIP3    H234081   0.432   4.591  16.035 -0.4780 -2.0212 -1.4627
 3296TIP3   OH234082   0.683   3.703  16.591 -0.0147  0.0331  0.3439
 3296TIP3    H134083   0.624   3.639  16.552 -0.4629  1.1805 -0.9575
 3296TIP3    H234084   0.634   3.785  16.591  0.6305  0.4589  1.7316
 3297TIP3   OH234085   2.023   0.626  16.619 -0.3833 -0.2750 -0.0095
 3297TIP3    H134086   2.001   0.706  16.666 -1.2883  0.1994 -1.2107
 3297TIP3    H234087   2.103   0.646  16.571 -1.0886  0.2185 -1.0083
 3298TIP3   OH234088   6.015   0.841  17.780  0.2727  0.4927  0.0803
 3298TIP3    H134089   6.085   0.778  17.795 -0.3184 -0.1069  0.3614
 3298TIP3    H234090   5.983   0.864  17.867  0.4167  1.1177 -0.0206
 3299TIP3   OH234091   4.691   0.460  17.250 -0.8731 -0.2044  0.5980
 3299TIP3    H134092   4.726   0.378  17.215 -0.3957  1.0739 -2.1943
 3299TIP3    H234093   4.768   0.506  17.284 -0.8653 -0.1505  0.5070
 3300TIP3   OH234094   1.209   6.947  16.019  0.5995 -0.3193 -0.1051
 3300TIP3    H134095   1.284   6.990  16.059  1.2108 -1.9753  0.6472
 3300TIP3    H234096   1.247   6.888  15.953 -0.0226 -1.0948  0.2060
 3301TIP3   OH234097   5.844   4.047  17.256  0.0489 -0.3202 -0.8426
 3301TIP3    H134098   5.853   4.060  17.161  0.3832 -0.0833 -0.7803
 3301TIP3    H234099   5.918   4.095  17.293  1.0303 -1.9766 -0.5707
 3302TIP3   OH234100   4.529   1.151  17.638  0.2235  0.5330  0.0188
 3302TIP3    H134101   4.607   1.148  17.583  0.2895  0.0790  0.1391
 3302TIP3    H234102   4.562   1.147  17.727  0.1139  1.2443  0.1002
 3303TIP3   OH234103   1.068   3.916  17.517 -0.3072 -0.0395 -0.4739
 3303TIP3    H134104   0.994   3.867  17.480 -0.2703  0.2405 -0.9272
 3303TIP3    H234105   1.141   3.897  17.458 -0.4056  0.9236 -0.9283
 3304TIP3   OH234106   1.553   8.126  16.174  0.2114 -0.1699  0.1141
 3304TIP3    H134107   1.633   8.171  16.202 -0.4829  0.5005  1.0733
 3304TIP3    H234108   1.543   8.053  16.235  0.1488 -0.3224 -0.0759
 3305TIP3   OH234109   6.473   8.391  15.627  0.2111 -0.4052 -0.2627
 3305TIP3    H134110   6.545   8.442  15.589  0.3583  1.1305  1.9190
 3305TIP3    H234111   6.402   8.454  15.637 -0.2661 -1.0877  0.7829
 3306TIP3   OH234112   6.481   6.650  17.052 -0.0763 -0.0996  0.6786
 3306TIP3    H134113   6.457   6.678  17.140 -2.1192 -1.3490  0.5879
 3306TIP3    H234114   6.553   6.589  17.064 -2.3865 -2.7907  1.8891
 3307TIP3   OH234115   7.756   7.114  17.289  0.2228  0.3012  0.2322
 3307TIP3    H134116   7.715   7.141  17.371  0.4140 -1.8171  1.0915
 3307TIP3    H234117   7.813   7.041  17.313  2.3078  1.2585 -1.3905
 3308TIP3   OH234118   0.872   5.195  16.206  0.3813 -0.2045 -0.4147
 3308TIP3    H134119   0.950   5.167  16.158  0.3043 -0.5683 -0.3325
 3308TIP3    H234120   0.822   5.246  16.143  1.1674  0.8937 -0.1700
 3309TIP3   OH234121   0.299   6.969  17.043 -0.0517 -0.0348  0.3966
 3309TIP3    H134122   0.209   6.937  17.050  0.2005 -0.4690  2.2488
 3309TIP3    H234123   0.344   6.902  16.992 -0.9601  0.6963 -1.4692
 3310TIP3   OH234124   2.223   3.500  16.685  0.4615 -0.0448 -0.1659
 3310TIP3    H134125   2.131   3.491  16.658  0.3135 -0.7171  0.5353
 3310TIP3    H234126   2.272   3.474  16.607  0.1147  2.0358 -1.1635
 3311TIP3   OH234127   0.820   4.459  16.201  0.8062 -0.2135  0.2580
 3311TIP3    H134128   0.750   4.523  16.195  0.0390 -1.0854 -0.3913
 3311TIP3    H234129   0.803   4.413  16.283  1.9889  1.0973  1.2818
 3312TIP3   OH234130   8.387   4.649  16.011  0.2575  0.3399  0.0759
 3312TIP3    H134131   8.405   4.600  16.092 -0.7491  1.2612  0.8963
 3312TIP3    H234132   8.329   4.720  16.039 -0.8066  0.1819 -1.6057
 3313TIP3   OH234133   6.567   4.264  17.845  0.1348 -0.3832 -0.0266
 3313TIP3    H134134   6.589   4.349  17.883  0.3737  0.6086 -2.2222
 3313TIP3    H234135   6.651   4.218  17.840  0.1518 -0.3921  0.2752
 3314TIP3   OH234136   6.230   0.752  16.820  0.5168 -0.4266  0.1669
 3314TIP3    H134137   6.215   0.703  16.901  0.5971 -1.0672 -0.1942
 3314TIP3    H234138   6.311   0.801  16.836  1.1939 -1.4777  0.0641
 3315TIP3   OH234139   8.152   3.311  17.808  0.4395  0.1130  0.1350
 3315TIP3    H134140   8.174   3.381  17.747 -0.3657 -1.2711 -1.8243
 3315TIP3    H234141   8.064   3.333  17.838  0.9492  0.9515  1.1079
 3316TIP3   OH234142   5.983   7.391  16.942 -0.1581 -0.1568 -0.2622
 3316TIP3    H134143   6.008   7.349  17.024  0.9764  1.7235  0.4221
 3316TIP3    H234144   5.897   7.353  16.920 -1.6060  0.9140  2.9993
 3317TIP3   OH234145   0.587   4.149  16.914 -0.1854  0.2655  0.0609
 3317TIP3    H134146   0.601   4.188  16.827 -1.3311 -0.2201 -0.3730
 3317TIP3    H234147   0.492   4.146  16.923 -0.1214 -1.5891  0.4491
 3318TIP3   OH234148   2.014   1.807  15.290  0.4131 -0.7801 -0.6929
 3318TIP3    H134149   2.029   1.844  15.203  0.5115  1.7893  0.3365
 3318TIP3    H234150   2.030   1.879  15.350 -1.2658 -2.0120  1.3937
 3319TIP3   OH234151   4.879   4.877  17.183  0.1758 -0.1161  0.5517
 3319TIP3    H134152   4.943   4.892  17.113 -1.9683  1.6057 -1.1995
 3319TIP3    H234153   4.803   4.841  17.138 -1.0580  0.4435  2.1088
 3320TIP3   OH234154   1.704   7.670  16.648 -0.2187 -0.7405  0.5677
 3320TIP3    H134155   1.630   7.627  16.606 -0.8459  1.3077 -0.6074
 3320TIP3    H234156   1.745   7.720  16.577  0.6871  0.2402  1.7468
 3321TIP3   OH234157   1.553   4.018  15.233  0.4756 -0.6103  0.1256
 3321TIP3    H134158   1.469   3.988  15.267  0.7161 -0.0864  1.2054
 3321TIP3    H234159   1.537   4.030  15.139 -0.1891 -2.0964  0.0200
 3322TIP3   OH234160   8.141   4.195  17.259  0.1307 -0.1915 -0.2995
 3322TIP3    H134161   8.109   4.111  17.227  0.8193  0.0757 -1.7706
 3322TIP3    H234162   8.218   4.174  17.311  0.1759 -0.4917 -0.4884
 3323TIP3   OH234163   2.014   3.786  16.441  0.5317  0.3411  0.6567
 3323TIP3    H134164   1.995   3.801  16.348  1.1745  1.6033  0.7100
 3323TIP3    H234165   1.930   3.796  16.485  0.5377  1.5959  0.4109
 3324TIP3   OH234166   5.774   6.025  16.982  0.2704  0.1005  0.5741
 3324TIP3    H134167   5.747   6.068  17.063  0.0530  0.1350  0.4852
 3324TIP3    H234168   5.788   6.097  16.921 -3.5626 -0.0189 -0.6854
 3325TIP3   OH234169   2.062   2.616  16.568  0.4890 -0.3173 -0.1255
 3325TIP3    H134170   2.086   2.533  16.608 -2.3466 -2.1830 -1.9807
 3325TIP3    H234171   1.966   2.618  16.571  0.4293  2.9997 -0.0282
 3326TIP3   OH234172   1.830   6.252  17.566 -0.5816  0.2889  0.7248
 3326TIP3    H134173   1.905   6.193  17.559  0.0773  1.0520  1.1667
 3326TIP3    H234174   1.790   6.230  17.650 -1.4391 -0.7593  0.0781
 3327TIP3   OH234175   1.520   4.659  17.948  0.8404 -0.1698  0.1114
 3327TIP3    H134176   1.504   4.569  17.976 -1.2315 -0.3982 -1.5428
 3327TIP3    H234177   1.484   4.663  17.860  1.6777  2.0692 -0.1851
 3328TIP3   OH234178   5.733   2.458  17.437  0.0601  0.1962 -0.1981
 3328TIP3    H134179   5.733   2.472  17.342 -0.0005  1.2612 -0.0530
 3328TIP3    H234180   5.825   2.461  17.462  0.0631  0.1029 -0.1992
 3329TIP3   OH234181   6.214   8.434  15.775 -0.6358 -0.2116  0.1896
 3329TIP3    H134182   6.137   8.414  15.721  0.8592  0.5263 -2.4021
 3329TIP3    H234183   6.264   8.352  15.774  0.6952  0.5332 -1.9973
 3330TIP3   OH234184   4.029   3.118  16.689 -0.6092  0.4383  0.8819
 3330TIP3    H134185   4.120   3.143  16.670 -0.9160  0.2298 -1.0431
 3330TIP3    H234186   4.018   3.034  16.644 -2.7593  2.1207 -2.0197
 3331TIP3   OH234187   3.746   1.282  16.813  0.3147  0.2842 -0.1137
 3331TIP3    H134188   3.673   1.287  16.875 -1.0482 -2.5377 -1.2917
 3331TIP3    H234189   3.822   1.262  16.867 -0.2247  0.9391  0.9243
 3332TIP3   OH234190   3.292   5.853  15.562  0.3024 -0.2913  0.2806
 3332TIP3    H134191   3.362   5.816  15.616  0.0069 -2.3331 -0.6659
 3332TIP3    H234192   3.278   5.941  15.598  0.5511 -1.3213  3.1330
 3333TIP3   OH234193   4.161   7.632  16.399  0.1924  0.0461 -0.4670
 3333TIP3    H134194   4.255   7.650  16.403  0.3500 -0.7165 -0.6197
 3333TIP3    H234195   4.151   7.544  16.436 -0.6940  0.8484  1.3178
 3334TIP3   OH234196   3.918   4.494  16.215 -0.3263  0.5161  0.1413
 3334TIP3    H134197   3.938   4.481  16.307  0.2350  0.4766  0.0162
 3334TIP3    H234198   3.899   4.406  16.182  0.3861  0.4107  0.0095
 3335TIP3   OH234199   7.675   8.385  17.437 -0.1885  0.5938  0.0579
 3335TIP3    H134200   7.683   8.289  17.435 -0.1770  0.6039 -1.5789
 3335TIP3    H234201   7.581   8.401  17.444 -0.3053  0.4462 -1.0342
 3336TIP3   OH234202   0.554   0.881  17.370 -0.0414 -0.6098 -0.0867
 3336TIP3    H134203   0.590   0.886  17.281 -1.4135  0.2341 -0.6185
 3336TIP3    H234204   0.628   0.851  17.423  2.0630  2.7765 -0.7862
 3337TIP3   OH234205   3.420   3.740  16.206 -0.5018 -0.0209  0.2623
 3337TIP3    H134206   3.332   3.711  16.230 -0.8104 -0.5127 -1.3181
 3337TIP3    H234207   3.408   3.829  16.174 -0.4585 -0.1295 -0.0635
 3338TIP3   OH234208   6.562   7.204  16.749  0.0249  0.5935 -0.3085
 3338TIP3    H134209   6.656   7.184  16.740  0.0020 -0.4667  1.3011
 3338TIP3    H234210   6.519   7.143  16.688  0.2348 -1.4878  1.4704
 3339TIP3   OH234211   5.289   6.806  16.903  0.1117 -0.6697  0.3158
 3339TIP3    H134212   5.307   6.895  16.873 -1.0697 -0.6985 -0.5488
 3339TIP3    H234213   5.200   6.809  16.939 -0.3987 -1.7211 -0.7717
 3340TIP3   OH234214   3.219   0.670  16.672  0.9595  0.4284 -0.3956
 3340TIP3    H134215   3.249   0.713  16.752 -0.8184  2.2787 -0.6274
 3340TIP3    H234216   3.124   0.666  16.682  0.8844 -1.3295 -1.4876
 3341TIP3   OH234217   3.729   0.269  15.554  0.1597  0.0262 -0.1786
 3341TIP3    H134218   3.763   0.180  15.556  0.1923 -0.1209 -3.1893
 3341TIP3    H234219   3.807   0.325  15.559  0.2122 -0.1096  0.6592
 3342TIP3   OH234220   0.257   0.617  17.927  0.2487 -0.6298 -0.4031
 3342TIP3    H134221   0.293   0.542  17.974  1.2549 -1.1483 -1.9346
 3342TIP3    H234222   0.172   0.586  17.894 -0.8221 -0.0140  1.6407
 3343TIP3   OH234223   4.157   1.432  17.365 -0.0557 -0.1325  0.0502
 3343TIP3    H134224   4.159   1.351  17.314 -1.8936 -0.0592 -0.2112
 3343TIP3    H234225   4.137   1.404  17.454 -3.0455  0.1186 -0.4551
 3344TIP3   OH234226   4.281   6.136  17.316  0.2826 -0.3772  0.0106
 3344TIP3    H134227   4.372   6.144  17.347  0.3756  2.4361 -0.6949
 3344TIP3    H234228   4.230   6.183  17.381 -0.3711 -0.0387 -0.7352
 3345TIP3   OH234229   6.962   3.529  17.437  0.1611 -0.3235 -0.1399
 3345TIP3    H134230   6.995   3.617  17.453  0.6210 -0.3267 -1.0229
 3345TIP3    H234231   6.973   3.515  17.343 -2.6520 -0.2037 -0.5847
 3346TIP3   OH234232   8.256   1.493  16.280 -0.0891  0.1798 -0.0199
 3346TIP3    H134233   8.292   1.545  16.352  0.0341 -2.1495  1.6888
 3346TIP3    H234234   8.162   1.494  16.295  0.0380 -1.4488  1.0343
 3347TIP3   OH234235   0.165   1.532  17.518 -0.6408 -0.6251  0.0413
 3347TIP3    H134236   0.245   1.481  17.514 -1.0245 -1.1829 -1.1030
 3347TIP3    H234237   0.094   1.468  17.510 -1.1751 -0.0809  0.2971
 3348TIP3   OH234238   1.958   1.938  15.710 -0.3733  0.1435  0.4456
 3348TIP3    H134239   1.869   1.924  15.676 -0.4652 -2.9769  1.5977
 3348TIP3    H234240   2.015   1.903  15.642 -0.2277 -0.4027  0.8344
 3349TIP3   OH234241   0.276   4.099  16.906 -0.3466 -0.4740 -0.4325
 3349TIP3    H134242   0.280   4.057  16.991 -0.9214  1.2074  0.4728
 3349TIP3    H234243   0.204   4.162  16.913 -3.0938 -2.9575 -3.4326
 3350TIP3   OH234244   3.832   0.361  16.034  0.1302 -0.1660 -0.6609
 3350TIP3    H134245   3.753   0.330  16.078 -0.1126 -1.0974 -1.7081
 3350TIP3    H234246   3.904   0.334  16.091 -0.2813  0.5697  0.2287
 3351TIP3   OH234247   7.737   4.578  17.269 -0.0199  0.1510  0.5302
 3351TIP3    H134248   7.663   4.547  17.217 -0.3186 -0.7495  1.4732
 3351TIP3    H234249   7.805   4.512  17.255 -0.2396 -0.3098  1.5867
 3352TIP3   OH234250   8.070   7.203  17.041  0.0688 -0.0947 -0.0043
 3352TIP3    H134251   8.033   7.120  17.070  0.1120 -0.0592  0.1500
 3352TIP3    H234252   8.110   7.241  17.119  3.4706 -1.7202 -0.7429
 3353TIP3   OH234253   7.596   6.778  16.138 -0.4665 -0.2765  0.5999
 3353TIP3    H134254   7.597   6.807  16.047 -1.0693  1.3312  1.0732
 3353TIP3    H234255   7.580   6.683  16.133  1.1779 -0.5297 -0.9990
 3354TIP3   OH234256   2.476   7.875  17.306 -0.1344  0.6717 -0.2841
 3354TIP3    H134257   2.559   7.900  17.346 -0.1803 -0.7006  0.7725
 3354TIP3    H234258   2.478   7.779  17.304 -1.3837  0.6288 -0.9107
 3355TIP3   OH234259   1.085   2.226  15.849 -0.5050 -0.1486  0.1016
 3355TIP3    H134260   0.992   2.247  15.845 -0.3501  0.6855  0.7288
 3355TIP3    H234261   1.112   2.217  15.758 -1.1780 -0.3102 -0.0837
 3356TIP3   OH234262   2.874   4.761  15.821 -0.1702  0.0273 -0.4593
 3356TIP3    H134263   2.841   4.684  15.867  2.7973 -0.4205  1.1457
 3356TIP3    H234264   2.816   4.832  15.850 -0.8687 -0.9929  0.7821
 3357TIP3   OH234265   2.839   0.261  16.467 -0.1325  0.0496 -0.4715
 3357TIP3    H134266   2.868   0.261  16.376 -0.0129  0.7556 -0.4429
 3357TIP3    H234267   2.887   0.334  16.507  1.4769 -1.5795  0.7084
 3358TIP3   OH234268   6.432   8.123  15.497  0.1799 -0.2167  0.0022
 3358TIP3    H134269   6.440   8.215  15.472  3.3106 -0.5867 -0.8505
 3358TIP3    H234270   6.346   8.097  15.466 -0.3416  2.1261 -0.7442
 3359TIP3   OH234271   7.910   0.994  17.455  0.2593  0.0517 -0.5126
 3359TIP3    H134272   7.883   1.006  17.364 -1.5110 -1.5442 -0.2498
 3359TIP3    H234273   7.870   1.066  17.502  1.4357  1.0635 -1.0071
 3360TIP3   OH234274   5.136   1.047  15.835  0.1803 -0.2198 -0.4484
 3360TIP3    H134275   5.113   1.074  15.924  0.2771  0.1837 -0.5442
 3360TIP3    H234276   5.074   0.978  15.814  1.7171 -2.1124  0.8779
 3361TIP3   OH234277   5.028   6.815  17.871 -0.2195  0.1899  0.3240
 3361TIP3    H134278   5.029   6.846  17.781 -1.3814 -0.9926 -0.1242
 3361TIP3    H234279   5.120   6.796  17.891  0.0239  0.2382 -0.6943
 3362TIP3   OH234280   0.189   6.936  16.225 -0.2422 -0.0008 -0.1533
 3362TIP3    H134281   0.284   6.944  16.231 -0.3081  0.1684  0.7524
 3362TIP3    H234282   0.158   7.026  16.216 -0.2611 -0.1260 -1.6300
 3363TIP3   OH234283   3.206   1.183  15.793  0.1953 -0.1579 -0.3761
 3363TIP3    H134284   3.148   1.108  15.807  0.0630  0.0742  0.3409
 3363TIP3    H234285   3.264   1.155  15.722  0.0215 -0.8683 -0.2460
 3364TIP3   OH234286   8.265   7.153  15.707  0.3897  0.1991  0.1115
 3364TIP3    H134287   8.264   7.074  15.652 -0.1733  0.0644  0.3122
 3364TIP3    H234288   8.358   7.167  15.726  0.5023 -0.3683  0.0011
 3365TIP3   OH234289   2.281   3.022  17.773 -0.0412 -0.7743  0.5224
 3365TIP3    H134290   2.333   3.008  17.694 -0.1308  0.0579  0.3040
 3365TIP3    H234291   2.333   3.082  17.826 -1.0496  0.6394 -0.0086
 3366TIP3   OH234292   5.202   6.002  15.797 -0.4994 -0.7790 -0.0660
 3366TIP3    H134293   5.210   5.929  15.736 -1.2640  0.0426 -1.1954
 3366TIP3    H234294   5.286   6.047  15.792 -0.3066 -1.1303  0.0269
 3367TIP3   OH234295   6.673   7.861  16.192  0.4174 -0.0013 -0.1331
 3367TIP3    H134296   6.702   7.785  16.142 -0.1251  0.5147 -1.2535
 3367TIP3    H234297   6.749   7.885  16.245  0.9295 -0.7019 -0.5386
 3368TIP3   OH234298   2.107   4.346  16.709 -0.5105  0.2378  0.6268
 3368TIP3    H134299   2.023   4.329  16.666 -0.5351 -0.8963  1.0941
 3368TIP3    H234300   2.086   4.350  16.802 -0.1140  0.4366  0.7118
 3369TIP3   OH234301   5.505   0.932  17.110 -0.2546  0.0992 -0.5588
 3369TIP3    H134302   5.425   0.965  17.152  0.8365 -0.7933  2.4341
 3369TIP3    H234303   5.507   0.839  17.132  0.6962 -0.3132 -2.2224
 3370TIP3   OH234304   1.930   1.302  15.296  0.0709  0.3478 -0.1477
 3370TIP3    H134305   1.902   1.337  15.381 -2.3252 -1.0445 -0.2754
 3370TIP3    H234306   1.879   1.352  15.232  0.4140  0.0783 -0.6314
 3371TIP3   OH234307   6.837   2.201  15.946  0.2884 -0.6429  0.1731
 3371TIP3    H134308   6.884   2.264  15.999  1.3213 -1.3824  0.1559
 3371TIP3    H234309   6.841   2.236  15.857  0.1294 -0.3213  0.2922
 3372TIP3   OH234310   8.237   2.570  15.271 -0.3980  0.0569 -0.3766
 3372TIP3    H134311   8.259   2.626  15.346  0.8657 -0.0344 -0.6592
 3372TIP3    H234312   8.276   2.616  15.195  1.1887 -1.4639 -0.5421
 3373TIP3   OH234313   7.682   5.976  17.139 -0.2386  0.0476  0.1072
 3373TIP3    H134314   7.644   5.926  17.066  0.1378  0.5987 -0.4722
 3373TIP3    H234315   7.728   6.048  17.097 -0.5769  0.7519  0.9280
 3374TIP3   OH234316   0.408   2.464  15.409  0.2341 -0.2488  0.1829
 3374TIP3    H134317   0.404   2.372  15.434  2.2414 -0.6337 -0.6831
 3374TIP3    H234318   0.488   2.471  15.357  1.3133  2.4103  2.0024
 3375TIP3   OH234319   6.755   7.141  17.215 -0.4156  0.8381  0.3782
 3375TIP3    H134320   6.770   7.048  17.233  2.2850  0.8799 -1.0764
 3375TIP3    H234321   6.691   7.142  17.145 -0.4710  0.0690  0.4034
 3376TIP3   OH234322   1.356   2.088  15.104  0.0042  0.2974 -0.1397
 3376TIP3    H134323   1.297   2.159  15.131 -0.9910 -0.5587  0.0195
 3376TIP3    H234324   1.444   2.121  15.123 -0.5078  0.9079  1.3695
 3377TIP3   OH234325   4.079   1.138  15.686  0.3905  0.5531 -0.4874
 3377TIP3    H134326   4.012   1.079  15.648 -0.1843  2.0888 -2.0191
 3377TIP3    H234327   4.028   1.207  15.728  1.0474  0.6108  0.2198
 3378TIP3   OH234328   7.507   4.472  16.843  0.7696  0.0448 -0.8036
 3378TIP3    H134329   7.425   4.506  16.808  0.0363 -0.9721 -0.1199
 3378TIP3    H234330   7.533   4.402  16.784  1.2810  0.5209 -1.1532
 3379TIP3   OH234331   7.401   7.483  17.832 -0.0017 -0.4171  0.2499
 3379TIP3    H134332   7.371   7.527  17.752  0.0013  1.5865  1.2709
 3379TIP3    H234333   7.488   7.520  17.849 -0.1798 -0.4662  1.3882
 3380TIP3   OH234334   6.824   0.453  15.446  0.1155  0.6432  0.2481
 3380TIP3    H134335   6.781   0.378  15.486  0.2809 -0.2054 -1.0860
 3380TIP3    H234336   6.912   0.421  15.425 -0.2120  0.7808 -1.4557
 3381TIP3   OH234337   0.853   1.446  15.418  0.3049 -0.2002  0.0322
 3381TIP3    H134338   0.854   1.371  15.360  0.3795  0.9652 -1.5253
 3381TIP3    H234339   0.835   1.409  15.505  0.7474 -2.0309 -0.6187
 3382TIP3   OH234340   2.478   8.082  16.353  0.3461 -0.4626  0.0927
 3382TIP3    H134341   2.433   8.054  16.273 -0.4520 -1.0364  0.7301
 3382TIP3    H234342   2.455   8.175  16.361 -1.2083 -0.8583  0.6821
 3383TIP3   OH234343   1.069   6.842  16.516  0.0134 -0.2267 -0.0954
 3383TIP3    H134344   1.118   6.834  16.435  1.7330 -0.8216  0.9637
 3383TIP3    H234345   1.059   6.937  16.528 -1.3605 -0.1387 -1.5914
 3384TIP3   OH234346   4.637   6.761  16.136 -0.2944  0.5649  0.1577
 3384TIP3    H134347   4.667   6.849  16.113  0.8611 -0.2712 -1.7954
 3384TIP3    H234348   4.549   6.756  16.099 -0.5132  1.0317  0.6115
 3385TIP3   OH234349   3.930   7.873  16.482  0.9306  0.3534 -0.2182
 3385TIP3    H134350   3.990   7.900  16.413  0.5824 -1.9074 -1.5016
 3385TIP3    H234351   3.936   7.777  16.483 -0.4961  0.2192  1.6216
 3386TIP3   OH234352   3.637   7.708  17.834 -0.1851  0.2835  0.3951
 3386TIP3    H134353   3.710   7.666  17.789 -0.6252 -0.0281 -0.0286
 3386TIP3    H234354   3.560   7.657  17.810 -0.3000 -0.5847  2.3575
 3387TIP3   OH234355   5.979   4.924  17.348  0.5484 -0.5977  0.4093
 3387TIP3    H134356   6.049   4.861  17.364  0.9391 -0.0295  1.0362
 3387TIP3    H234357   5.999   4.997  17.407  0.3199  0.2779 -0.5690
 3388TIP3   OH234358   8.063   3.378  16.169 -0.4511  0.5340  0.1879
 3388TIP3    H134359   8.072   3.296  16.120 -1.9601 -0.1975  1.0689
 3388TIP3    H234360   7.970   3.400  16.164 -0.3418  1.3638  1.2650
 3389TIP3   OH234361   3.560   5.330  15.983  0.0599 -0.3093 -0.1159
 3389TIP3    H134362   3.595   5.357  15.898 -1.7361  0.5219 -0.6357
 3389TIP3    H234363   3.590   5.239  15.993  0.6707 -0.2780 -1.4289
 3390TIP3   OH234364   2.583   6.523  17.847  0.1362  0.0426 -0.7358
 3390TIP3    H134365   2.649   6.530  17.915 -0.0523 -1.5338 -0.3463
 3390TIP3    H234366   2.632   6.516  17.765  0.3904  0.6188 -0.6372
 3391TIP3   OH234367   0.413   8.207  17.376 -0.2387 -0.2030 -0.0440
 3391TIP3    H134368   0.443   8.127  17.333 -0.4020 -0.4533  0.2980
 3391TIP3    H234369   0.410   8.184  17.469  0.2326  0.3650  0.1173
 3392TIP3   OH234370   6.923   6.696  16.334 -0.4580 -0.1231 -0.4495
 3392TIP3    H134371   6.876   6.745  16.266 -1.0275  0.1319  0.1230
 3392TIP3    H234372   6.876   6.612  16.340 -0.3355 -0.1921 -0.4485
 3393TIP3   OH234373   0.684   1.405  17.370 -0.2926  0.3476 -0.3850
 3393TIP3    H134374   0.716   1.315  17.376 -0.4285  0.3010 -0.3640
 3393TIP3    H234375   0.590   1.398  17.387 -0.0519  0.6938  1.2683
 3394TIP3   OH234376   4.060   6.996  15.580  0.2637  0.7990 -0.0330
 3394TIP3    H134377   4.101   7.008  15.666  2.7256  0.9005 -1.1559
 3394TIP3    H234378   4.072   7.080  15.535 -0.8022  0.6753 -0.5951
 3395TIP3   OH234379   1.337   3.014  16.422  0.3982 -0.0057  0.3993
 3395TIP3    H134380   1.291   3.088  16.382  1.7200  1.0483  0.7703
 3395TIP3    H234381   1.285   2.994  16.500 -1.5753 -1.3704 -1.1560
 3396TIP3   OH234382   0.189   2.008  16.824  0.1209  0.4536 -0.2135
 3396TIP3    H134383   0.264   2.057  16.859 -0.0463  0.9391 -0.5092
 3396TIP3    H234384   0.224   1.960  16.749  0.4772 -0.5827  0.6056
 3397TIP3   OH234385   3.223   1.859  15.631  0.3080  0.1782  0.6220
 3397TIP3    H134386   3.165   1.790  15.599  0.0812  0.8180 -0.4177
 3397TIP3    H234387   3.180   1.891  15.710 -1.8661  1.9148 -1.0972
 3398TIP3   OH234388   4.276   2.860  16.581  0.1571 -0.4627  0.7633
 3398TIP3    H134389   4.264   2.788  16.642  0.5233 -0.4657  0.8358
 3398TIP3    H234390   4.190   2.901  16.575 -0.6225 -2.2251 -0.9676
 3399TIP3   OH234391   2.490   4.800  16.442 -0.0572 -0.4116  0.0456
 3399TIP3    H134392   2.398   4.820  16.424  0.0323  0.6649  0.7230
 3399TIP3    H234393   2.505   4.831  16.532  1.4102  1.0349 -0.6372
 3400TIP3   OH234394   3.327   4.107  15.809  0.0657 -0.1697 -0.0508
 3400TIP3    H134395   3.406   4.095  15.757  1.6330 -0.2954  2.2364
 3400TIP3    H234396   3.305   4.200  15.800  0.6074 -0.0800 -0.4813
 3401TIP3   OH234397   0.766   8.304  17.467 -0.2365 -0.3133 -0.2680
 3401TIP3    H134398   0.831   8.241  17.437 -0.6932 -1.6015  1.3685
 3401TIP3    H234399   0.747   8.279  17.557 -1.0220  1.6927  0.1695
 3402TIP3   OH234400   8.274   7.330  17.749 -0.2650  0.3666  0.4519
 3402TIP3    H134401   8.206   7.390  17.780  0.8177  0.9688  1.7384
 3402TIP3    H234402   8.229   7.246  17.741 -1.3102  0.8847  0.6533
 3403TIP3   OH234403   4.029   7.431  15.778  0.1317 -0.0177 -0.2510
 3403TIP3    H134404   4.101   7.374  15.750 -0.3942 -0.1506 -1.3844
 3403TIP3    H234405   4.062   7.476  15.855  1.0239 -0.9111 -0.0987
 3404TIP3   OH234406   4.972   2.396  16.149 -0.1969 -0.6372  0.3260
 3404TIP3    H134407   5.034   2.324  16.149  0.8063  0.1847  1.3508
 3404TIP3    H234408   4.970   2.427  16.058  1.0838 -0.5353  0.3183
 3405TIP3   OH234409   0.182   0.619  16.289  0.0129  0.0136  0.7792
 3405TIP3    H134410   0.206   0.687  16.352  0.0496  0.6979  0.0577
 3405TIP3    H234411   0.147   0.548  16.342  0.0751  0.5528  1.5669
 3406TIP3   OH234412   7.985   5.265  16.626 -0.0917  0.3237 -0.1919
 3406TIP3    H134413   8.008   5.358  16.638  0.2552  0.1069  1.0232
 3406TIP3    H234414   7.908   5.253  16.682  1.2201 -0.6192  1.5090
 3407TIP3   OH234415   7.223   2.088  15.813  0.6813 -0.0410  0.2846
 3407TIP3    H134416   7.183   2.144  15.748  3.4288  2.0454  0.2034
 3407TIP3    H234417   7.262   2.016  15.763  0.3781  0.0166 -0.0343
 3408TIP3   OH234418   1.072   0.817  16.700  0.5478  0.0213 -0.4187
 3408TIP3    H134419   1.072   0.787  16.791 -0.9201  0.9651 -0.0836
 3408TIP3    H234420   1.088   0.737  16.649 -0.7157 -0.9013  0.5744
 3409TIP3   OH234421   1.479   2.752  15.086  0.2484 -0.4601 -0.2437
 3409TIP3    H134422   1.564   2.740  15.130  0.4046  2.1473  0.3237
 3409TIP3    H234423   1.433   2.669  15.099  2.3076 -1.5819  0.3164
 3410TIP3   OH234424   2.532   2.266  15.991 -0.6273  0.6237  0.5312
 3410TIP3    H134425   2.596   2.245  15.923  1.6910  3.1673  1.7076
 3410TIP3    H234426   2.558   2.213  16.066 -0.5805  0.8570  0.6814
 3411TIP3   OH234427   0.160   4.581  16.518 -0.2931 -0.0034  0.0878
 3411TIP3    H134428   0.142   4.663  16.565 -1.6321 -1.1246  1.6720
 3411TIP3    H234429   0.171   4.516  16.587  0.0911 -1.2866 -1.1413
 3412TIP3   OH234430   7.708   2.049  16.408 -0.3712  0.2600 -0.0406
 3412TIP3    H134431   7.655   1.981  16.367 -1.3207  0.5882  0.6094
 3412TIP3    H234432   7.652   2.127  16.407  0.8328  1.1490 -1.1063
 3413TIP3   OH234433   8.283   3.492  18.055 -0.7292  0.3871 -0.8604
 3413TIP3    H134434   8.337   3.550  18.002 -0.6186 -0.0134 -1.1871
 3413TIP3    H234435   8.196   3.532  18.053  0.1107  2.7416  2.1436
 3414TIP3   OH234436   6.455   3.017  17.859  0.6622  0.4694  0.3904
 3414TIP3    H134437   6.431   2.925  17.863  1.3964  0.2331 -0.4342
 3414TIP3    H234438   6.396   3.055  17.794 -1.1351  1.0924  2.2649
 3415TIP3   OH234439   1.725   3.833  15.356  0.0117 -0.0362  0.4788
 3415TIP3    H134440   1.692   3.881  15.279  0.5076 -1.9932 -1.0337
 3415TIP3    H234441   1.777   3.898  15.403 -0.0776  1.1736 -0.9911
 3416TIP3   OH234442   0.476   0.971  17.663  0.3899 -0.1008  0.3689
 3416TIP3    H134443   0.427   0.901  17.706  1.3227 -1.2742 -0.4079
 3416TIP3    H234444   0.481   0.944  17.571  1.8369  0.3636  0.2918
 3417TIP3   OH234445   4.844   6.970  17.415 -0.1497  0.1079  0.2227
 3417TIP3    H134446   4.832   6.875  17.415 -1.8621  0.2928  0.0833
 3417TIP3    H234447   4.913   6.985  17.480 -0.1649 -1.1836  0.5774
 3418TIP3   OH234448   3.760   6.202  17.724  0.7621 -0.2777  0.0389
 3418TIP3    H134449   3.719   6.285  17.747 -0.1866 -1.5160  3.3283
 3418TIP3    H234450   3.853   6.215  17.741  0.5327 -0.0415  1.1996
 3419TIP3   OH234451   3.234   5.776  17.178 -0.0450  0.2665 -0.5873
 3419TIP3    H134452   3.316   5.738  17.211 -0.7644 -1.6411 -0.8957
 3419TIP3    H234453   3.262   5.832  17.105  1.1596  1.3781  0.6472
 3420TIP3   OH234454   4.397   3.390  16.312 -0.5925 -0.6243  0.4993
 3420TIP3    H134455   4.468   3.337  16.275  0.4353  0.7501  0.4169
 3420TIP3    H234456   4.337   3.403  16.239  0.5273  0.5735 -0.2503
 3421TIP3   OH234457   7.877   0.527  15.791 -0.2865  0.1908  0.0147
 3421TIP3    H134458   7.820   0.513  15.716 -0.3277  0.9668 -0.0997
 3421TIP3    H234459   7.903   0.618  15.785  2.5586 -0.5888 -1.0532
 3422TIP3   OH234460   0.907   1.210  16.008 -0.0226  0.2007  0.1840
 3422TIP3    H134461   0.890   1.229  15.916  0.4570 -1.6347 -0.3420
 3422TIP3    H234462   0.959   1.129  16.006 -1.0263 -0.5638  2.0967
 3423TIP3   OH234463   5.851   8.241  16.606 -0.2368  0.1643 -0.2098
 3423TIP3    H134464   5.891   8.308  16.661 -0.1267 -1.1447  1.3930
 3423TIP3    H234465   5.795   8.192  16.666  0.7132 -2.0023 -0.9928
 3424TIP3   OH234466   3.215   0.846  16.200  0.1815 -0.1852  0.0040
 3424TIP3    H134467   3.129   0.854  16.241  0.1831  2.1057 -0.3249
 3424TIP3    H234468   3.270   0.806  16.267 -1.0361 -1.3654  0.3399
 3425TIP3   OH234469   7.785   5.554  16.889  0.6971  0.2556 -0.3496
 3425TIP3    H134470   7.807   5.646  16.875  1.0373  0.3419  0.6711
 3425TIP3    H234471   7.800   5.540  16.983  0.8720 -0.8948 -0.5373
 3426TIP3   OH234472   0.665   3.815  17.009  0.2486 -0.1967  0.1714
 3426TIP3    H134473   0.644   3.889  16.952  0.5559 -0.1934  0.0582
 3426TIP3    H234474   0.737   3.771  16.964 -1.0339 -1.5589 -0.6379
 3427TIP3   OH234475   5.765   8.167  17.177 -0.1017 -0.1195  0.2171
 3427TIP3    H134476   5.727   8.160  17.265 -1.1815  0.4025 -0.1922
 3427TIP3    H234477   5.711   8.110  17.123 -1.4980  2.0032 -0.7400
 3428TIP3   OH234478   3.254   1.391  16.243  0.1390 -0.1577 -0.0746
 3428TIP3    H134479   3.242   1.415  16.151  1.2194 -0.8327 -0.4046
 3428TIP3    H234480   3.210   1.461  16.291  0.2540  0.6377 -1.0858
 3429TIP3   OH234481   7.411   7.498  16.411  0.4541 -0.7619 -0.6386
 3429TIP3    H134482   7.438   7.517  16.501 -1.8472  0.0432 -0.0476
 3429TIP3    H234483   7.418   7.582  16.366  0.3452 -0.8660 -0.8493
 3430TIP3   OH234484   2.891   5.244  16.642 -0.1181 -0.6460 -0.6732
 3430TIP3    H134485   2.968   5.267  16.590 -1.1020  0.6031 -1.6254
 3430TIP3    H234486   2.883   5.315  16.707 -1.8661  0.6346 -2.1851
 3431TIP3   OH234487   4.347   2.531  16.864  0.2948  0.2012  0.1533
 3431TIP3    H134488   4.299   2.454  16.893  0.3596 -0.6582 -1.8329
 3431TIP3    H234489   4.283   2.582  16.814  0.7204  0.5106 -0.0835
 3432TIP3   OH234490   4.485   1.642  16.478 -0.5068  0.0269 -0.2152
 3432TIP3    H134491   4.564   1.637  16.532 -1.6176 -0.0577  1.4609
 3432TIP3    H234492   4.453   1.552  16.473  0.7580 -0.3934 -2.9672
 3433TIP3   OH234493   3.275   1.730  16.573 -0.1178  0.2693  0.3486
 3433TIP3    H134494   3.271   1.643  16.613 -0.0601 -0.0828 -0.4010
 3433TIP3    H234495   3.357   1.767  16.605 -0.0888  0.0041  0.5855
 3434TIP3   OH234496   0.379   5.642  15.678  0.5122  0.2257 -0.3295
 3434TIP3    H134497   0.455   5.647  15.736 -1.1836 -2.9749  2.5149
 3434TIP3    H234498   0.396   5.566  15.622 -0.4898 -0.4285  0.2319
 3435TIP3   OH234499   4.232   2.578  16.091  0.2227  0.1917 -0.3758
 3435TIP3    H134500   4.221   2.556  16.183  0.6052 -1.3760 -0.6838
 3435TIP3    H234501   4.146   2.608  16.062  0.5105  2.5386  0.9117
 3436TIP3   OH234502   0.490   7.193  18.127 -0.1026  0.1948 -0.3125
 3436TIP3    H134503   0.583   7.185  18.105  0.1463 -0.7224  1.0047
 3436TIP3    H234504   0.445   7.167  18.047  0.7835 -1.6961 -0.2543
 3437TIP3   OH234505   3.111   0.668  17.076  0.3882  0.3958 -0.9115
 3437TIP3    H134506   3.054   0.739  17.104 -0.4357 -0.8372  0.7053
 3437TIP3    H234507   3.055   0.590  17.076  1.6480 -0.5508 -1.0285
 3438TIP3   OH234508   1.892   7.155  17.500 -0.4983 -0.0771  0.6602
 3438TIP3    H134509   1.825   7.107  17.549 -0.3534 -0.4351  0.5077
 3438TIP3    H234510   1.854   7.242  17.488 -1.5531 -0.6770 -0.6356
 3439TIP3   OH234511   7.220   0.602  17.014  0.5460  0.4466 -0.1708
 3439TIP3    H134512   7.273   0.537  17.059  0.8518  0.0328 -1.1265
 3439TIP3    H234513   7.211   0.570  16.925 -0.3769  1.0710 -0.3218
 3440TIP3   OH234514   8.375   4.258  17.421 -0.2719  0.0223 -0.0901
 3440TIP3    H134515   8.428   4.230  17.496 -1.8152 -1.2432  0.5916
 3440TIP3    H234516   8.354   4.349  17.440  0.7399  0.2182  0.1632
 3441TIP3   OH234517   4.291   3.190  16.609 -0.3838 -0.1691  0.2819
 3441TIP3    H134518   4.380   3.211  16.637 -0.0632 -1.4744  0.3106
 3441TIP3    H234519   4.283   3.229  16.522  0.6372 -1.0565 -0.2204
 3442TIP3   OH234520   5.417   0.927  17.891 -0.5032  0.0321  0.1595
 3442TIP3    H134521   5.332   0.970  17.887 -1.3469 -1.5093  0.7601
 3442TIP3    H234522   5.474   0.991  17.934 -1.7350  0.5281  1.1098
 3443TIP3   OH234523   1.750   6.963  17.292  0.2483  0.0067  0.0028
 3443TIP3    H134524   1.840   6.933  17.300  0.2573 -0.2304 -0.8955
 3443TIP3    H234525   1.698   6.883  17.287 -0.0943  0.1315  1.1549
 3444TIP3   OH234526   5.421   1.155  16.538 -0.6738 -0.1924 -0.1686
 3444TIP3    H134527   5.364   1.208  16.482 -0.2447 -0.4794 -0.8823
 3444TIP3    H234528   5.486   1.118  16.479 -0.0996 -0.3540  0.5472
 3445TIP3   OH234529   0.093   4.832  17.801 -0.0416  0.2501  0.2541
 3445TIP3    H134530   0.161   4.768  17.821  0.3956  0.5465 -0.2708
 3445TIP3    H234531   0.011   4.789  17.826  0.0427 -1.3141 -1.9115
 3446TIP3   OH234532   6.440   2.073  16.455  0.0712  0.5564 -0.1783
 3446TIP3    H134533   6.491   2.033  16.385  0.2518 -0.8255  0.7123
 3446TIP3    H234534   6.352   2.081  16.417 -0.6290 -2.9769  0.3128
 3447TIP3   OH234535   6.364   8.281  16.677  0.3016 -0.1278 -0.6707
 3447TIP3    H134536   6.405   8.194  16.669 -0.0311 -0.2995 -0.5383
 3447TIP3    H234537   6.271   8.262  16.687  0.5215  0.0555  2.7438
 3448TIP3   OH234538   0.303   5.881  17.410 -0.4259 -0.5779 -0.9224
 3448TIP3    H134539   0.327   5.965  17.371 -0.9950 -0.0419 -0.1436
 3448TIP3    H234540   0.222   5.856  17.365 -0.2330 -0.7337 -1.1849
 3449TIP3   OH234541   1.860   2.577  15.277 -0.1244  0.4059 -0.3304
 3449TIP3    H134542   1.943   2.603  15.236 -0.0287  0.8183  0.1057
 3449TIP3    H234543   1.802   2.652  15.264 -0.2586  0.3298 -0.1769
 3450TIP3   OH234544   1.970   1.176  16.920  0.1046  0.3175 -0.4322
 3450TIP3    H134545   1.994   1.093  16.959 -1.2332  0.5604  0.9628
 3450TIP3    H234546   1.882   1.163  16.885  0.5205  0.6813 -1.7025
 3451TIP3   OH234547   6.680   3.095  16.899 -0.2203 -0.4541 -0.1404
 3451TIP3    H134548   6.723   3.128  16.978  0.9138 -2.0150 -0.0583
 3451TIP3    H234549   6.752   3.067  16.842 -1.0657 -2.1296 -0.4693
 3452TIP3   OH234550   5.157   6.721  17.399  0.1730  0.3988 -0.3089
 3452TIP3    H134551   5.109   6.716  17.482  0.2348  0.4553 -0.2700
 3452TIP3    H234552   5.213   6.643  17.400  0.1441  0.3782 -0.3156
 3453TIP3   OH234553   1.446   7.404  17.845  0.4867  0.2593  0.2546
 3453TIP3    H134554   1.454   7.491  17.883  0.6794 -0.9016  3.0655
 3453TIP3    H234555   1.526   7.392  17.793 -0.0858  2.1286 -1.1843
 3454TIP3   OH234556   7.843   5.166  16.839 -0.0030 -0.6385 -0.3091
 3454TIP3    H134557   7.789   5.205  16.908  0.3656 -2.3151  1.0032
 3454TIP3    H234558   7.780   5.131  16.776 -0.3632  0.2438 -0.4453
 3455TIP3   OH234559   2.371   7.919  16.749  0.1559  0.2443  0.3020
 3455TIP3    H134560   2.296   7.869  16.782 -0.0675  0.6535  0.4308
 3455TIP3    H234561   2.443   7.856  16.745  0.2350  0.2076  1.7504
 3456TIP3   OH234562   6.561   4.025  17.292  0.5948 -0.7207  0.7658
 3456TIP3    H134563   6.614   4.061  17.363  1.9845 -0.9270 -0.1230
 3456TIP3    H234564   6.616   3.958  17.252 -0.4207 -1.0829 -0.0808
 3457TIP3   OH234565   5.217   5.038  17.133  1.3049 -0.3428 -0.1068
 3457TIP3    H134566   5.248   5.028  17.223  2.2372 -0.5384 -0.4459
 3457TIP3    H234567   5.203   4.948  17.103  0.8194 -0.2720 -0.1088
 3458TIP3   OH234568   7.898   2.931  17.774 -0.0959  0.7483 -0.0141
 3458TIP3    H134569   7.848   2.883  17.708  1.2346  0.2042 -0.6575
 3458TIP3    H234570   7.854   2.912  17.856  0.1635 -1.2802 -0.3027
 3459TIP3   OH234571   4.813   1.855  16.521  0.2348 -0.2455  0.6822
 3459TIP3    H134572   4.831   1.829  16.431  2.1655 -0.2251  1.0200
 3459TIP3    H234573   4.755   1.930  16.513  0.4123 -0.2189 -0.5522
 3460TIP3   OH234574   5.055   7.814  17.538 -0.1092 -0.2225 -0.0983
 3460TIP3    H134575   5.068   7.758  17.461 -0.0827 -1.0312  0.4778
 3460TIP3    H234576   5.004   7.888  17.505  0.4294 -0.2481 -1.0189
 3461TIP3   OH234577   4.481   5.639  15.644  0.4245  0.0856  0.4521
 3461TIP3    H134578   4.537   5.681  15.579 -0.0671 -1.3978 -0.9833
 3461TIP3    H234579   4.516   5.669  15.728  2.3002  0.5438 -0.4329
 3462TIP3   OH234580   1.578   0.011  16.056  0.4523 -0.1878  0.1798
 3462TIP3    H134581   1.616  -0.032  15.979  1.0241  0.6524 -0.0224
 3462TIP3    H234582   1.559   0.100  16.027  1.0803  0.2719  1.1225
 3463TIP3   OH234583   5.379   7.644  17.574  0.0865  0.0317  0.1381
 3463TIP3    H134584   5.298   7.680  17.613  1.0884  0.8697  1.5471
 3463TIP3    H234585   5.348   7.590  17.501 -1.7027  1.0233  0.0882
 3464TIP3   OH234586   2.912   2.770  17.463 -0.0892 -0.6949  0.0067
 3464TIP3    H134587   2.931   2.730  17.379 -0.9343  0.5494 -0.8198
 3464TIP3    H234588   2.984   2.831  17.478 -0.7888  0.3210 -0.6621
 3465TIP3   OH234589   7.882   0.195  16.685 -0.0231  0.3615  0.7068
 3465TIP3    H134590   7.855   0.199  16.593 -0.1735 -0.5036  0.7127
 3465TIP3    H234591   7.953   0.259  16.691 -1.2943  1.8603  0.4354
 3466TIP3   OH234592   1.909   5.649  16.690 -0.0362  0.1217  0.9779
 3466TIP3    H134593   1.922   5.724  16.748 -1.0205 -0.1733  1.5969
 3466TIP3    H234594   1.814   5.644  16.679  0.0657 -0.6552  0.4360
 3467TIP3   OH234595   2.168   6.630  17.377 -0.2733  0.3448 -0.0646
 3467TIP3    H134596   2.102   6.587  17.432 -0.4484  0.4034 -0.2294
 3467TIP3    H234597   2.224   6.677  17.439  1.3319 -1.9632  0.3804
 3468TIP3   OH234598   4.544   7.624  15.922  0.6584 -0.1326  0.1161
 3468TIP3    H134599   4.487   7.701  15.916 -1.3709 -1.6202 -1.3015
 3468TIP3    H234600   4.487   7.556  15.957  0.9262 -2.1464 -2.9442
 3469TIP3   OH234601   0.068   5.437  17.310  0.0837 -0.3867  0.7121
 3469TIP3    H134602   0.018   5.426  17.391 -2.6958  0.4825 -0.7459
 3469TIP3    H234603   0.095   5.349  17.287 -3.7481 -1.5351 -0.0771
 3470TIP3   OH234604   5.965   1.972  17.452 -0.4921  0.0475 -0.0957
 3470TIP3    H134605   6.037   1.912  17.431  0.8459  1.1935  1.0620
 3470TIP3    H234606   5.921   1.931  17.526 -0.7632 -0.4389 -0.5228
 3471TIP3   OH234607   7.998   7.837  16.344 -0.5270  0.8140 -0.3024
 3471TIP3    H134608   8.008   7.810  16.252  0.4617  1.4890 -0.4095
 3471TIP3    H234609   7.985   7.932  16.339 -0.5840  0.8367  0.2608
 3472TIP3   OH234610   2.935   8.148  17.627 -0.2777  0.1023  0.6670
 3472TIP3    H134611   3.020   8.120  17.592 -1.0946 -0.2939 -1.1387
 3472TIP3    H234612   2.912   8.082  17.691  0.2458 -0.4578  0.2880
 3473TIP3   OH234613   4.868   0.431  16.249  0.3039 -0.2164 -0.6336
 3473TIP3    H134614   4.926   0.487  16.300 -2.5942  2.4140  0.1181
 3473TIP3    H234615   4.871   0.468  16.161 -0.8454  0.5470 -0.3744
 3474TIP3   OH234616   4.522   3.661  16.244 -0.3695  0.0910  0.1858
 3474TIP3    H134617   4.458   3.595  16.271 -0.3321  0.7737  2.0475
 3474TIP3    H234618   4.533   3.646  16.150 -1.6040 -1.4619  0.2478
 3475TIP3   OH234619   2.696   5.575  17.490  0.3949  0.1091 -0.2359
 3475TIP3    H134620   2.750   5.565  17.569 -0.3172 -0.5258  0.1860
 3475TIP3    H234621   2.707   5.667  17.465  1.7079 -0.0107 -0.2034
 3476TIP3   OH234622   4.372   0.640  16.986  0.5559 -0.2688 -0.4083
 3476TIP3    H134623   4.450   0.591  16.957  0.6490 -0.4656  0.1691
 3476TIP3    H234624   4.310   0.573  17.013 -0.1372 -0.1498 -1.6191
 3477TIP3   OH234625   0.373   2.494  17.023 -0.5898 -0.4139 -0.5953
 3477TIP3    H134626   0.281   2.512  17.001 -1.1124 -2.3592 -0.2336
 3477TIP3    H234627   0.382   2.523  17.113 -1.1611 -1.0970 -0.3012
 3478TIP3   OH234628   7.943   0.100  17.443  0.2734 -0.4150  0.4302
 3478TIP3    H134629   8.029   0.064  17.424  0.6815  0.5921  0.3407
 3478TIP3    H234630   7.905   0.039  17.506  0.8019 -1.1968  0.0047
 3479TIP3   OH234631   2.886   5.000  16.996 -0.6557 -0.5731  0.1401
 3479TIP3    H134632   2.848   5.012  16.909 -0.4678  2.4385  0.3928
 3479TIP3    H234633   2.977   5.027  16.987 -0.2931 -1.4432  1.0210
 3480TIP3   OH234634   3.708   3.761  17.396  0.1518 -0.2895 -0.5637
 3480TIP3    H134635   3.722   3.756  17.490  0.0576 -0.7595 -0.5702
 3480TIP3    H234636   3.651   3.837  17.384 -0.7556 -0.8862 -0.1268
 3481TIP3   OH234637   2.499   1.333  16.707 -0.9023 -0.3233  0.3240
 3481TIP3    H134638   2.531   1.304  16.793 -2.1371  0.8426  1.2273
 3481TIP3    H234639   2.565   1.303  16.645  0.3994 -0.5564  1.7688
 3482TIP3   OH234640   6.804   4.027  17.089  0.3335 -0.0372 -0.1093
 3482TIP3    H134641   6.867   4.039  17.160 -0.1768  1.4460  0.1136
 3482TIP3    H234642   6.819   3.937  17.059  2.2646  0.1409  0.2070
 3483TIP3   OH234643   2.709   4.709  16.312 -0.7364 -0.3008 -0.3237
 3483TIP3    H134644   2.725   4.626  16.357  0.6641  0.1344  0.0142
 3483TIP3    H234645   2.626   4.740  16.347 -1.0168 -1.2981 -0.0702
 3484TIP3   OH234646   4.037   3.518  17.732  0.1207  0.0375 -0.4308
 3484TIP3    H134647   4.089   3.592  17.763  0.2378 -0.7881  1.4959
 3484TIP3    H234648   4.089   3.480  17.661  2.5319 -1.0796  1.7676
 3485TIP3   OH234649   7.168   7.958  16.289  0.1306 -0.6940  0.2150
 3485TIP3    H134650   7.092   7.954  16.347  0.5612 -1.5035  0.7343
 3485TIP3    H234651   7.145   7.903  16.214 -0.4336  0.3680 -0.4241
 3486TIP3   OH234652   2.983   3.725  17.188  0.6553  0.0183 -0.5492
 3486TIP3    H134653   3.017   3.696  17.273 -1.3831 -2.9121 -0.5755
 3486TIP3    H234654   2.944   3.811  17.206 -0.5472 -0.9151  1.7778
 3487TIP3   OH234655   5.314   2.453  17.652 -0.0016 -0.5142 -0.1595
 3487TIP3    H134656   5.403   2.438  17.619  0.1596  0.2424 -0.1082
 3487TIP3    H234657   5.257   2.412  17.588  0.3077  0.8634 -1.3880
 3488TIP3   OH234658   3.711   0.208  16.756  0.0632 -0.2206 -0.2288
 3488TIP3    H134659   3.731   0.182  16.666 -1.9344 -0.9741 -0.5191
 3488TIP3    H234660   3.629   0.162  16.777 -0.7370  1.6870  1.1827
 3489TIP3   OH234661   8.147   5.955  16.313 -0.2350 -0.0331  0.2303
 3489TIP3    H134662   8.079   5.900  16.274  2.7721 -2.2000 -2.5148
 3489TIP3    H234663   8.141   6.038  16.265 -0.3275 -0.5993 -0.7837
 3490TIP3   OH234664   7.852   8.364  16.568 -0.1684  0.1389  0.0486
 3490TIP3    H134665   7.859   8.330  16.657  0.4873  1.9123  0.7024
 3490TIP3    H234666   7.835   8.457  16.578  0.0914  0.4187 -1.6846
 3491TIP3   OH234667   8.001   6.035  16.616  0.4861 -0.0032  0.2818
 3491TIP3    H134668   7.955   5.976  16.677  0.4704  0.9157  1.1864
 3491TIP3    H234669   7.933   6.062  16.554  0.6690 -1.5504 -0.6671
 3492TIP3   OH234670   7.384   5.739  16.410 -0.4278 -0.3252 -0.0935
 3492TIP3    H134671   7.413   5.694  16.330  0.9159  0.0618  0.1455
 3492TIP3    H234672   7.357   5.668  16.468  0.7936 -0.8024 -0.0622
 3493TIP3   OH234673   1.069   0.993  15.999 -0.2842 -0.6074  0.4214
 3493TIP3    H134674   1.103   0.903  16.000  0.7983 -0.3922 -2.8216
 3493TIP3    H234675   1.134   1.044  16.046  0.6136 -1.1459 -0.1959
 3494TIP3   OH234676   0.054   0.152  16.515 -0.4466  0.0611  0.3502
 3494TIP3    H134677   0.065   0.069  16.562 -1.1569 -1.0819 -1.3856
 3494TIP3    H234678   0.123   0.152  16.449  0.1488  1.3335  0.9389
 3495TIP3   OH234679   6.805   2.382  16.180  0.0633 -0.0432 -0.4523
 3495TIP3    H134680   6.775   2.470  16.201  0.1930  0.0773 -0.7654
 3495TIP3    H234681   6.893   2.394  16.146 -0.0868 -0.2473 -0.9236
 3496TIP3   OH234682   0.475   0.155  17.088  0.0537 -0.0886 -0.3329
 3496TIP3    H134683   0.394   0.107  17.069 -0.8472  1.4980 -0.7393
 3496TIP3    H234684   0.470   0.232  17.032  2.6821 -0.7393 -1.5879
 3497TIP3   OH234685   3.288   1.878  17.207  0.2677 -0.4041 -0.2225
 3497TIP3    H134686   3.211   1.824  17.190  0.2963 -0.4352 -0.2534
 3497TIP3    H234687   3.258   1.943  17.271 -0.2610  0.6873 -1.5297
 3498TIP3   OH234688   3.495   0.050  16.757  0.5154 -0.1232 -0.1446
 3498TIP3    H134689   3.430   0.018  16.694 -1.0853  3.6236 -0.6452
 3498TIP3    H234690   3.476   0.001  16.837  0.8230 -3.0528 -1.7252
 3499TIP3   OH234691   1.486   1.221  16.920  0.4195  0.2967 -0.4114
 3499TIP3    H134692   1.455   1.180  16.840  1.0350  0.6299 -0.8230
 3499TIP3    H234693   1.425   1.190  16.988 -1.2800  1.4936 -1.3160
 3500TIP3   OH234694   4.898   6.454  17.802  0.1160 -0.2867  0.5133
 3500TIP3    H134695   4.820   6.398  17.797 -1.6987  2.2301 -2.0614
 3500TIP3    H234696   4.887   6.503  17.884 -1.7041  0.8438 -0.3454
 3501TIP3   OH234697   3.758   2.738  15.880 -0.1683 -0.5155  0.4955
 3501TIP3    H134698   3.800   2.774  15.958 -0.1294 -1.0515  0.7256
 3501TIP3    H234699   3.810   2.660  15.858  0.4755  0.2194 -0.7019
 3502TIP3   OH234700   2.315   5.759  16.948 -0.2105 -0.1498 -0.4196
 3502TIP3    H134701   2.291   5.781  16.858 -3.1678 -1.0083  0.0581
 3502TIP3    H234702   2.335   5.666  16.945 -0.1759 -0.1484 -0.2245
 3503TIP3   OH234703   6.348   2.351  16.604  0.2647 -0.6151  0.2608
 3503TIP3    H134704   6.276   2.329  16.545 -0.0576 -0.5561  0.6257
 3503TIP3    H234705   6.362   2.272  16.655  0.9671 -0.8784 -0.3172
 3504TIP3   OH234706   2.204   2.318  17.206  0.3875  0.9187  0.4206
 3504TIP3    H134707   2.201   2.372  17.284 -0.7885  1.6669 -0.1076
 3504TIP3    H234708   2.129   2.258  17.215  1.2318 -0.1279  0.6427
 3505TIP3   OH234709   1.254   1.634  16.318 -0.5897 -0.0360  0.1514
 3505TIP3    H134710   1.269   1.726  16.341 -1.1318  0.4488 -1.3274
 3505TIP3    H234711   1.160   1.621  16.330 -0.7494  0.0076 -0.9601
 3506TIP3   OH234712   0.196   1.582  16.930 -0.3570  0.4763 -0.3452
 3506TIP3    H134713   0.170   1.540  16.848 -0.3820  2.9589 -1.6937
 3506TIP3    H234714   0.144   1.538  16.997 -1.0070 -1.0100 -1.7535
 3507TIP3   OH234715   1.280   5.385  16.833  0.1882 -0.3724  0.1424
 3507TIP3    H134716   1.236   5.309  16.795 -1.6512 -0.5808  2.4045
 3507TIP3    H234717   1.257   5.458  16.776 -1.1261 -0.9231 -0.0720
 3508TIP3   OH234718   4.029   1.539  17.887 -0.3309 -0.3627 -0.6273
 3508TIP3    H134719   4.084   1.618  17.896 -1.8512  0.8286 -1.2901
 3508TIP3    H234720   3.941   1.573  17.873 -1.3284 -2.2112  0.6787
 3509TIP3   OH234721   5.566   1.123  16.920  0.2236  0.2090  0.1126
 3509TIP3    H134722   5.647   1.119  16.869 -0.1681 -1.7083 -0.4302
 3509TIP3    H234723   5.572   1.050  16.981 -1.0180  0.1441  0.1861
 3510TIP3   OH234724   5.570   2.546  16.036 -0.1591 -0.1705 -0.3968
 3510TIP3    H134725   5.622   2.539  15.956 -2.1212  0.8878 -1.8569
 3510TIP3    H234726   5.504   2.478  16.028 -0.9675  0.5663 -0.1727
 3511TIP3   OH234727   7.083   0.375  17.806  0.2606  1.0090 -0.5800
 3511TIP3    H134728   7.043   0.454  17.770 -3.3560  0.4294  1.6920
 3511TIP3    H234729   7.143   0.406  17.873 -1.6039  1.9400  0.7485
 3512TIP3   OH234730   0.413   8.279  16.388 -0.1593 -0.0342 -0.7994
 3512TIP3    H134731   0.330   8.297  16.433 -1.0017  0.1126 -2.3394
 3512TIP3    H234732   0.387   8.232  16.309  1.3987 -1.5294 -0.4528
 3513TIP3   OH234733   3.362   0.777  16.419 -0.8793  0.0803 -0.7077
 3513TIP3    H134734   3.365   0.795  16.513  1.2490 -0.0470 -0.6932
 3513TIP3    H234735   3.401   0.690  16.411  0.9323  0.9426 -1.8375
 3514TIP3   OH234736   7.535   8.039  16.079 -0.7674 -0.1484  0.2159
 3514TIP3    H134737   7.580   8.105  16.026 -0.8249 -0.4574 -0.2269
 3514TIP3    H234738   7.600   7.971  16.093 -1.8415 -2.0380 -2.9437
 3515TIP3   OH234739   4.542   4.843  17.766 -0.2333  0.0666  0.4739
 3515TIP3    H134740   4.613   4.782  17.789 -0.2805 -0.4807 -0.7550
 3515TIP3    H234741   4.523   4.824  17.675  0.2779  2.4802 -0.2035
 3516TIP3   OH234742   1.959   6.805  16.887  0.7280 -0.1269 -0.5895
 3516TIP3    H134743   2.021   6.876  16.906 -0.1914  0.4634  0.3250
 3516TIP3    H234744   1.874   6.850  16.878  0.1307 -1.0995  0.0104
 3517TIP3   OH234745   5.805   2.890  15.864 -0.2815 -0.3636 -0.5243
 3517TIP3    H134746   5.890   2.921  15.831 -0.8558  1.8041 -0.1218
 3517TIP3    H234747   5.773   2.831  15.796  1.8847 -1.8925 -0.3061
 3518TIP3   OH234748   6.643   5.067  16.995 -0.2678  0.1146  0.0870
 3518TIP3    H134749   6.628   5.106  17.081  1.0235  1.6038 -0.3142
 3518TIP3    H234750   6.565   5.015  16.978 -0.9265  0.4912  1.7801
 3519TIP3   OH234751   6.351   1.266  17.769  0.0697  0.4389 -0.1862
 3519TIP3    H134752   6.289   1.328  17.808  0.5727  0.9126 -0.1259
 3519TIP3    H234753   6.325   1.262  17.677 -1.4667 -1.1004  0.2523
 3520TIP3   OH234754   5.521   2.007  16.535  0.2279 -0.1018  0.1879
 3520TIP3    H134755   5.498   2.098  16.555  2.6727  0.7006 -0.4139
 3520TIP3    H234756   5.497   1.996  16.443  0.9507  0.2959 -0.0533
 3521TIP3   OH234757   0.126   2.706  16.030 -0.0893  0.4913  0.1913
 3521TIP3    H134758   0.124   2.792  16.071  2.1805  1.1556 -0.9163
 3521TIP3    H234759   0.135   2.724  15.936  1.7137 -0.8843  0.0354
 3522TIP3   OH234760   4.456   2.462  15.992 -0.6001 -0.5244  0.1530
 3522TIP3    H134761   4.463   2.457  15.897  0.9210 -2.6559  0.2992
 3522TIP3    H234762   4.370   2.501  16.008  0.4518  3.1711 -2.0312
 3523TIP3   OH234763   5.342   6.505  17.288 -0.5527 -0.2237  0.5036
 3523TIP3    H134764   5.345   6.563  17.212 -0.7058 -0.3459  0.4027
 3523TIP3    H234765   5.371   6.420  17.254  1.4105  0.1939  1.0545
 3524TIP3   OH234766   5.164   6.421  17.719 -0.1698 -0.1641  0.4214
 3524TIP3    H134767   5.075   6.414  17.754 -0.9124 -1.3293 -1.5472
 3524TIP3    H234768   5.191   6.511  17.739 -1.7867  0.2082  1.0455
 3525TIP3   OH234769   1.557   3.990  15.919  0.0745 -0.3069 -0.0929
 3525TIP3    H134770   1.527   3.973  16.009 -0.5587 -0.4863 -0.3308
 3525TIP3    H234771   1.639   3.942  15.912  0.0976 -0.3426  0.3734
 3526TIP3   OH234772   4.232   8.351  15.847 -0.7363 -0.2116 -0.2055
 3526TIP3    H134773   4.149   8.373  15.891 -0.1953  1.6539 -0.0595
 3526TIP3    H234774   4.300   8.386  15.905  0.0375  1.0743 -1.8296
 3527TIP3   OH234775   1.669   5.307  17.701 -0.1360  0.7050 -0.4954
 3527TIP3    H134776   1.758   5.284  17.730  0.7948  1.0508 -2.8267
 3527TIP3    H234777   1.674   5.400  17.679 -1.4481  1.0382  0.4918
 3528TIP3   OH234778   3.947   1.734  15.873  0.4107 -0.0308 -0.3310
 3528TIP3    H134779   3.874   1.676  15.851  1.5853 -1.3033 -1.0111
 3528TIP3    H234780   3.977   1.768  15.789  0.9304  0.0710 -0.1081
 3529TIP3   OH234781   3.742   5.477  17.039 -0.2465  0.2337  0.3295
 3529TIP3    H134782   3.679   5.424  16.992 -1.2490  1.2081  0.5271
 3529TIP3    H234783   3.809   5.498  16.975 -1.7355  1.7912 -0.8049
 3530TIP3   OH234784   1.825   8.262  17.681 -0.0224 -0.6750  0.5135
 3530TIP3    H134785   1.878   8.341  17.669 -0.1853 -0.3336  1.8843
 3530TIP3    H234786   1.874   8.194  17.635  0.6642  0.0039  0.2039
 3531TIP3   OH234787   8.380   6.633  16.414  0.4169 -0.3129 -0.1803
 3531TIP3    H134788   8.448   6.673  16.468  0.6441 -1.1010  0.1358
 3531TIP3    H234789   8.413   6.545  16.395 -0.6374 -0.8252  0.2449
 3532TIP3   OH234790   4.986   3.557  16.516  0.3714  0.3798  1.3378
 3532TIP3    H134791   5.048   3.627  16.535  1.6196 -0.7414  1.5842
 3532TIP3    H234792   4.986   3.503  16.595  0.1588 -0.4159  0.8091
 3533TIP3   OH234793   2.073   1.066  16.395 -0.1986 -0.1427  0.5325
 3533TIP3    H134794   2.093   1.112  16.477 -0.8365  1.1610 -0.0102
 3533TIP3    H234795   1.977   1.059  16.396 -0.2609  0.4867 -0.4071
 3534TIP3   OH234796   1.869   3.199  15.799 -0.5493 -0.3352  0.2960
 3534TIP3    H134797   1.882   3.117  15.752 -0.2526  0.9647 -2.0757
 3534TIP3    H234798   1.815   3.252  15.739 -0.2825  1.3789  1.5157
 3535TIP3   OH234799   8.247   7.884  17.666  0.2101  0.0486  0.3138
 3535TIP3    H134800   8.298   7.819  17.716  0.8799 -0.8624 -1.4604
 3535TIP3    H234801   8.180   7.832  17.621 -0.4824  0.8726  0.3699
 3536TIP3   OH234802   4.135   1.174  17.215  0.0477 -0.3547 -0.4414
 3536TIP3    H134803   4.228   1.158  17.231 -0.1142 -2.1115 -1.0288
 3536TIP3    H234804   4.091   1.141  17.293 -0.1555 -0.6852 -0.6934
 3537TIP3   OH234805   4.891   5.115  16.156 -0.0429 -0.1239  0.5079
 3537TIP3    H134806   4.858   5.119  16.067  0.9053 -0.7899  0.1132
 3537TIP3    H234807   4.956   5.185  16.162 -0.8066  0.5567  0.9847
 3538TIP3   OH234808   1.792   4.393  17.163  0.0527 -0.2230 -0.0015
 3538TIP3    H134809   1.701   4.377  17.137  0.0835  0.2024 -0.3962
 3538TIP3    H234810   1.787   4.413  17.257 -0.3104  0.1424 -0.0941
 3539TIP3   OH234811   3.393   1.196  17.210  0.5257  0.3523  0.0312
 3539TIP3    H134812   3.360   1.110  17.237  0.4459  0.2707 -0.3188
 3539TIP3    H234813   3.317   1.239  17.171  0.3867  0.8507  0.8297
 3540TIP3   OH234814   4.787   7.137  17.931  0.0487  0.1170  0.3047
 3540TIP3    H134815   4.822   7.087  17.857  0.9844  1.1691  0.0017
 3540TIP3    H234816   4.850   7.208  17.943 -1.7903  1.8804  0.0034
 3541TIP3   OH234817   2.802   2.586  17.762  0.2902 -0.4179  0.1139
 3541TIP3    H134818   2.753   2.522  17.710  1.0269  1.4076 -3.0810
 3541TIP3    H234819   2.888   2.591  17.720  0.7523  1.5662  1.1783
 3542TIP3   OH234820   0.021   7.500  17.302  0.1016 -0.1720 -0.2076
 3542TIP3    H134821  -0.011   7.485  17.213 -0.0198  0.4433 -0.2689
 3542TIP3    H234822   0.116   7.508  17.294  0.1160 -0.3797 -0.2453
 3543TIP3   OH234823   3.499   7.064  16.124  0.1859  0.2075  0.3880
 3543TIP3    H134824   3.532   7.153  16.108 -0.1951  0.4106  0.7243
 3543TIP3    H234825   3.575   7.008  16.110  0.5375  0.6238  0.5950
 3544TIP3   OH234826   3.535   1.263  16.981  0.3743  0.2404 -0.0311
 3544TIP3    H134827   3.520   1.183  16.930 -2.4227  0.2027  0.6575
 3544TIP3    H234828   3.490   1.247  17.064  2.2219  1.4791  1.2797
 3545TIP3   OH234829   4.469   3.419  17.402 -0.0295  0.4206 -0.3624
 3545TIP3    H134830   4.464   3.478  17.327 -0.2324  1.9008  0.7647
 3545TIP3    H234831   4.399   3.449  17.460 -0.3475 -1.1594  0.1153
 3546TIP3   OH234832   2.632   5.798  17.229 -0.4019 -0.7138  0.3708
 3546TIP3    H134833   2.665   5.885  17.251 -1.1245 -0.5757  0.9541
 3546TIP3    H234834   2.543   5.813  17.197 -0.2858 -1.1729 -0.1812
 3547TIP3   OH234835   1.854   8.177  16.156 -0.0044 -0.3681 -0.3414
 3547TIP3    H134836   1.885   8.198  16.068  1.1955 -0.8842 -0.0475
 3547TIP3    H234837   1.804   8.096  16.145 -1.2827  0.4552 -0.8087
 3548TIP3   OH234838   6.231   5.815  17.758  0.1426 -0.1181 -0.2044
 3548TIP3    H134839   6.232   5.808  17.854 -2.9256  0.2745 -0.0676
 3548TIP3    H234840   6.299   5.880  17.739 -0.2812  1.0126  1.8401
 3549TIP3   OH234841   0.126   2.571  16.256  0.3588  0.1872  0.2993
 3549TIP3    H134842   0.184   2.495  16.262  0.4019  0.0751 -1.2302
 3549TIP3    H234843   0.141   2.605  16.168 -0.1731  1.5638  0.7298
 3550TIP3   OH234844   2.930   5.902  17.351 -0.4481 -0.5042  0.4215
 3550TIP3    H134845   2.876   5.915  17.429 -0.6937 -0.7775  0.2951
 3550TIP3    H234846   2.945   5.808  17.348 -0.5359 -0.5065  0.0706
 3551TIP3   OH234847   0.340   3.125  17.172  0.3530 -0.1629  0.4980
 3551TIP3    H134848   0.308   3.048  17.126 -0.1974  0.2946  0.1011
 3551TIP3    H234849   0.338   3.100  17.264 -0.5377 -0.3767  0.4324
 3552TIP3   OH234850   6.280   8.143  15.764  0.2233  0.1560 -0.1695
 3552TIP3    H134851   6.258   8.141  15.857 -1.4905  4.6278 -0.2530
 3552TIP3    H234852   6.207   8.098  15.722  1.0424 -1.9586  0.5313
 3553TIP3   OH234853   3.432   1.670  15.655  0.1732  0.0345 -0.4067
 3553TIP3    H134854   3.501   1.729  15.625  1.0586 -0.1980  1.0599
 3553TIP3    H234855   3.355   1.726  15.666  0.9658  0.9294  0.8549
 3554TIP3   OH234856   5.427   5.036  16.462  0.0554 -0.1041  0.2954
 3554TIP3    H134857   5.463   4.982  16.533 -0.8908  0.3106  1.1153
 3554TIP3    H234858   5.359   5.089  16.504 -0.9764 -0.3060 -1.0467
 3555TIP3   OH234859   5.465   0.342  17.781 -0.1656  0.1098  0.5365
 3555TIP3    H134860   5.526   0.396  17.831  1.0040  1.4878 -2.1524
 3555TIP3    H234861   5.506   0.256  17.777  1.0486  0.7013 -0.2174
 3556TIP3   OH234862   1.919   3.225  16.768 -0.1363 -0.0736  0.3803
 3556TIP3    H134863   1.826   3.223  16.743 -0.7376 -1.2709  2.4220
 3556TIP3    H234864   1.944   3.317  16.758 -1.7051  0.3802  0.2537
 3557TIP3   OH234865   1.656   6.025  15.677  0.8045 -0.3938 -0.3884
 3557TIP3    H134866   1.650   5.983  15.763 -0.8787  0.3071 -0.1270
 3557TIP3    H234867   1.608   5.966  15.618 -0.5631  0.5192 -0.2442
 3558TIP3   OH234868   3.985   1.732  16.952 -0.3285  0.3572 -0.7286
 3558TIP3    H134869   3.981   1.645  16.990 -0.3378  0.6932  0.0455
 3558TIP3    H234870   3.907   1.777  16.986  1.1701  1.6009  1.1973
 3559TIP3   OH234871   7.719   2.367  15.365 -0.1642  0.2135 -0.4728
 3559TIP3    H134872   7.750   2.330  15.282  0.8085  1.7230 -0.8245
 3559TIP3    H234873   7.789   2.426  15.392 -1.1968  0.9867  0.5850
 3560TIP3   OH234874   8.249   1.548  17.238 -0.2906 -0.1266  0.1190
 3560TIP3    H134875   8.216   1.503  17.160 -0.2162 -0.4864  0.2936
 3560TIP3    H234876   8.189   1.623  17.250 -0.0419  0.1871 -0.5365
 3561TIP3   OH234877   7.555   4.485  17.696  0.2230  0.2979 -0.1619
 3561TIP3    H134878   7.466   4.458  17.675  0.9129 -1.0884 -1.4814
 3561TIP3    H234879   7.555   4.580  17.684 -0.8114  0.1882 -1.1644
 3562TIP3   OH234880   0.226   8.422  15.961 -0.0557 -0.5214 -0.0712
 3562TIP3    H134881   0.227   8.405  15.867  1.3387 -0.5531 -0.0730
 3562TIP3    H234882   0.152   8.371  15.994 -0.5543 -0.5139 -1.1490
 3563TIP3   OH234883   5.810   8.131  17.978 -0.3610 -0.4246 -0.3121
 3563TIP3    H134884   5.826   8.198  17.911 -1.2931  1.5736  1.3622
 3563TIP3    H234885   5.775   8.057  17.929  0.9217  0.1838 -2.2686
 3564TIP3   OH234886   7.481   7.081  16.602 -0.6997  0.0796  0.0894
 3564TIP3    H134887   7.516   7.168  16.621 -0.2591  0.1359 -0.8911
 3564TIP3    H234888   7.401   7.098  16.551 -1.6654 -0.0660  1.5107
 3565TIP3   OH234889   2.859   6.142  17.172 -0.1857 -0.2479 -0.8554
 3565TIP3    H134890   2.879   6.082  17.243  3.7473  0.4292 -1.1241
 3565TIP3    H234891   2.768   6.168  17.186 -0.9951 -3.6166  1.1614
 3566TIP3   OH234892   0.010   1.971  15.780  0.4385 -0.2628 -0.1833
 3566TIP3    H134893   0.032   1.963  15.873 -0.5682 -1.5880 -0.0456
 3566TIP3    H234894  -0.039   1.892  15.759 -0.7351  0.7464 -1.4647
 3567TIP3   OH234895   1.635   0.530  17.418  0.1749 -0.2880 -0.1740
 3567TIP3    H134896   1.662   0.525  17.327  0.7495  0.5178 -0.0567
 3567TIP3    H234897   1.716   0.547  17.466 -0.0035 -1.4516  0.5716
 3568TIP3   OH234898   1.834   4.063  16.339 -0.4700 -0.4925  0.4602
 3568TIP3    H134899   1.787   4.129  16.288 -0.1804 -0.9751 -0.4712
 3568TIP3    H234900   1.775   3.987  16.338  0.3937 -1.1886 -0.9398
 3569TIP3   OH234901   7.332   4.820  17.120 -0.0030  0.2465  0.0628
 3569TIP3    H134902   7.268   4.753  17.097  0.9290 -1.2157  1.4914
 3569TIP3    H234903   7.281   4.900  17.128 -1.2771 -0.4099 -0.9746
 3570TIP3   OH234904   1.395   2.113  16.549  0.4435  0.3386  0.3879
 3570TIP3    H134905   1.327   2.179  16.564  1.6195  1.5181  0.7392
 3570TIP3    H234906   1.474   2.164  16.534  1.0937 -0.9821 -0.9405
 3571TIP3   OH234907   2.899   0.235  15.779 -0.2494  0.1063  0.1694
 3571TIP3    H134908   2.847   0.176  15.726  0.1165 -0.2702  0.2187
 3571TIP3    H234909   2.885   0.206  15.869  0.3152 -0.2242  0.1572
 3572TIP3   OH234910   6.186   6.616  16.042  0.4002  0.2476 -0.7312
 3572TIP3    H134911   6.104   6.588  16.001  0.7694 -1.1680 -0.5367
 3572TIP3    H234912   6.166   6.703  16.078 -2.2950 -1.5635  2.7876
 3573TIP3   OH234913   0.389   6.645  17.954 -0.3156  0.5053  0.3765
 3573TIP3    H134914   0.385   6.572  18.016 -1.2845 -0.5701 -0.8933
 3573TIP3    H234915   0.417   6.720  18.006  0.2430 -0.6698  1.8127
 3574TIP3   OH234916   7.016   4.938  16.924  0.3827  0.5706 -0.1574
 3574TIP3    H134917   7.029   4.938  16.829  1.6553  1.4672 -0.0109
 3574TIP3    H234918   7.079   5.002  16.957  1.6098 -1.3530  1.4976
 3575TIP3   OH234919   5.193   3.595  17.737 -1.0689  0.0252  0.0927
 3575TIP3    H134920   5.222   3.634  17.654  1.3566 -2.3495 -0.3476
 3575TIP3    H234921   5.236   3.647  17.804 -1.2418  0.6228 -0.2583
 3576TIP3   OH234922   3.612   7.697  15.620 -0.8675  0.2270 -0.0865
 3576TIP3    H134923   3.681   7.630  15.621 -0.8855  0.1820  2.3053
 3576TIP3    H234924   3.531   7.647  15.609 -0.6827  0.1486 -1.2738
 3577TIP3   OH234925   3.431   2.908  15.766 -0.4850  0.0904  0.6590
 3577TIP3    H134926   3.401   2.992  15.731 -1.2188 -0.4032  0.0606
 3577TIP3    H234927   3.518   2.897  15.728 -1.0635 -0.1933 -0.6633
 3578TIP3   OH234928   5.928   4.183  16.471 -0.3010 -0.4680  0.1492
 3578TIP3    H134929   5.982   4.224  16.403 -0.9317  0.2211  0.0582
 3578TIP3    H234930   5.859   4.138  16.422 -0.6691 -0.0964  0.3242
 3579TIP3   OH234931   8.058   6.988  17.301 -0.1083  0.8122  0.0582
 3579TIP3    H134932   8.024   6.924  17.364  2.5403  0.1133  0.9089
 3579TIP3    H234933   8.079   7.065  17.354  3.1966 -0.1781  0.3554
 3580TIP3   OH234934   2.383   2.570  15.828 -0.1005 -0.0534 -0.0877
 3580TIP3    H134935   2.383   2.631  15.902 -0.4959  0.1796 -0.2743
 3580TIP3    H234936   2.429   2.617  15.759 -0.3224 -0.0008 -0.2016
 3581TIP3   OH234937   1.147   6.554  17.772  0.1492 -0.4233 -0.2828
 3581TIP3    H134938   1.225   6.503  17.752  0.7572  0.4071 -0.0808
 3581TIP3    H234939   1.074   6.494  17.754  0.7845 -0.8692 -1.4594
 3582TIP3   OH234940   5.046   0.214  17.824 -0.4255  0.3209  0.4122
 3582TIP3    H134941   5.086   0.184  17.906  1.1248  3.4953  0.9799
 3582TIP3    H234942   4.987   0.284  17.850  0.2747  1.5596 -1.1940
 3583TIP3   OH234943   2.716   4.948  15.942  0.1663 -0.1918 -0.5721
 3583TIP3    H134944   2.652   5.018  15.927 -1.3131 -1.1428  0.9781
 3583TIP3    H234945   2.752   4.967  16.029 -0.0381 -1.1886 -0.2639
 3584TIP3   OH234946   2.322   6.746  17.130 -0.2895  0.4822  0.6036
 3584TIP3    H134947   2.243   6.735  17.184  0.5967  1.6697  2.2560
 3584TIP3    H234948   2.387   6.782  17.191  1.8410 -1.3412 -0.4559
 3585TIP3   OH234949   2.839   7.593  17.465  0.4286  0.3890  0.0707
 3585TIP3    H134950   2.888   7.642  17.530 -0.1533  1.7452 -0.4632
 3585TIP3    H234951   2.865   7.632  17.381 -0.5531  0.2485 -0.3142
 3586TIP3   OH234952   5.731   5.883  17.276  0.1946 -0.1958  0.2911
 3586TIP3    H134953   5.685   5.850  17.199 -1.3236  4.3646 -1.0974
 3586TIP3    H234954   5.668   5.875  17.347  0.3072 -1.2414  0.2863
 3587TIP3   OH234955   6.778   6.709  16.653 -0.5434 -0.3073  0.0069
 3587TIP3    H134956   6.815   6.741  16.571  0.3480 -1.0736  0.0923
 3587TIP3    H234957   6.691   6.676  16.630 -0.1042 -0.9739 -0.7366
 3588TIP3   OH234958   1.615   7.193  17.246 -0.1249 -0.1853 -0.2106
 3588TIP3    H134959   1.640   7.103  17.266 -0.4855 -0.2299  0.0394
 3588TIP3    H234960   1.617   7.238  17.330 -2.9417 -0.6820  0.2384
 3589TIP3   OH234961   1.937   4.129  15.702  0.2827 -0.2529  0.7169
 3589TIP3    H134962   2.008   4.094  15.757  0.1704  0.6287  1.4339
 3589TIP3    H234963   1.874   4.166  15.764 -0.4300 -0.3238  0.0445
 3590TIP3   OH234964   5.762   4.121  16.232  0.2580  0.0226 -0.1248
 3590TIP3    H134965   5.735   4.134  16.141 -0.3374 -1.6332 -0.2269
 3590TIP3    H234966   5.857   4.107  16.227  0.3608  0.7599 -0.3761
 3591TIP3   OH234967   3.933   5.073  17.480 -0.0163 -0.1679 -0.4638
 3591TIP3    H134968   3.939   4.984  17.443  0.9923 -0.8226  1.1720
 3591TIP3    H234969   3.988   5.070  17.558  0.1829  1.9739 -0.4622
 3592TIP3   OH234970   2.048   5.908  15.855 -0.3477  0.3112  0.1904
 3592TIP3    H134971   2.000   5.949  15.783 -0.7168  0.8499  0.7368
 3592TIP3    H234972   2.016   5.818  15.856 -1.5331  0.7091  0.6756
 3593TIP3   OH234973   3.838   3.437  15.761  0.6197  0.1586 -0.2239
 3593TIP3    H134974   3.923   3.453  15.720 -0.3280  1.3671 -1.8372
 3593TIP3    H234975   3.808   3.355  15.721  0.1362  0.8183 -1.2495
 3594TIP3   OH234976   6.180   2.161  16.759 -0.0131 -0.3590  0.3792
 3594TIP3    H134977   6.121   2.219  16.807  0.1093 -1.5138  2.0044
 3594TIP3    H234978   6.122   2.105  16.707 -0.1443  0.9062 -0.9002
 3595TIP3   OH234979   2.515   4.285  15.975  0.4193  0.1715  0.3029
 3595TIP3    H134980   2.607   4.302  15.996  0.0760  0.3473  1.7484
 3595TIP3    H234981   2.478   4.371  15.957  0.2537  0.2443  0.9660
 3596TIP3   OH234982   7.722   2.836  16.269 -0.3208  0.6684 -0.5248
 3596TIP3    H134983   7.676   2.879  16.341  0.5155 -1.1287  1.1877
 3596TIP3    H234984   7.662   2.767  16.241  0.7746 -0.9951  0.9995
 3597TIP3   OH234985   2.062   2.121  15.921 -0.0780 -0.2925  0.3064
 3597TIP3    H134986   2.049   2.090  15.831  0.7828 -0.1047  0.1023
 3597TIP3    H234987   1.977   2.112  15.962 -0.5481 -0.1461 -0.6049
 3598TIP3   OH234988   2.008   7.536  16.981 -0.4285 -0.0808  0.3642
 3598TIP3    H134989   1.939   7.501  16.924  0.3530 -0.4269 -0.3997
 3598TIP3    H234990   2.074   7.467  16.983 -0.1535  0.2007  1.1856
 3599TIP3   OH234991   0.502   1.126  15.889  0.3090  0.2920  0.4600
 3599TIP3    H134992   0.420   1.077  15.897 -0.4783  1.0812 -1.8250
 3599TIP3    H234993   0.570   1.058  15.888 -0.3428 -0.4253  1.6357
 3600TIP3   OH234994   2.478   6.863  17.300 -0.5476 -0.0017  0.4462
 3600TIP3    H134995   2.561   6.896  17.263  0.0052  0.8924  2.3328
 3600TIP3    H234996   2.444   6.937  17.351 -1.9841 -0.7105  0.5614
 3601TIP3   OH234997   0.856   5.554  15.829 -0.6070 -0.1240 -0.3001
 3601TIP3    H134998   0.871   5.526  15.920  1.4267  0.2333 -0.4695
 3601TIP3    H234999   0.887   5.481  15.776 -1.7401 -0.3093 -0.7158
 3602TIP3   OH235000   7.253   4.571  17.489  0.3732  0.2468  0.3363
 3602TIP3    H135001   7.316   4.643  17.479  0.6717 -0.1984 -1.3073
 3602TIP3    H235002   7.293   4.498  17.442 -1.8363  0.2613 -1.7437
 3603TIP3   OH235003   3.154   3.707  16.666 -0.0383 -0.2341  0.1526
 3603TIP3    H135004   3.138   3.614  16.684 -0.5929  0.0132  0.9944
 3603TIP3    H235005   3.087   3.753  16.717  1.3166  0.7147  1.1519
 3604TIP3   OH235006   7.266   0.806  15.440  0.3539 -0.0035 -0.1338
 3604TIP3    H135007   7.352   0.775  15.468 -0.1699 -1.7240 -0.2771
 3604TIP3    H235008   7.260   0.780  15.348 -0.1226  0.5596 -0.2714
 3605TIP3   OH235009   6.091   1.854  16.657  0.0887 -0.5610 -0.5500
 3605TIP3    H135010   6.175   1.885  16.691 -1.4454  1.5491  1.6913
 3605TIP3    H235011   6.048   1.933  16.624 -1.5013 -1.3801 -0.5193
 3606TIP3   OH235012   7.931   3.808  15.470  0.0912 -0.0554  0.4650
 3606TIP3    H135013   8.006   3.860  15.499  1.2498 -0.0301 -2.2849
 3606TIP3    H235014   7.968   3.746  15.406 -1.9762 -1.1986  0.2860
 3607TIP3   OH235015   8.381   0.650  17.164 -0.5505 -0.3970 -0.2795
 3607TIP3    H135016   8.286   0.650  17.173 -0.5792 -0.4807 -0.5895
 3607TIP3    H235017   8.402   0.565  17.125 -0.4544  0.0931 -1.3216
 3608TIP3   OH235018   7.873   3.397  17.874 -0.2490 -0.0579  0.0386
 3608TIP3    H135019   7.778   3.393  17.865 -0.4854  1.9042  0.9749
 3608TIP3    H235020   7.889   3.379  17.967  0.2878 -0.3548 -0.1099
 3609TIP3   OH235021   7.566   1.860  16.239 -0.0892 -0.0024 -0.3111
 3609TIP3    H135022   7.530   1.883  16.153  0.1399  1.3641 -0.0572
 3609TIP3    H235023   7.494   1.815  16.283 -0.1229 -0.9809 -1.2926
 3610TIP3   OH235024   1.274   1.455  15.260  0.3533  0.1091 -0.3052
 3610TIP3    H135025   1.353   1.508  15.269  0.7224 -0.6009  0.9118
 3610TIP3    H235026   1.229   1.464  15.345 -0.0671 -0.7394 -0.4247
 3611TIP3   OH235027   7.978   1.302  16.266  0.3059  0.3363  0.6569
 3611TIP3    H135028   8.010   1.216  16.294 -0.5677 -0.2801 -0.1621
 3611TIP3    H235029   7.935   1.338  16.344  0.5799 -0.0022  0.9722
 3612TIP3   OH235030   6.842   4.558  16.124 -0.3095  0.6855 -0.2510
 3612TIP3    H135031   6.785   4.527  16.195 -0.1575 -0.1718 -0.4903
 3612TIP3    H235032   6.930   4.553  16.160 -0.3635  1.9486  0.0963
 3613TIP3   OH235033   0.035   8.237  16.065  0.3553 -0.0647 -0.0692
 3613TIP3    H135034   0.069   8.243  16.154 -3.8846 -1.6865  1.9191
 3613TIP3    H235035   0.020   8.144  16.050 -0.2043  0.2757 -1.9912
 3614TIP3   OH235036   2.977   5.700  16.955 -0.3904  0.1204  0.3587
 3614TIP3    H135037   3.044   5.751  16.910  0.2088  1.7618  2.9182
 3614TIP3    H235038   2.894   5.737  16.926 -0.1123 -0.0885 -0.7394
 3615TIP3   OH235039   6.525   6.212  16.026 -0.2222  0.1333 -0.0535
 3615TIP3    H135040   6.454   6.150  16.007  0.1138  0.4995 -3.0439
 3615TIP3    H235041   6.561   6.234  15.940  2.7216  0.9581  1.2620
 3616TIP3   OH235042   6.873   8.149  17.475  0.2823 -0.0944 -0.9570
 3616TIP3    H135043   6.952   8.097  17.486  0.9222  1.2451  1.7157
 3616TIP3    H235044   6.886   8.224  17.534 -1.8629  1.5195 -2.3985
 3617TIP3   OH235045   3.219   0.111  16.685 -0.3482  0.1026  0.1273
 3617TIP3    H135046   3.249   0.191  16.727  0.7115  0.7033 -1.6326
 3617TIP3    H235047   3.182   0.058  16.756  0.3143  1.4997  1.5712
 3618TIP3   OH235048   1.146   2.961  15.945 -0.0530  0.4185 -0.2699
 3618TIP3    H135049   1.166   2.887  16.002 -0.0795  1.9801  1.9337
 3618TIP3    H235050   1.052   2.958  15.932 -0.2780  0.8909  1.1099
 3619TIP3   OH235051   1.444   7.665  16.315  0.2236 -0.4110  0.0796
 3619TIP3    H135052   1.357   7.657  16.274  0.9722 -1.6585 -1.3662
 3619TIP3    H235053   1.505   7.632  16.249  1.9317  1.3794  0.6619
 3620TIP3   OH235054   4.578   0.055  16.565 -0.0207 -0.4179 -0.7992
 3620TIP3    H135055   4.638   0.107  16.511  0.8977 -0.2061  0.3684
 3620TIP3    H235056   4.499   0.108  16.570  0.5427  0.4313 -0.4667
 3621TIP3   OH235057   6.767   6.842  15.840 -0.4498 -0.3265 -0.0644
 3621TIP3    H135058   6.684   6.839  15.889  0.4436  0.1401  1.5593
 3621TIP3    H235059   6.818   6.910  15.884  0.8306 -0.6566 -0.9818
 3622TIP3   OH235060   2.709   0.730  16.498 -0.2656  0.1718 -0.9659
 3622TIP3    H135061   2.747   0.644  16.513 -0.8655  0.0334 -0.1584
 3622TIP3    H235062   2.783   0.790  16.501 -0.0489 -0.1312  0.2211
 3623TIP3   OH235063   4.939   3.244  15.936  0.0157 -0.4656  0.2005
 3623TIP3    H135064   5.034   3.249  15.945 -0.0362  0.4558  0.3306
 3623TIP3    H235065   4.910   3.335  15.931 -0.6750 -0.7266 -1.7794
 3624TIP3   OH235066   1.178   2.794  17.833  0.3200 -0.3368 -0.1288
 3624TIP3    H135067   1.208   2.862  17.771 -0.9777  0.4801  0.0947
 3624TIP3    H235068   1.242   2.796  17.903 -0.5534  1.8927  0.6987
 3625TIP3   OH235069   3.235   7.057  16.145 -0.0788  0.0040 -0.0850
 3625TIP3    H135070   3.233   7.011  16.062  1.4524 -0.3340  0.0318
 3625TIP3    H235071   3.328   7.073  16.162 -0.4179  1.0067  1.0484
 3626TIP3   OH235072   6.046   1.026  16.860 -0.5372 -0.0014  0.0505
 3626TIP3    H135073   6.050   1.091  16.930  0.1082 -1.2529  1.2147
 3626TIP3    H235074   6.125   1.043  16.808  1.0569 -1.4037  1.8425
 3627TIP3   OH235075   0.901   4.129  17.596 -0.0630  0.1967 -0.3244
 3627TIP3    H135076   0.885   4.171  17.511 -0.9294 -1.7578 -1.1904
 3627TIP3    H235077   0.979   4.076  17.582  0.5342  0.8168  0.5114
 3628TIP3   OH235078   6.461   0.124  15.922  0.1443 -0.2859 -0.6997
 3628TIP3    H135079   6.383   0.153  15.969  0.0309  0.5198 -1.3734
 3628TIP3    H235080   6.454   0.164  15.836  0.6181 -1.3210 -1.2400
 3629TIP3   OH235081   7.609   3.325  17.817 -0.7482 -0.4765 -0.3074
 3629TIP3    H135082   7.539   3.374  17.860  0.3172  0.6647  0.1918
 3629TIP3    H235083   7.575   3.236  17.808 -3.1326  0.5355 -2.1356
 3630TIP3   OH235084   8.314   8.019  16.083 -0.4433 -0.2344 -0.3655
 3630TIP3    H135085   8.375   7.951  16.112 -0.4271 -0.6990 -1.4453
 3630TIP3    H235086   8.269   7.980  16.008 -2.0795  0.1045  0.4060
 3631TIP3   OH235087   2.170   1.081  17.485 -0.0608 -0.2491 -0.2527
 3631TIP3    H135088   2.257   1.115  17.463  1.3558 -3.5015 -0.1949
 3631TIP3    H235089   2.177   0.987  17.472 -3.3387 -0.7473  0.7093
 3632TIP3   OH235090   7.685   4.293  17.903  0.3747  0.2130  0.6433
 3632TIP3    H135091   7.597   4.285  17.940  0.1084  0.5309  0.0811
 3632TIP3    H235092   7.677   4.362  17.838  1.3605  1.2380  1.5671
 3633TIP3   OH235093   0.558   7.946  16.717  0.1942 -0.2802 -0.2682
 3633TIP3    H135094   0.519   7.875  16.768 -0.8055 -0.6195 -1.4513
 3633TIP3    H235095   0.620   7.902  16.659 -0.3985 -0.2147 -0.9764
 3634TIP3   OH235096   3.256   1.130  17.648  0.0931 -0.1160  0.3003
 3634TIP3    H135097   3.288   1.167  17.731  1.8695 -2.7409  0.8914
 3634TIP3    H235098   3.165   1.159  17.643  0.2601  1.0660  2.5898
 3635TIP3   OH235099   3.260   6.829  16.342 -0.1470 -0.8245  0.0995
 3635TIP3    H135100   3.264   6.764  16.271 -1.2040 -0.8868  0.0919
 3635TIP3    H235101   3.246   6.913  16.297  1.6444 -0.4894  0.0745
 3636TIP3   OH235102   0.099   1.447  15.919 -0.3187 -0.0669 -0.5822
 3636TIP3    H135103   0.165   1.504  15.879 -0.1719 -0.9723 -1.6673
 3636TIP3    H235104   0.149   1.372  15.952 -0.3161  0.9824  2.0789
 3637TIP3   OH235105   7.237   4.024  17.016  0.2703 -0.0222 -0.7665
 3637TIP3    H135106   7.174   3.951  17.017  1.5413 -1.1570 -0.0117
 3637TIP3    H235107   7.209   4.078  16.942 -1.6584 -0.4079 -0.3924
 3638TIP3   OH235108   3.730   3.320  17.171  0.1392  0.0649 -0.4720
 3638TIP3    H135109   3.791   3.247  17.159 -0.3639 -0.2959 -0.8826
 3638TIP3    H235110   3.667   3.287  17.235  0.8350  0.7378  0.5990
 3639TIP3   OH235111   7.900   7.893  17.448 -0.4680 -0.7015 -0.6882
 3639TIP3    H135112   7.977   7.950  17.444 -0.7087 -0.3150  0.1072
 3639TIP3    H235113   7.891   7.859  17.358  1.1120 -1.4099 -0.6139
 3640TIP3   OH235114   6.119   4.297  16.315 -0.4411  0.5009 -0.0860
 3640TIP3    H135115   6.114   4.304  16.411 -3.8610  0.9577 -0.1661
 3640TIP3    H235116   6.190   4.356  16.290  0.6913  0.1965  2.1604
 3641TIP3   OH235117   5.877   2.898  17.450 -0.5735  0.3999 -0.3897
 3641TIP3    H135118   5.837   2.982  17.476  0.7478  1.4313 -1.4943
 3641TIP3    H235119   5.913   2.862  17.531 -2.2401  0.2640  0.3242
 3642TIP3   OH235120   3.967   1.141  16.234  0.0241 -0.1468 -0.4501
 3642TIP3    H135121   3.895   1.078  16.230  0.3313 -0.4508 -2.8167
 3642TIP3    H235122   4.004   1.130  16.322 -1.3030 -1.6744 -0.0314
 3643TIP3   OH235123   6.892   4.612  17.646 -0.2475 -0.3086  0.1540
 3643TIP3    H135124   6.873   4.705  17.656 -0.6742 -0.5005  1.2776
 3643TIP3    H235125   6.827   4.580  17.583 -0.1788  0.1223 -0.1387
 3644TIP3   OH235126   5.445   5.802  17.199  0.3182  0.1874  0.2921
 3644TIP3    H135127   5.472   5.789  17.290 -0.2273  0.6541  0.5206
 3644TIP3    H235128   5.387   5.728  17.181  1.7173 -0.8251 -0.2017
 3645TIP3   OH235129   0.686   7.901  17.736  0.1014  0.3817 -0.1691
 3645TIP3    H135130   0.742   7.832  17.699 -0.4367  0.6065 -1.4550
 3645TIP3    H235131   0.600   7.861  17.742 -0.2869  1.0172 -1.2230
 3646TIP3   OH235132   4.308   2.834  17.569 -0.5323 -0.1979 -0.2231
 3646TIP3    H135133   4.376   2.795  17.514 -1.9099 -1.1122 -1.3277
 3646TIP3    H235134   4.290   2.767  17.635 -0.4774 -0.0105 -0.0139
 3647TIP3   OH235135   5.584   4.290  16.584 -0.4144 -0.1054 -0.1331
 3647TIP3    H135136   5.500   4.332  16.600 -0.5117  0.2558 -1.4823
 3647TIP3    H235137   5.567   4.229  16.512 -0.1405 -2.0725  1.3575
 3648TIP3   OH235138   6.212   3.057  17.396 -0.1375 -0.3520  0.5134
 3648TIP3    H135139   6.228   3.121  17.328  0.0301  0.4372  1.2839
 3648TIP3    H235140   6.123   3.024  17.378  0.1181 -0.5598 -0.3944
 3649TIP3   OH235141   0.072   5.100  16.489  0.0992  0.5437  0.0311
 3649TIP3    H135142   0.060   5.010  16.460 -1.4046  1.1480 -1.3882
 3649TIP3    H235143   0.107   5.092  16.578  1.7619 -1.4027 -0.7270
 3650TIP3   OH235144   3.443   5.671  17.316  0.6656 -0.2455 -0.2202
 3650TIP3    H135145   3.493   5.595  17.346  1.8348  0.0909 -1.1991
 3650TIP3    H235146   3.452   5.736  17.386 -1.0523 -1.2702  1.0048
 3651TIP3   OH235147   3.103   5.676  17.400  0.2448  0.1992 -0.2960
 3651TIP3    H135148   3.060   5.606  17.352  0.2450  0.8119 -1.2286
 3651TIP3    H235149   3.168   5.711  17.339  0.5717  0.6960  0.3177
 3652TIP3   OH235150   3.330   0.349  17.277 -0.3077 -0.0120 -0.0448
 3652TIP3    H135151   3.234   0.343  17.276 -0.3150 -0.0296  0.5651
 3652TIP3    H235152   3.349   0.411  17.348  0.1897 -1.2530  0.9443
 3653TIP3   OH235153   5.209   2.604  16.877 -0.8992 -0.6635 -1.0019
 3653TIP3    H135154   5.200   2.596  16.972 -2.5150 -1.0748 -1.1552
 3653TIP3    H235155   5.273   2.674  16.865 -2.2759  0.9487  0.4136
 3654TIP3   OH235156   8.275   5.242  16.670 -0.3176  0.5138  0.3351
 3654TIP3    H135157   8.272   5.245  16.574  0.3389  0.1485  0.2961
 3654TIP3    H235158   8.183   5.232  16.696 -0.5133  0.7335 -0.2505
 3655TIP3   OH235159   4.783   7.367  16.637  0.0676 -0.5493  0.5990
 3655TIP3    H135160   4.740   7.282  16.633 -2.9906  0.8774  0.6129
 3655TIP3    H235161   4.776   7.394  16.729  1.7235 -0.5658  0.7616
 3656TIP3   OH235162   4.455   4.234  16.494 -0.4497  0.0574  0.5064
 3656TIP3    H135163   4.536   4.273  16.460 -0.3383  2.2256  2.9818
 3656TIP3    H235164   4.385   4.289  16.458 -0.7177 -0.6685 -0.1102
 3657TIP3   OH235165   3.911   7.067  17.394 -0.3297 -0.1265  0.5258
 3657TIP3    H135166   3.851   7.030  17.459  0.2687 -2.6487 -0.2493
 3657TIP3    H235167   3.992   7.017  17.406  0.6980  1.2699 -0.3439
 3658TIP3   OH235168   7.848   8.402  17.678  0.0813  0.5432  0.1888
 3658TIP3    H135169   7.814   8.315  17.656 -0.2692  1.0660 -1.4674
 3658TIP3    H235170   7.938   8.386  17.706  0.2070 -0.2984 -0.6642
 3659TIP3   OH235171   2.874   3.478  17.566 -0.9902 -0.3324  0.1612
 3659TIP3    H135172   2.900   3.451  17.478 -0.2521  0.4067  0.1379
 3659TIP3    H235173   2.956   3.485  17.615 -1.4564 -1.5299  1.1545
 3660TIP3   OH235174   2.391   6.427  17.557  0.1605  0.3925  0.7395
 3660TIP3    H135175   2.359   6.446  17.645 -0.9552  0.9083  0.2514
 3660TIP3    H235176   2.420   6.512  17.523  1.1635  0.0941  0.8137
 3661TIP3   OH235177   0.948   2.335  16.920  0.0367 -0.2500  0.3494
 3661TIP3    H135178   0.972   2.242  16.915 -1.2763 -0.6871  1.6116
 3661TIP3    H235179   1.005   2.371  16.988  0.6079 -0.0926 -0.2011
 3662TIP3   OH235180   7.962   2.555  15.311  0.2741  0.8872 -0.0432
 3662TIP3    H135181   8.056   2.536  15.304  0.1550 -0.0711  0.7826
 3662TIP3    H235182   7.958   2.644  15.345  0.8719  1.2424 -0.8547
 3663TIP3   OH235183   2.948   8.393  16.332 -0.1524  0.2999  0.5351
 3663TIP3    H135184   2.906   8.441  16.261  1.8233  0.4555 -0.6046
 3663TIP3    H235185   2.879   8.337  16.368 -1.2688  0.3960 -1.3458
 3664TIP3   OH235186   2.271   5.004  17.282 -0.1743 -0.7505  0.8408
 3664TIP3    H135187   2.340   5.005  17.215 -1.4467 -0.6171 -0.5241
 3664TIP3    H235188   2.309   4.956  17.355  2.2723  1.4367  1.1420
 3665TIP3   OH235189   4.021   6.985  16.897  0.2297  0.1721  0.3693
 3665TIP3    H135190   3.944   7.042  16.892  0.4830  0.4534 -0.4274
 3665TIP3    H235191   3.987   6.898  16.876  0.2613  0.4309 -0.8274
 3666TIP3   OH235192   0.626   2.102  17.191  0.0739  0.1867  0.0524
 3666TIP3    H135193   0.548   2.048  17.183  0.4016 -0.1285 -1.1890
 3666TIP3    H235194   0.699   2.040  17.186  0.4207  0.5540  0.4620
 3667TIP3   OH235195   4.805   1.542  16.544  0.0666 -0.2848  0.0164
 3667TIP3    H135196   4.800   1.450  16.570 -2.8649  0.1322  1.2294
 3667TIP3    H235197   4.761   1.546  16.459  0.0143  0.0396  0.0575
 3668TIP3   OH235198   0.567   6.904  17.637 -0.0651 -0.8018  0.5561
 3668TIP3    H135199   0.631   6.832  17.636  0.8323 -0.0394  1.0088
 3668TIP3    H235200   0.540   6.910  17.729 -2.0010 -2.1175  0.1303
 3669TIP3   OH235201   2.974   5.441  16.812 -0.5828  0.2183 -0.3137
 3669TIP3    H135202   2.991   5.518  16.867 -0.8849 -0.4900  0.8069
 3669TIP3    H235203   3.030   5.373  16.848 -1.8527 -0.6642  0.0588
 3670TIP3   OH235204   4.869   8.079  16.479 -0.8475 -0.2225 -0.1648
 3670TIP3    H135205   4.790   8.039  16.515 -0.0957 -0.3250  1.4503
 3670TIP3    H235206   4.882   8.035  16.395 -1.3626 -1.6764  0.4800
 3671TIP3   OH235207   7.548   6.154  16.512 -0.6277  0.1421 -0.4860
 3671TIP3    H135208   7.479   6.093  16.537 -2.1117  1.4323 -1.3022
 3671TIP3    H235209   7.553   6.216  16.585  2.2821 -1.9189  1.3408
 3672TIP3   OH235210   3.388   5.419  17.648 -0.3856 -0.0577 -0.2952
 3672TIP3    H135211   3.410   5.370  17.727 -0.5846 -0.6038 -0.5731
 3672TIP3    H235212   3.308   5.467  17.671  1.0777  2.0369  0.7645
 3673TIP3   OH235213   7.961   0.926  16.902  0.4221 -0.1326 -0.2134
 3673TIP3    H135214   8.038   0.884  16.939  0.0828 -0.7059 -0.1476
 3673TIP3    H235215   7.900   0.855  16.885  0.4798  0.1413 -1.6941
 3674TIP3   OH235216   2.582   1.617  16.689 -0.1647  0.1080  0.6294
 3674TIP3    H135217   2.560   1.547  16.750 -2.1453 -0.6407 -0.8484
 3674TIP3    H235218   2.677   1.628  16.699  0.5166 -3.7490 -0.0457
 3675TIP3   OH235219   6.689   6.372  16.384  0.5125  0.1930 -0.4526
 3675TIP3    H135220   6.722   6.289  16.351  0.3554  0.4707 -1.3281
 3675TIP3    H235221   6.726   6.379  16.472  0.3269 -0.9097 -0.2733
 3676TIP3   OH235222   1.001   3.097  16.385  0.0571  0.0222 -0.2649
 3676TIP3    H135223   0.924   3.110  16.440 -0.2378  1.8327 -1.0565
 3676TIP3    H235224   0.983   3.146  16.305  1.5713 -0.4369 -0.9319
 3677TIP3   OH235225   5.070   4.974  17.608 -0.1270  0.1043  0.6456
 3677TIP3    H135226   5.002   5.041  17.610 -0.0301  0.2310 -0.0679
 3677TIP3    H235227   5.124   4.992  17.685  0.9693  1.9789 -0.4779
 3678TIP3   OH235228   5.867   1.220  17.371 -0.0507 -0.3341  0.2669
 3678TIP3    H135229   5.884   1.170  17.452 -1.0459 -0.7568  0.2256
 3678TIP3    H235230   5.856   1.153  17.304  2.2233  0.0195 -0.5761
 3679TIP3   OH235231   0.011   7.079  17.122  0.6122 -0.2322 -0.0847
 3679TIP3    H135232   0.006   6.987  17.146  0.9771  0.1823  1.7674
 3679TIP3    H235233  -0.002   7.126  17.205 -1.1156  1.4317 -1.2108
 3680TIP3   OH235234   8.133   0.299  16.824 -0.2775  0.5783 -0.3871
 3680TIP3    H135235   8.165   0.218  16.785 -0.5345  0.3272 -0.0825
 3680TIP3    H235236   8.195   0.318  16.894  0.6436  1.4606 -1.4139
 3681TIP3   OH235237   0.973   1.982  15.611 -0.1003 -0.2537  0.3497
 3681TIP3    H135238   0.894   2.035  15.601  0.0461 -0.1004  0.0026
 3681TIP3    H235239   1.044   2.046  15.618  0.1119 -0.4068 -0.3695
 3682TIP3   OH235240   0.039   0.798  16.129  0.3124 -0.3688  0.1045
 3682TIP3    H135241   0.041   0.783  16.034 -0.2559  1.2565 -0.1861
 3682TIP3    H235242   0.099   0.732  16.164 -0.5517 -1.9627 -1.2240
 3683TIP3   OH235243   3.224   6.140  16.578  0.6062  0.7698 -0.0613
 3683TIP3    H135244   3.140   6.183  16.568  0.5805  0.8537  0.4731
 3683TIP3    H235245   3.209   6.071  16.643  0.8162  0.4220 -0.3771
 3684TIP3   OH235246   0.397   7.245  17.062  0.5846  0.0740 -0.3759
 3684TIP3    H135247   0.333   7.265  16.994  0.2846  1.4619  0.2716
 3684TIP3    H235248   0.374   7.157  17.092 -0.4126  0.1710 -0.8208
 3685TIP3   OH235249   1.415   8.321  16.900 -0.4360 -0.2833 -0.6068
 3685TIP3    H135250   1.507   8.296  16.899 -0.8121 -1.7470 -0.0960
 3685TIP3    H235251   1.367   8.239  16.910 -1.7680  0.5407  0.1172
 3686TIP3   OH235252   6.097   7.219  18.072  0.3710 -0.5950  0.2087
 3686TIP3    H135253   6.185   7.232  18.038 -0.3643 -0.3089 -1.7331
 3686TIP3    H235254   6.048   7.295  18.041 -0.6649 -0.9803  0.8557
 3687TIP3   OH235255   5.764   1.912  17.658 -0.3285  0.7027  0.0860
 3687TIP3    H135256   5.750   1.853  17.584 -1.7192  1.3366 -0.1795
 3687TIP3    H235257   5.729   1.996  17.630 -1.5582  0.7865  1.6811
 3688TIP3   OH235258   7.588   1.359  16.515 -0.2437 -0.0760 -0.0771
 3688TIP3    H135259   7.562   1.411  16.591  1.2835 -0.2231  0.5832
 3688TIP3    H235260   7.575   1.418  16.441  0.6050  0.9487  0.5632
 3689TIP3   OH235261   8.361   4.533  16.262  0.4838 -0.0369 -0.1751
 3689TIP3    H135262   8.340   4.482  16.340  2.4868 -2.5163 -1.1154
 3689TIP3    H235263   8.282   4.526  16.208 -0.3316  0.3677  0.9158
 3690TIP3   OH235264   6.140   8.322  16.925 -0.3244  0.8322 -0.8239
 3690TIP3    H135265   6.128   8.340  17.018  2.6413 -0.8739  0.0354
 3690TIP3    H235266   6.065   8.267  16.901 -0.9358  0.9821  0.6658
 3691TIP3   OH235267   8.196   3.623  16.752  0.4779  0.1080 -0.0329
 3691TIP3    H135268   8.231   3.537  16.775  0.2713  0.3652  1.3767
 3691TIP3    H235269   8.234   3.643  16.667  1.1745 -1.0242 -0.0040
 3692TIP3   OH235270   3.598   0.247  16.306  0.0452  0.4896 -0.1272
 3692TIP3    H135271   3.524   0.225  16.250  0.3698  0.7673 -0.6705
 3692TIP3    H235272   3.639   0.163  16.327 -0.8944  0.2574  0.8431
 3693TIP3   OH235273   5.531   6.786  17.792 -0.0894  0.3236 -0.2142
 3693TIP3    H135274   5.496   6.822  17.874  1.2782  1.0253  0.0897
 3693TIP3    H235275   5.602   6.845  17.768 -2.3691  2.0324 -3.6092
 3694TIP3   OH235276   8.387   5.294  16.341 -0.1899  0.1847  0.2880
 3694TIP3    H135277   8.442   5.220  16.366 -0.4898  0.4206  1.6987
 3694TIP3    H235278   8.356   5.271  16.253 -0.2933 -1.3775  0.6993
 3695TIP3   OH235279   8.083   5.513  16.638  0.4355 -0.7275  0.1526
 3695TIP3    H135280   8.047   5.595  16.606 -0.3523 -0.4425  1.6833
 3695TIP3    H235281   8.147   5.487  16.571  0.2314  0.7767 -0.6709
 3696TIP3   OH235282   5.868   4.118  17.655 -0.4516  0.0135 -0.0160
 3696TIP3    H135283   5.847   4.211  17.651  1.2063  0.3839 -1.4863
 3696TIP3    H235284   5.953   4.115  17.700 -1.3810 -1.0069  1.8068
 3697TIP3   OH235285   3.719   3.174  15.294  0.1358 -0.6000  0.5326
 3697TIP3    H135286   3.764   3.191  15.211  0.3027  0.2023  0.7861
 3697TIP3    H235287   3.766   3.099  15.331  0.3290 -0.6934  0.1057
 3698TIP3   OH235288   4.510   6.702  18.112 -0.1797  0.2073 -0.2056
 3698TIP3    H135289   4.499   6.726  18.204  2.9894 -0.6978  0.5287
 3698TIP3    H235290   4.464   6.619  18.103 -0.1502  0.0928  0.6654
 3699TIP3   OH235291   1.252   5.775  16.093 -0.0575  0.2233  0.3951
 3699TIP3    H135292   1.179   5.754  16.035 -0.3163 -0.9325  1.1275
 3699TIP3    H235293   1.329   5.769  16.037 -0.3591 -0.3298  0.0328
 3700TIP3   OH235294   7.135   1.882  17.763 -0.0406 -0.1390 -0.3591
 3700TIP3    H135295   7.168   1.793  17.753  1.6815  0.2136  1.5513
 3700TIP3    H235296   7.167   1.927  17.684 -0.9095 -1.1533 -1.3306
 3701TIP3   OH235297   6.897   3.730  17.916  0.1815  0.0973  0.4228
 3701TIP3    H135298   6.803   3.750  17.908  0.2473  0.2075 -0.0819
 3701TIP3    H235299   6.899   3.641  17.950 -0.1070 -0.0067  0.1753
 3702TIP3   OH235300   1.039   1.074  16.968 -0.3068  0.2890 -0.6651
 3702TIP3    H135301   1.034   1.068  17.063  0.7946  1.3267 -0.5141
 3702TIP3    H235302   1.106   1.141  16.952 -2.0485  1.7867 -2.1516
 3703TIP3   OH235303   5.552   3.393  17.283 -0.2143 -0.1676 -0.0680
 3703TIP3    H135304   5.511   3.322  17.233 -1.1209  1.0215 -1.0797
 3703TIP3    H235305   5.554   3.467  17.222  2.5181  0.1654  0.2956
 3704TIP3   OH235306   6.378   5.444  16.638 -0.0978  0.4453  0.6864
 3704TIP3    H135307   6.412   5.416  16.722  3.0925 -1.2882 -0.9798
 3704TIP3    H235308   6.456   5.469  16.588 -1.5683 -0.7289 -2.4512
 3705TIP3   OH235309   1.807   0.803  17.154 -0.5431 -0.5666  0.2616
 3705TIP3    H135310   1.841   0.742  17.089 -0.5318 -0.2943  0.0145
 3705TIP3    H235311   1.867   0.795  17.228  0.3725  0.3103 -0.3760
 3706TIP3   OH235312   4.134   7.857  17.011 -0.0248  0.4698 -0.3032
 3706TIP3    H135313   4.061   7.919  17.019 -0.4263  0.0871 -0.9396
 3706TIP3    H235314   4.136   7.833  16.919 -0.6760 -1.4003  0.1119
 3707TIP3   OH235315   1.329   5.446  16.482  0.1604  0.0021 -0.0901
 3707TIP3    H135316   1.312   5.503  16.556 -0.1522 -1.1712  0.7783
 3707TIP3    H235317   1.364   5.366  16.521  0.2595 -0.5411 -1.2361
 3708TIP3   OH235318   0.197   0.273  17.353  0.4056  0.2470  0.1011
 3708TIP3    H135319   0.247   0.342  17.397  1.4714 -0.5045  0.1116
 3708TIP3    H235320   0.242   0.192  17.378 -1.0329 -0.4950  0.3812
 3709TIP3   OH235321   8.159   0.410  15.666 -0.2107  0.3652  0.3614
 3709TIP3    H135322   8.162   0.475  15.737 -0.0501 -1.4123  2.0967
 3709TIP3    H235323   8.075   0.424  15.624  0.0543  2.0346  0.3173
 3710TIP3   OH235324   2.257   5.591  16.082  0.2926 -0.0146  0.3426
 3710TIP3    H135325   2.270   5.497  16.070  1.1156 -0.2790  2.7241
 3710TIP3    H235326   2.164   5.600  16.103  0.2955 -0.3726  0.5179
 3711TIP3   OH235327   6.435   0.727  15.733 -0.5846 -0.2855  0.5318
 3711TIP3    H135328   6.505   0.664  15.714 -0.0274  0.7316 -1.0210
 3711TIP3    H235329   6.476   0.813  15.723 -1.2284  0.3823  3.0153
 3712TIP3   OH235330   5.316   8.392  17.708 -0.4765  0.0662  0.4457
 3712TIP3    H135331   5.313   8.370  17.615 -0.4447  1.3421  0.1169
 3712TIP3    H235332   5.293   8.485  17.711 -0.0999  0.1382  1.6792
 3713TIP3   OH235333   5.211   7.823  16.580 -0.3013  0.0456 -0.2517
 3713TIP3    H135334   5.270   7.899  16.588 -0.6307  0.7506 -3.2939
 3713TIP3    H235335   5.268   7.753  16.549 -0.7082  0.2955 -1.6453
 3714TIP3   OH235336   0.391   5.417  17.447 -0.1941  0.8114  0.0191
 3714TIP3    H135337   0.399   5.346  17.511 -1.4987 -0.4635 -1.1471
 3714TIP3    H235338   0.350   5.488  17.496  1.5493  0.9828  1.3284
 3715TIP3   OH235339   3.075   2.958  16.201 -0.4498 -0.2026  0.4592
 3715TIP3    H135340   3.070   3.040  16.250  2.4318  0.6409 -0.4886
 3715TIP3    H235341   3.082   2.985  16.110 -2.1573 -1.6406 -0.1447
 3716TIP3   OH235342   1.801   3.623  17.562  0.1833  0.1502  0.7422
 3716TIP3    H135343   1.797   3.719  17.564 -1.2877  0.3689 -2.9974
 3716TIP3    H235344   1.872   3.605  17.500  0.9036 -1.2377  1.9420
 3717TIP3   OH235345   2.557   0.642  17.065 -0.1347 -0.6515 -0.4035
 3717TIP3    H135346   2.538   0.723  17.019  1.5469  0.5992  0.9531
 3717TIP3    H235347   2.648   0.652  17.095 -0.1108 -2.7356  0.4167
 3718TIP3   OH235348   3.927   6.669  17.716  0.3579  0.3490 -0.8418
 3718TIP3    H135349   3.919   6.763  17.732 -0.8772 -0.0637  1.3077
 3718TIP3    H235350   4.004   6.643  17.766  1.1106  0.2745 -1.9849
 3719TIP3   OH235351   0.111   3.465  15.787  0.1666 -0.2121 -0.5365
 3719TIP3    H135352   0.020   3.489  15.802  0.8035  1.6288  0.7792
 3719TIP3    H235353   0.143   3.530  15.724  0.1028 -2.0318 -2.5385
 3720TIP3   OH235354   0.928   3.526  17.392 -0.2196  0.1334  0.5513
 3720TIP3    H135355   0.924   3.621  17.394  2.6254  0.3449  0.4718
 3720TIP3    H235356   1.021   3.506  17.394 -0.7104 -2.6528 -0.1893
 3721TIP3   OH235357   2.935   3.830  16.443 -0.2806  0.3039 -0.0006
 3721TIP3    H135358   2.909   3.800  16.356  0.1035  0.3490 -0.1360
 3721TIP3    H235359   2.988   3.759  16.478 -0.3187  0.3443  0.1376
 3722TIP3   OH235360   1.095   6.088  17.801 -0.4511  0.2475  0.0164
 3722TIP3    H135361   1.091   6.004  17.756 -1.6485 -0.4291  1.3265
 3722TIP3    H235362   1.152   6.072  17.876  0.7594  1.1091 -0.6894
 3723TIP3   OH235363   1.495   5.540  16.087 -0.1123 -0.1290  0.0986
 3723TIP3    H135364   1.535   5.487  16.018 -0.3750  0.9949 -0.9647
 3723TIP3    H235365   1.459   5.616  16.041 -2.5779 -0.5694  1.1377
 3724TIP3   OH235366   3.607   7.779  16.615  0.4347 -0.0153 -0.6079
 3724TIP3    H135367   3.563   7.695  16.602 -0.6069  0.2146  1.1272
 3724TIP3    H235368   3.563   7.839  16.554 -0.5235 -0.1780 -0.0926
 3725TIP3   OH235369   6.508   3.248  17.218 -0.3722 -0.5045  0.6430
 3725TIP3    H135370   6.551   3.320  17.171 -1.7924  1.7375  2.5404
 3725TIP3    H235371   6.502   3.178  17.154  0.6711  1.2158 -1.4805
 3726TIP3   OH235372   1.944   2.921  16.739  0.5219  0.3856 -0.3460
 3726TIP3    H135373   1.951   3.016  16.729  1.5585  0.3256 -0.3200
 3726TIP3    H235374   1.958   2.886  16.651  1.4981  0.2133 -0.1415
 3727TIP3   OH235375   2.871   3.546  16.363  0.0544  0.1920 -0.1046
 3727TIP3    H135376   2.941   3.485  16.339 -0.9733 -0.5503 -1.3768
 3727TIP3    H235377   2.869   3.610  16.293 -1.1490 -0.3511 -0.5904
 3728TIP3   OH235378   4.832   0.692  18.021 -0.4443 -0.1104 -0.1590
 3728TIP3    H135379   4.872   0.761  17.968 -0.3414  0.0001  0.0629
 3728TIP3    H235380   4.852   0.716  18.111 -0.8343 -0.1661 -0.0571
 3729TIP3   OH235381   8.180   0.942  17.461  0.2261  0.7167 -0.5383
 3729TIP3    H135382   8.192   0.849  17.445  1.4623  0.7033  0.3175
 3729TIP3    H235383   8.085   0.955  17.461  0.0454 -0.5458 -0.6422
 3730TIP3   OH235384   4.290   7.207  17.243  0.4714  0.6557 -0.0983
 3730TIP3    H135385   4.231   7.136  17.218  1.0635  0.1914 -0.1910
 3730TIP3    H235386   4.272   7.221  17.336  1.4888 -0.7444  0.3497
 3731TIP3   OH235387   0.316   2.547  17.276  0.3495 -0.6890 -0.4656
 3731TIP3    H135388   0.234   2.514  17.313  0.5796  0.0031  0.6793
 3731TIP3    H235389   0.373   2.562  17.351 -0.1502  3.5478 -0.7105
 3732TIP3   OH235390   7.102   3.461  16.460 -0.2193 -0.4602 -0.1745
 3732TIP3    H135391   7.181   3.472  16.408 -0.3775  1.3795 -0.0798
 3732TIP3    H235392   7.031   3.459  16.396 -0.2696  0.0988 -0.1413
 3733TIP3   OH235393   0.591   0.588  16.462  0.1926 -0.0732  0.4306
 3733TIP3    H135394   0.662   0.603  16.525  0.4807  2.3071 -0.3613
 3733TIP3    H235395   0.636   0.559  16.382  0.4875  2.4612 -0.4107
 3734TIP3   OH235396   3.232   5.512  17.129  0.0307  0.0962 -0.4481
 3734TIP3    H135397   3.244   5.607  17.121  3.0452 -0.1370  0.1419
 3734TIP3    H235398   3.288   5.476  17.060  0.2057 -1.2713  0.3807
 3735TIP3   OH235399   0.490   3.507  17.084 -0.1934  0.1356 -0.2090
 3735TIP3    H135400   0.481   3.441  17.016 -0.6995 -0.1906  0.1609
 3735TIP3    H235401   0.578   3.541  17.074  0.1151 -0.6861 -0.3310
 3736TIP3   OH235402   8.357   2.150  16.147  0.1229 -0.2618  0.4509
 3736TIP3    H135403   8.329   2.209  16.217 -0.8160  0.5594 -0.5909
 3736TIP3    H235404   8.310   2.180  16.070  1.1626 -1.1319 -0.5554
 3737TIP3   OH235405   7.222   8.241  15.748  0.3568 -0.3525 -0.1114
 3737TIP3    H135406   7.139   8.289  15.746 -0.1691 -1.2646 -0.6377
 3737TIP3    H235407   7.279   8.294  15.804 -0.4763  0.4462 -0.0024
 3738TIP3   OH235408   7.373   2.634  17.326  0.5117  0.1963 -0.1349
 3738TIP3    H135409   7.284   2.663  17.307  0.3113 -0.3478 -0.0311
 3738TIP3    H235410   7.367   2.588  17.409  0.7523 -0.4865 -0.4888
 3739TIP3   OH235411   5.900   3.593  17.613  0.0528  0.1441  0.1319
 3739TIP3    H135412   5.865   3.522  17.560  2.0155 -1.0877  0.3821
 3739TIP3    H235413   5.993   3.596  17.590  0.3582  1.4780  1.4177
 3740TIP3   OH235414   7.103   7.411  17.689  0.4162 -0.3360  0.3427
 3740TIP3    H135415   7.100   7.378  17.600 -0.1459 -1.2739  0.7014
 3740TIP3    H235416   7.182   7.372  17.727  0.8466  0.3332  0.1695
 3741TIP3   OH235417   0.391   6.620  16.078 -0.5329  0.1356 -0.1786
 3741TIP3    H135418   0.386   6.603  15.984  0.8305  0.0018 -0.2566
 3741TIP3    H235419   0.402   6.715  16.084 -0.0134  0.0794 -0.1951
 3742TIP3   OH235420   2.979   2.349  17.319 -0.1270 -0.0529 -0.1590
 3742TIP3    H135421   2.964   2.428  17.267 -0.3681 -1.0468 -1.6463
 3742TIP3    H235422   3.022   2.288  17.259 -0.2605 -1.1807  0.8570
 3743TIP3   OH235423   2.620   0.378  17.794 -0.3506 -0.4501 -0.1902
 3743TIP3    H135424   2.669   0.434  17.734  1.0843  0.5207  1.7545
 3743TIP3    H235425   2.661   0.393  17.880 -1.2968 -2.8865  0.8004
 3744TIP3   OH235426   5.479   4.144  17.684 -0.4920  0.0145  0.0870
 3744TIP3    H135427   5.536   4.071  17.660 -0.9017 -0.6543  1.0730
 3744TIP3    H235428   5.537   4.207  17.725 -0.3047 -0.2375  0.2139
 3745TIP3   OH235429   5.041   5.474  17.094 -0.2636 -0.7161 -0.3061
 3745TIP3    H135430   5.027   5.421  17.173 -0.0559 -0.5075 -0.1258
 3745TIP3    H235431   4.997   5.425  17.024  0.5166 -1.4837 -0.2769
 3746TIP3   OH235432   4.677   0.708  15.777 -0.5428 -0.2391  0.1516
 3746TIP3    H135433   4.682   0.718  15.682 -0.4498  0.3958  0.2158
 3746TIP3    H235434   4.591   0.742  15.801 -0.0066  1.0021  0.4406
 3747TIP3   OH235435   0.415   5.228  16.968 -0.2893  0.5916  0.0447
 3747TIP3    H135436   0.345   5.294  16.975 -0.8847 -0.1275  1.0581
 3747TIP3    H235437   0.386   5.170  16.898 -0.1902  0.8905 -0.2480
 3748TIP3   OH235438   3.697   8.350  16.115 -0.4223  0.5860  0.4412
 3748TIP3    H135439   3.645   8.336  16.194  1.1224 -0.2978  1.3530
 3748TIP3    H235440   3.770   8.404  16.145 -1.8134  3.6218 -1.2489
 3749TIP3   OH235441   1.568   0.166  17.210 -0.0193  0.6340  0.3831
 3749TIP3    H135442   1.496   0.109  17.184  0.2029  0.4414  0.1901
 3749TIP3    H235443   1.559   0.242  17.152  0.6806  0.0542 -0.5180
 3750TIP3   OH235444   2.956   2.093  17.845 -0.3039 -0.4389  0.7478
 3750TIP3    H135445   3.040   2.050  17.825  0.2956  1.0181 -0.0002
 3750TIP3    H235446   2.890   2.028  17.821  0.5919 -1.3258  0.6095
 3751TIP3   OH235447   6.426   0.822  16.575  0.0780 -0.5010 -0.3905
 3751TIP3    H135448   6.461   0.748  16.525  1.8620  0.1016 -0.1200
 3751TIP3    H235449   6.503   0.859  16.620 -0.9946  0.6925  0.5485
 3752TIP3   OH235450   4.540   4.043  16.705  0.4975 -0.4949 -0.1205
 3752TIP3    H135451   4.520   4.089  16.624  0.2201  0.7956  0.6495
 3752TIP3    H235452   4.484   3.966  16.704 -1.2145  0.6913 -0.1182
 3753TIP3   OH235453   6.245   4.905  17.161 -0.2300 -0.6649  0.1105
 3753TIP3    H135454   6.318   4.891  17.101 -0.2514 -0.5140  0.0495
 3753TIP3    H235455   6.250   4.998  17.183  1.2496 -1.1614  2.2360
 3754TIP3   OH235456   2.013   6.872  17.317 -0.3055 -0.0810  0.1234
 3754TIP3    H135457   2.067   6.800  17.350  1.9826  1.7116  0.5285
 3754TIP3    H235458   2.072   6.946  17.312 -2.0660  1.3000 -2.2817
 3755TIP3   OH235459   6.640   5.261  17.213 -0.1494  0.1867  0.7061
 3755TIP3    H135460   6.643   5.274  17.308  0.1786  1.5266  0.5347
 3755TIP3    H235461   6.712   5.315  17.179  0.7790 -1.5356 -0.1932
 3756TIP3   OH235462   5.496   7.564  17.333  0.2512  0.2136 -0.3900
 3756TIP3    H135463   5.585   7.602  17.329 -0.0348  0.8912 -0.5686
 3756TIP3    H235464   5.451   7.602  17.257  0.3049 -1.4499 -1.2969
 3757TIP3   OH235465   3.456   3.155  16.796  0.1762 -0.1974  0.2272
 3757TIP3    H135466   3.451   3.211  16.718  0.2809  0.0975  0.4331
 3757TIP3    H235467   3.396   3.083  16.777 -0.7781  0.5278  0.4041
 3758TIP3   OH235468   7.171   5.347  16.647  0.3069  0.5814  0.3164
 3758TIP3    H135469   7.199   5.435  16.670  1.7666  0.0712  0.6254
 3758TIP3    H235470   7.251   5.303  16.619 -0.3254 -0.7579  0.5205
 3759TIP3   OH235471   5.682   6.193  17.315  0.7783  0.1774  0.4307
 3759TIP3    H135472   5.749   6.197  17.383  1.5240  0.1960 -0.2872
 3759TIP3    H235473   5.717   6.247  17.244  0.7448 -1.0972 -0.5874
 3760TIP3   OH235474   6.945   4.139  15.808  0.2521  1.0831  0.3997
 3760TIP3    H135475   6.921   4.229  15.832  1.2741  1.3389  0.5201
 3760TIP3    H235476   7.008   4.150  15.736  0.2872  0.4607  0.3375
 3761TIP3   OH235477   7.414   0.556  17.271  0.4870 -0.7570  0.2102
 3761TIP3    H135478   7.482   0.591  17.328  0.3658 -1.1806  0.6165
 3761TIP3    H235479   7.427   0.461  17.273 -1.1849 -1.0075  1.6766
 3762TIP3   OH235480   8.219   7.417  16.569  0.1702 -0.0117 -0.2274
 3762TIP3    H135481   8.159   7.342  16.574 -0.9121  0.7584 -1.1912
 3762TIP3    H235482   8.191   7.475  16.640  0.1502  0.0979 -0.3258
 3763TIP3   OH235483   3.207   7.159  16.386 -0.3470  0.2310 -0.4422
 3763TIP3    H135484   3.199   7.112  16.303  1.7780 -0.3677 -0.3621
 3763TIP3    H235485   3.287   7.211  16.377 -1.5540  2.3568  0.2265
 3764TIP3   OH235486   0.107   7.994  17.798  0.0887 -0.0623  0.2713
 3764TIP3    H135487   0.144   8.080  17.776 -1.9268  0.3374 -1.9367
 3764TIP3    H235488   0.018   7.997  17.765 -0.1715 -2.9143  0.4684
 3765TIP3   OH235489   5.096   2.901  17.026  0.7923 -0.0502  0.4536
 3765TIP3    H135490   5.010   2.876  17.060  0.0877  1.6562  0.0101
 3765TIP3    H235491   5.149   2.915  17.104 -0.2368  1.8504  0.8960
 3766TIP3   OH235492   6.569   5.454  16.872 -0.0831 -0.0596  0.1825
 3766TIP3    H135493   6.616   5.376  16.844 -0.7344 -0.4920  0.2959
 3766TIP3    H235494   6.639   5.517  16.893  0.4237  0.1611 -1.9928
 3767TIP3   OH235495   7.158   8.268  17.342  0.0035 -0.5249 -0.3106
 3767TIP3    H135496   7.153   8.176  17.366  0.4167 -0.1684  1.2568
 3767TIP3    H235497   7.073   8.305  17.367 -0.0077 -0.3924 -0.5384
 3768TIP3   OH235498   7.556   0.816  17.324 -0.2007  0.6087  0.0877
 3768TIP3    H135499   7.572   0.766  17.405 -1.1839  0.0569 -0.0362
 3768TIP3    H235500   7.565   0.907  17.351  1.2922  0.4024  0.3997
 3769TIP3   OH235501   3.354   6.886  17.416  0.0915 -0.8419 -0.2730
 3769TIP3    H135502   3.385   6.950  17.351 -1.4540  0.4246  0.1888
 3769TIP3    H235503   3.297   6.827  17.366  0.4173 -1.0309 -0.4263
 3770TIP3   OH235504   0.692   4.924  16.672  0.3175  0.2769 -0.2881
 3770TIP3    H135505   0.754   4.893  16.738 -0.0013 -3.1698 -1.3795
 3770TIP3    H235506   0.721   4.882  16.590 -0.8850  2.1884 -1.7858
 3771TIP3   OH235507   6.083   2.125  17.749  0.0272 -0.2228  0.8543
 3771TIP3    H135508   6.167   2.094  17.783  0.2812  0.3764  0.7975
 3771TIP3    H235509   6.020   2.104  17.817  0.4805  0.6964  1.5891
 3772TIP3   OH235510   0.450   5.040  16.710  0.1733 -0.2337 -0.2186
 3772TIP3    H135511   0.476   5.107  16.647 -1.5389  0.8452  0.1586
 3772TIP3    H235512   0.531   4.991  16.727  0.9008  0.0653 -2.4615
 3773TIP3   OH235513   0.964   3.578  16.802  0.0228  0.0169  0.0868
 3773TIP3    H135514   0.980   3.669  16.827 -0.3389 -0.5380  2.6953
 3773TIP3    H235515   1.051   3.538  16.802  0.1279  0.2436 -0.5285
 3774TIP3   OH235516   7.868   2.038  15.783 -0.0418  0.3561 -0.9296
 3774TIP3    H135517   7.961   2.022  15.766 -0.4216 -1.2101 -1.7646
 3774TIP3    H235518   7.838   2.085  15.705 -0.2073 -0.2280 -1.2194
 3775TIP3   OH235519   7.903   1.483  17.693  0.3487 -0.1530  0.3814
 3775TIP3    H135520   7.930   1.427  17.619  4.3736 -0.0918  1.5632
 3775TIP3    H235521   7.913   1.572  17.660  0.5926 -0.1297  0.5172
 3776TIP3   OH235522   7.622   6.133  17.453 -0.2127 -0.0622 -0.0849
 3776TIP3    H135523   7.556   6.080  17.409 -1.6541 -0.4672  2.3545
 3776TIP3    H235524   7.593   6.223  17.441 -0.7373 -0.1863  0.2460
 3777TIP3   OH235525   3.938   5.269  15.853  0.0746  0.4168  0.1933
 3777TIP3    H135526   3.863   5.328  15.845  0.0518  0.4450  0.6072
 3777TIP3    H235527   3.936   5.217  15.772 -1.3753 -0.7266  0.9027
 3778TIP3   OH235528   1.843   1.736  16.646  0.1114 -0.0059  0.3517
 3778TIP3    H135529   1.837   1.667  16.712 -0.9024 -0.5743 -0.3083
 3778TIP3    H235530   1.924   1.716  16.598  0.2014 -0.3080  0.6230
 3779TIP3   OH235531   0.109   1.781  17.606 -0.2273 -0.7732 -0.6299
 3779TIP3    H135532   0.114   1.782  17.701  2.5787  1.6411 -0.6494
 3779TIP3    H235533   0.136   1.693  17.581  0.5764 -0.9636  0.8283
 3780TIP3   OH235534   0.600   5.488  16.873  0.7957 -0.0267 -0.4020
 3780TIP3    H135535   0.634   5.577  16.862 -0.3452  0.4064 -0.5778
 3780TIP3    H235536   0.513   5.490  16.832 -1.1682  0.0404  3.3152
 3781TIP3   OH235537   5.562   4.923  17.927  0.1040 -0.1318 -0.0480
 3781TIP3    H135538   5.649   4.909  17.890  0.2062 -2.0798  0.8275
 3781TIP3    H235539   5.522   4.987  17.868  1.6022 -0.2580 -1.2890
 3782TIP3   OH235540   3.243   7.917  16.171  0.2752 -0.3737  0.3879
 3782TIP3    H135541   3.187   7.943  16.243  1.1473  2.8749  0.0507
 3782TIP3    H235542   3.287   7.837  16.202 -1.6667 -0.8405  2.1303
 3783TIP3   OH235543   2.037   5.155  16.832  0.4843 -0.0323 -0.9388
 3783TIP3    H135544   2.047   5.251  16.829 -0.6543  0.1868  0.6937
 3783TIP3    H235545   2.119   5.124  16.871  0.4780  0.3838 -0.5763
 3784TIP3   OH235546   7.743   1.664  16.223  0.2283 -0.1796 -0.5110
 3784TIP3    H135547   7.677   1.733  16.214  0.2681 -0.1290 -0.4247
 3784TIP3    H235548   7.711   1.593  16.168 -0.9086 -0.9211  1.0137
 3785TIP3   OH235549   3.993   0.405  17.257  0.4024 -0.3885  0.1240
 3785TIP3    H135550   3.935   0.391  17.332 -0.5936 -0.1022 -0.5666
 3785TIP3    H235551   4.048   0.479  17.282 -0.6948  0.4421  0.1522
 3786TIP3   OH235552   3.942   5.594  15.743  0.5078 -1.1800 -0.0240
 3786TIP3    H135553   4.006   5.610  15.673  0.4614  0.3479  0.2507
 3786TIP3    H235554   3.864   5.643  15.715  0.2491 -1.1311  0.7657
 3787TIP3   OH235555   7.872   3.527  17.400  0.1717 -0.4265 -0.3490
 3787TIP3    H135556   7.902   3.561  17.484  0.4963 -1.7290  0.0774
 3787TIP3    H235557   7.813   3.455  17.422  0.3978 -0.9016 -1.2304
 3788TIP3   OH235558   2.309   6.384  16.945  0.1274 -0.7383  0.4853
 3788TIP3    H135559   2.295   6.478  16.945 -0.2962 -0.7686  2.1156
 3788TIP3    H235560   2.386   6.371  16.889  1.5085  0.8138  1.8953
 3789TIP3   OH235561   1.787   5.964  16.534  0.0065  0.3883  0.1624
 3789TIP3    H135562   1.751   6.050  16.512 -0.5522  0.2738  0.5916
 3789TIP3    H235563   1.815   5.928  16.450  1.4512  1.5073  0.1298
 3790TIP3   OH235564   1.482   1.668  15.285  0.1738 -0.0458 -0.0045
 3790TIP3    H135565   1.575   1.672  15.309  0.6866 -1.6588 -1.4713
 3790TIP3    H235566   1.474   1.725  15.209  0.1679 -0.5773 -0.4088
 3791TIP3   OH235567   7.057   3.048  17.367  0.2084 -0.2772 -0.2137
 3791TIP3    H135568   7.070   3.012  17.455  0.1104  0.5060  0.1284
 3791TIP3    H235569   6.970   3.088  17.370  0.0869 -0.4853 -0.7574
 3792TIP3   OH235570   4.067   4.717  16.158  0.0125  0.1166 -0.0208
 3792TIP3    H135571   4.043   4.634  16.199 -0.0849 -1.5182 -3.1379
 3792TIP3    H235572   4.131   4.694  16.092  0.2080  2.5969 -0.7985
 3793TIP3   OH235573   7.043   4.690  16.426 -0.0975 -0.4398  0.4521
 3793TIP3    H135574   7.069   4.652  16.342 -0.5071  0.0545  0.0946
 3793TIP3    H235575   7.124   4.727  16.462  0.1222 -0.8450  0.3821
 3794TIP3   OH235576   5.505   3.133  17.544  0.1887  0.0062  0.0009
 3794TIP3    H135577   5.494   3.066  17.610  0.6547  0.7625  0.8747
 3794TIP3    H235578   5.445   3.203  17.569 -0.4612 -0.1475 -1.0239
 3795TIP3   OH235579   6.746   4.958  16.759 -0.3157  0.2225  0.2647
 3795TIP3    H135580   6.839   4.974  16.746  0.2046 -0.9155  2.1551
 3795TIP3    H235581   6.727   4.993  16.846 -2.0677  1.8730 -0.7143
 3796TIP3   OH235582   7.692   2.062  15.343 -0.1970 -0.1326 -0.1004
 3796TIP3    H135583   7.740   2.093  15.420  1.9063  0.4452 -1.5482
 3796TIP3    H235584   7.757   2.011  15.294 -1.1789  0.3225 -1.9515
 3797TIP3   OH235585   7.531   6.481  16.447 -0.0898 -0.1438 -0.3701
 3797TIP3    H135586   7.466   6.423  16.487 -1.5426  0.9549 -1.0550
 3797TIP3    H235587   7.513   6.567  16.485  0.7961  0.2453 -0.7935
 3798TIP3   OH235588   1.702   6.434  17.335 -0.3077 -0.1898 -0.3573
 3798TIP3    H135589   1.701   6.338  17.338  1.4283 -0.2376 -0.4213
 3798TIP3    H235590   1.790   6.458  17.362 -0.6039  1.3934 -0.7038
 3799TIP3   OH235591   3.172   6.890  17.639  0.0716 -0.6699 -0.1993
 3799TIP3    H135592   3.084   6.903  17.604  0.3476  0.1723 -0.6114
 3799TIP3    H235593   3.230   6.906  17.564  0.6397  0.3745  0.4311
 3800TIP3   OH235594   0.803   3.877  16.774 -0.4172  0.3293 -0.2011
 3800TIP3    H135595   0.778   3.811  16.710  3.0376 -1.0533 -0.3470
 3800TIP3    H235596   0.770   3.959  16.738  0.4101 -0.5436 -3.2164
 3801TIP3   OH235597   2.869   6.574  15.911  0.6486 -0.3016 -0.2457
 3801TIP3    H135598   2.878   6.503  15.975  0.0815 -0.7203 -0.6224
 3801TIP3    H235599   2.930   6.642  15.942  1.0685 -0.8751  0.2185
 3802TIP3   OH235600   2.278   2.732  15.510 -0.4305 -0.9063  0.5098
 3802TIP3    H135601   2.368   2.736  15.543 -0.0379 -1.5344 -0.4548
 3802TIP3    H235602   2.248   2.822  15.511  1.2942 -0.1977 -2.0524
 3803TIP3   OH235603   5.519   6.824  17.154 -0.5854 -0.0903 -0.4578
 3803TIP3    H135604   5.503   6.844  17.246  2.1009  0.3411 -0.0099
 3803TIP3    H235605   5.439   6.852  17.109 -1.7509  0.1651  1.6487
 3804TIP3   OH235606   6.748   0.775  17.297 -0.1131  0.2767  0.0444
 3804TIP3    H135607   6.824   0.757  17.242  0.2374  1.1406  0.2303
 3804TIP3    H235608   6.680   0.717  17.263  0.7660 -0.8794  0.2137
 3805TIP3   OH235609   5.481   4.719  17.208 -0.6229  0.1747 -0.5019
 3805TIP3    H135610   5.455   4.627  17.212  0.0520 -0.0275 -0.5875
 3805TIP3    H235611   5.569   4.717  17.170 -0.4765  0.8324 -0.2069
 3806TIP3   OH235612   1.940   4.153  17.839  0.0950  0.9413 -0.4577
 3806TIP3    H135613   2.033   4.132  17.831  0.3359  2.6685 -4.2990
 3806TIP3    H235614   1.898   4.069  17.857  2.2147 -0.1872 -0.4575
 3807TIP3   OH235615   6.427   7.072  16.059  0.2098  0.3512  0.7386
 3807TIP3    H135616   6.388   7.148  16.015 -0.3111  1.0757  2.3826
 3807TIP3    H235617   6.459   7.106  16.142 -1.1244 -1.4548  2.0536
 3808TIP3   OH235618   7.799   8.152  17.568 -0.4242 -0.3923 -0.5556
 3808TIP3    H135619   7.777   8.062  17.544 -1.2378 -0.2505 -0.3715
 3808TIP3    H235620   7.891   8.162  17.543 -0.0780 -1.5364  0.2032
 3809TIP3   OH235621   5.318   5.353  17.760  0.2338 -0.1151 -0.4736
 3809TIP3    H135622   5.390   5.416  17.748  1.1014 -0.2745  2.9129
 3809TIP3    H235623   5.239   5.406  17.753  0.8811  1.0084  0.2515
 3810TIP3   OH235624   2.107   6.625  17.785  0.0250  0.4712  0.3437
 3810TIP3    H135625   2.179   6.563  17.798  1.1742  1.8535  0.8195
 3810TIP3    H235626   2.062   6.627  17.869  0.0320  0.3561  0.3515
 3811TIP3   OH235627   4.761   7.856  17.287 -0.0862 -0.2010 -0.3137
 3811TIP3    H135628   4.835   7.915  17.303 -0.1812 -0.0683 -0.3636
 3811TIP3    H235629   4.686   7.901  17.325  0.0211 -0.7883  0.6152
 3812TIP3   OH235630   6.882   2.279  17.275 -0.9884  0.0225  0.2700
 3812TIP3    H135631   6.888   2.189  17.242  1.8543 -0.1114  0.8894
 3812TIP3    H235632   6.804   2.279  17.330 -0.6073 -2.3199  0.9232
 3813TIP3   OH235633   1.385   7.660  17.965  0.0751 -0.0761  0.0060
 3813TIP3    H135634   1.404   7.753  17.957 -0.2050  0.1281  1.3842
 3813TIP3    H235635   1.296   7.657  18.001  0.4804 -0.8412  0.9886
 3814TIP3   OH235636   0.333   2.208  17.162  0.1662 -0.5594  0.1947
 3814TIP3    H135637   0.262   2.268  17.184 -1.2450 -1.6549 -1.1859
 3814TIP3    H235638   0.318   2.131  17.217  0.0056 -0.9789 -0.4250
 3815TIP3   OH235639   3.536   5.675  16.128 -0.0772 -0.3250 -0.5757
 3815TIP3    H135640   3.570   5.682  16.039  1.4771 -0.6312 -0.0331
 3815TIP3    H235641   3.560   5.758  16.170  4.3914 -2.1847  1.1942
 3816TIP3   OH235642   7.990   0.682  16.472  0.5412  0.1640  0.1264
 3816TIP3    H135643   8.011   0.615  16.407  2.1564 -0.1573  0.9199
 3816TIP3    H235644   7.965   0.759  16.421 -0.3026 -0.7146 -0.8143
 3817TIP3   OH235645   1.655   7.047  17.570 -0.1399  0.5777 -0.1017
 3817TIP3    H135646   1.674   7.012  17.483  1.1000  0.1334  0.3280
 3817TIP3    H235647   1.620   6.972  17.618  0.6661  0.4157  0.2416
 3818TIP3   OH235648   3.291   2.108  16.419  0.0384  0.4267  0.2077
 3818TIP3    H135649   3.263   2.184  16.367 -0.1842 -1.8940 -3.4895
 3818TIP3    H235650   3.385   2.119  16.430 -0.3325  2.3905  2.0469
 3819TIP3   OH235651   7.576   4.139  16.863  0.0655  0.0312  0.5317
 3819TIP3    H135652   7.499   4.195  16.853 -0.7436 -0.9406  1.2008
 3819TIP3    H235653   7.580   4.089  16.781 -0.7972 -0.8613  1.0217
 3820TIP3   OH235654   8.213   2.043  17.651 -0.2835  0.0660  0.2853
 3820TIP3    H135655   8.120   2.062  17.660  0.0707  2.0584  0.1241
 3820TIP3    H235656   8.219   1.948  17.662 -1.8805  0.2222  3.9452
 3821TIP3   OH235657   8.410   4.359  15.675 -0.0499 -0.3234  0.7254
 3821TIP3    H135658   8.401   4.390  15.585 -1.6875 -0.6494  0.7446
 3821TIP3    H235659   8.501   4.377  15.697  0.8297 -1.5524 -1.4768
 3822TIP3   OH235660   2.087   7.515  17.919 -0.2218 -0.5279 -0.3578
 3822TIP3    H135661   2.007   7.563  17.899 -0.4301 -0.8244 -0.2440
 3822TIP3    H235662   2.057   7.428  17.946  0.0337 -0.0791  1.4919
 3823TIP3   OH235663   0.117   4.339  17.225  0.4951 -0.4243 -0.0221
 3823TIP3    H135664   0.042   4.295  17.265 -0.0826  1.3495  0.9411
 3823TIP3    H235665   0.193   4.292  17.259 -0.0909 -0.5681  1.1525
 3824TIP3   OH235666   5.976   3.023  17.205 -0.1924  0.4200  0.0081
 3824TIP3    H135667   5.940   2.980  17.283 -0.0163 -1.5176 -0.9151
 3824TIP3    H235668   5.933   3.108  17.203 -1.2172 -0.0101  1.4813
 3825TIP3   OH235669   4.228   6.692  16.788  0.0180  0.1709  0.1874
 3825TIP3    H135670   4.307   6.739  16.814 -0.4205  1.0307 -0.0014
 3825TIP3    H235671   4.189   6.745  16.719 -0.0342 -0.9317 -0.6668
 3826TIP3   OH235672   4.376   5.378  16.877  0.3269 -0.5419 -0.2737
 3826TIP3    H135673   4.397   5.461  16.919  1.4645 -0.8653 -0.1687
 3826TIP3    H235674   4.280   5.376  16.873  0.2750  0.5161  0.2208
 3827TIP3   OH235675   5.696   6.482  15.638  0.1120 -0.0836 -0.4246
 3827TIP3    H135676   5.711   6.564  15.685  0.1419 -0.4354  0.1863
 3827TIP3    H235677   5.601   6.469  15.641  0.2468 -0.8881  0.8896
 3828TIP3   OH235678   1.628   6.213  16.961  0.3670  0.4300  0.2075
 3828TIP3    H135679   1.691   6.276  16.995  1.0906 -0.5224  0.6960
 3828TIP3    H235680   1.567   6.265  16.910  2.5178  1.2301 -1.7633
 3829TIP3   OH235681   6.882   0.248  15.979  0.2156 -0.5569 -0.2193
 3829TIP3    H135682   6.830   0.184  16.027  0.5335 -0.9898 -0.4475
 3829TIP3    H235683   6.961   0.260  16.031  2.3750 -3.8756 -2.3857
 3830TIP3   OH235684   2.242   3.797  16.626  0.3382  0.3518 -0.3845
 3830TIP3    H135685   2.177   3.761  16.565 -0.8681 -0.5901  1.3700
 3830TIP3    H235686   2.235   3.892  16.615  1.3398  0.2085 -2.8443
 3831TIP3   OH235687   4.738   3.162  15.729 -0.5858  0.0309  0.0880
 3831TIP3    H135688   4.759   3.079  15.687 -1.1106  0.8014 -1.8181
 3831TIP3    H235689   4.804   3.172  15.798 -0.0427 -1.5790 -0.1712
 3832TIP3   OH235690   1.845   2.210  16.489  0.0657 -0.4260  0.1178
 3832TIP3    H135691   1.910   2.147  16.460 -0.3882 -0.9314  0.1682
 3832TIP3    H235692   1.857   2.215  16.584 -1.2158 -2.0109  0.4223
 3833TIP3   OH235693   5.972   2.618  17.175  0.5294 -0.5670 -0.3181
 3833TIP3    H135694   5.980   2.526  17.200  1.0746  0.0700  2.1741
 3833TIP3    H235695   6.035   2.664  17.231 -2.2624  1.7146  1.2551
 3834TIP3   OH235696   3.491   1.435  17.638  0.0922  0.2984  0.1755
 3834TIP3    H135697   3.568   1.491  17.644  0.3447  0.0192 -0.4713
 3834TIP3    H235698   3.512   1.372  17.570 -0.4035 -0.2588  0.5332
 3835TIP3   OH235699   7.008   4.973  16.630  0.2510  0.0640  0.0694
 3835TIP3    H135700   6.934   4.925  16.594 -1.6337  0.7038  2.7541
 3835TIP3    H235701   7.033   5.035  16.562 -1.1955 -0.6659 -1.1862
 3836TIP3   OH235702   7.304   7.253  16.444 -0.4443  0.0874  0.0686
 3836TIP3    H135703   7.303   7.263  16.349 -0.6272 -0.7139 -0.0199
 3836TIP3    H235704   7.340   7.335  16.476 -0.2064  0.2941 -0.7060
 3837TIP3   OH235705   2.275   1.633  17.464 -0.3996  0.1274 -0.2653
 3837TIP3    H135706   2.180   1.625  17.453 -0.1998 -0.7115 -1.5187
 3837TIP3    H235707   2.296   1.573  17.535 -0.7170 -0.1635 -0.4170
 3838TIP3   OH235708   0.393   1.904  17.631 -0.0102 -0.1683 -0.4961
 3838TIP3    H135709   0.310   1.857  17.625  0.3344 -0.7281 -1.0404
 3838TIP3    H235710   0.370   1.988  17.670 -0.9045 -0.1558 -1.0113
 3839TIP3   OH235711   2.850   8.198  16.960 -0.2643  0.0027 -0.0201
 3839TIP3    H135712   2.797   8.119  16.956  0.0944 -0.2714  0.5045
 3839TIP3    H235713   2.790   8.269  16.936 -0.7810 -0.3383  0.2531
 3840TIP3   OH235714   5.610   0.132  16.608  0.4614  0.5636  0.5644
 3840TIP3    H135715   5.675   0.179  16.660  0.9138 -0.2059  0.7105
 3840TIP3    H235716   5.546   0.199  16.584  1.0363  1.2334  0.8432
 3841TIP3   OH235717   0.134   0.848  15.410  0.2641 -0.2604  0.3262
 3841TIP3    H135718   0.048   0.842  15.452 -0.4270 -2.1476 -1.1870
 3841TIP3    H235719   0.126   0.921  15.349  0.3932  0.7773  1.5212
 3842TIP3   OH235720   0.871   4.334  17.781 -0.1954 -0.4378  0.1128
 3842TIP3    H135721   0.959   4.373  17.780  0.2769 -1.4017  1.4696
 3842TIP3    H235722   0.881   4.251  17.735 -0.4783 -0.3984 -0.0224
 3843TIP3   OH235723   2.931   3.927  17.366 -0.1532 -0.4971 -0.2270
 3843TIP3    H135724   2.895   4.009  17.333 -1.2585 -0.7916  0.2295
 3843TIP3    H235725   2.863   3.891  17.423  1.0241 -0.8442  1.0321
 3844TIP3   OH235726   3.903   4.847  15.541  0.1458  0.3164  0.4108
 3844TIP3    H135727   3.903   4.858  15.446  0.1647 -0.4657  0.3166
 3844TIP3    H235728   3.831   4.786  15.558  0.4897  0.0280  0.8458
 3845TIP3   OH235729   7.121   1.859  16.781 -0.7490 -0.2462 -0.0105
 3845TIP3    H135730   7.047   1.818  16.825 -0.2139 -0.3265  0.8527
 3845TIP3    H235731   7.093   1.871  16.690 -0.4449 -3.9097 -0.7456
 3846TIP3   OH235732   3.986   2.859  16.926  0.4631 -0.0593  0.4783
 3846TIP3    H135733   3.901   2.867  16.882  0.1018  1.3533  1.3671
 3846TIP3    H235734   3.965   2.820  17.011  0.7389  0.1117  0.6252
 3847TIP3   OH235735   5.934   0.806  15.744  0.0646  0.7210  0.0766
 3847TIP3    H135736   6.027   0.816  15.725  0.0284  1.0411  0.0558
 3847TIP3    H235737   5.930   0.738  15.811  0.1638 -0.7775 -1.3558
 3848TIP3   OH235738   4.350   6.622  17.142  0.3061 -0.1957  1.0306
 3848TIP3    H135739   4.266   6.612  17.188 -0.5642  1.8798  0.0190
 3848TIP3    H235740   4.381   6.532  17.130 -2.5297 -1.1790  0.0908
 3849TIP3   OH235741   7.829   0.251  15.855 -0.6513  0.1393 -0.3520
 3849TIP3    H135742   7.866   0.330  15.817  0.6160 -0.3020 -0.0788
 3849TIP3    H235743   7.905   0.202  15.887 -1.6283  1.0563  3.9457
 3850TIP3   OH235744   3.494   2.551  15.428  0.6723  0.2888  0.7037
 3850TIP3    H135745   3.583   2.583  15.441  1.2324 -0.9584  0.1326
 3850TIP3    H235746   3.505   2.462  15.393 -0.7786  0.6480 -0.8036
 3851TIP3   OH235747   2.843   0.949  16.037 -0.2026  0.0942 -0.3917
 3851TIP3    H135748   2.903   0.942  16.111  0.8322  1.4789 -1.0416
 3851TIP3    H235749   2.899   0.933  15.960 -0.8056  0.6958 -0.9672
 3852TIP3   OH235750   6.090   1.798  16.943  0.0977 -0.1791  0.9086
 3852TIP3    H135751   6.150   1.727  16.963  2.9249  0.8177 -2.9253
 3852TIP3    H235752   6.067   1.785  16.851 -1.2078  2.5466  0.7337
 3853TIP3   OH235753   1.673   1.199  16.629  0.5744 -0.0417 -0.2233
 3853TIP3    H135754   1.585   1.179  16.597  0.6819 -0.6596 -0.1413
 3853TIP3    H235755   1.659   1.230  16.719  0.3903  0.4538 -0.4177
 3854TIP3   OH235756   2.791   3.104  17.675 -0.3110 -0.1149  0.1140
 3854TIP3    H135757   2.763   3.014  17.695 -0.7750  0.1259  0.5593
 3854TIP3    H235758   2.776   3.114  17.581 -0.1250 -0.5474  0.0345
 3855TIP3   OH235759   1.149   4.112  16.956 -0.2285  0.0567  0.9212
 3855TIP3    H135760   1.193   4.114  17.041  1.6694 -0.9486  0.0346
 3855TIP3    H235761   1.195   4.177  16.903 -0.6674 -0.0900  0.3407
 3856TIP3   OH235762   0.235   3.998  16.641 -0.0442 -0.0842  0.3897
 3856TIP3    H135763   0.232   3.904  16.656 -0.5872 -0.1476 -0.0925
 3856TIP3    H235764   0.250   4.036  16.728 -0.6009 -0.5719  0.7059
 3857TIP3   OH235765   6.363   6.887  16.927  0.5036  0.2500 -0.0641
 3857TIP3    H135766   6.275   6.876  16.963  0.7588 -0.1486  0.4481
 3857TIP3    H235767   6.413   6.813  16.963  1.1266  0.6434 -0.1102
 3858TIP3   OH235768   6.503   2.852  17.281  0.3001 -0.1191 -0.3193
 3858TIP3    H135769   6.514   2.772  17.230 -0.5141 -0.1962 -0.3897
 3858TIP3    H235770   6.471   2.917  17.218  0.6231  0.1694 -0.1899
 3859TIP3   OH235771   6.281   3.467  17.004  0.0843  0.2193 -0.1955
 3859TIP3    H135772   6.357   3.431  17.049 -0.3713  1.9679  2.1829
 3859TIP3    H235773   6.306   3.557  16.983 -0.7933  0.3402 -0.7680
 3860TIP3   OH235774   4.978   1.399  17.277 -0.1174 -0.1005 -0.0933
 3860TIP3    H135775   4.954   1.480  17.321 -0.7367 -0.0145 -0.5732
 3860TIP3    H235776   4.899   1.346  17.279  0.6037 -1.1889  1.2575
 3861TIP3   OH235777   7.605   4.118  17.707 -0.1874 -0.2126 -0.1824
 3861TIP3    H135778   7.541   4.153  17.770 -1.8441  0.8470 -2.2922
 3861TIP3    H235779   7.672   4.187  17.701  0.0411 -0.3711  0.4828
 3862TIP3   OH235780   3.318   5.014  16.197  0.6545 -0.2428 -0.4603
 3862TIP3    H135781   3.374   5.015  16.119  0.0789 -0.4709 -0.8782
 3862TIP3    H235782   3.302   5.106  16.216 -0.3318 -0.2003 -1.4310
 3863TIP3   OH235783   5.450   3.487  17.504 -0.4884 -0.4807 -0.1563
 3863TIP3    H135784   5.490   3.437  17.433 -1.2506 -0.9253 -0.2832
 3863TIP3    H235785   5.448   3.577  17.472  0.6718 -0.3918 -0.0254
 3864TIP3   OH235786   0.868   3.901  16.310 -0.3034  0.3790  0.4969
 3864TIP3    H135787   0.919   3.859  16.380  1.1218  0.6469 -0.3454
 3864TIP3    H235788   0.844   3.830  16.251 -1.3930  0.1727  1.1610
 3865TIP3   OH235789   2.533   5.048  17.847  0.3444  0.6287 -0.8824
 3865TIP3    H135790   2.521   5.062  17.941 -0.1132 -1.0423 -0.6608
 3865TIP3    H235791   2.480   5.116  17.806 -0.3965  0.6570  0.0857
 3866TIP3   OH235792   7.507   3.325  15.829 -0.3692 -0.0644  0.0623
 3866TIP3    H135793   7.437   3.374  15.785  0.4105  1.7347  0.7365
 3866TIP3    H235794   7.585   3.344  15.777  0.1506  0.3218  0.9646
 3867TIP3   OH235795   2.611   7.163  17.454 -0.2424  0.2746  0.8517
 3867TIP3    H135796   2.624   7.251  17.489  0.1770  0.4699  0.2355
 3867TIP3    H235797   2.660   7.106  17.513  2.4969  0.8523 -0.6695
 3868TIP3   OH235798   3.772   3.172  16.389 -0.3413 -1.0369  0.2804
 3868TIP3    H135799   3.692   3.178  16.337 -0.2416 -1.8013  0.0241
 3868TIP3    H235800   3.830   3.117  16.337  0.2841 -0.6484  0.5547
 3869TIP3   OH235801   2.731   4.452  16.405  0.3218 -0.3751 -0.4498
 3869TIP3    H135802   2.807   4.407  16.368  0.4427 -1.1298  0.6607
 3869TIP3    H235803   2.687   4.385  16.458  0.2773  0.6937  0.9339
 3870TIP3   OH235804   8.200   3.215  17.191  0.1551 -0.2018  0.2894
 3870TIP3    H135805   8.291   3.215  17.221  0.0726  1.3349  0.5947
 3870TIP3    H235806   8.148   3.209  17.271 -0.0377 -1.6655  0.0874
 3871TIP3   OH235807   3.989   2.566  17.235 -0.3887  0.6814 -0.2422
 3871TIP3    H135808   4.078   2.541  17.210 -1.3404 -0.8246 -2.4554
 3871TIP3    H235809   3.979   2.532  17.324  0.7673 -0.4691 -0.5170
 3872TIP3   OH235810   7.830   1.492  17.117 -0.1824 -0.8273  0.2607
 3872TIP3    H135811   7.756   1.532  17.072  1.6383  1.4190 -0.9851
 3872TIP3    H235812   7.806   1.495  17.209 -0.8679  1.7865  0.0850
 3873TIP3   OH235813   4.504   6.333  16.285 -0.3798  0.1097 -0.2792
 3873TIP3    H135814   4.511   6.270  16.357  0.3941 -0.9364 -1.2199
 3873TIP3    H235815   4.562   6.404  16.309 -0.7469  0.1533  0.4987
 3874TIP3   OH235816   1.548   3.519  17.244  0.2197 -0.1399 -0.4120
 3874TIP3    H135817   1.482   3.565  17.192  0.0818 -0.1389 -0.2369
 3874TIP3    H235818   1.567   3.578  17.317 -1.0416 -0.9729  0.6387
 3875TIP3   OH235819   0.743   1.002  15.389  0.2639 -0.0482  0.4637
 3875TIP3    H135820   0.800   1.067  15.349  0.7063 -0.0699  1.0409
 3875TIP3    H235821   0.658   1.046  15.398 -0.0604 -0.2819 -1.1483
 3876TIP3   OH235822   5.835   3.757  17.221 -0.8549 -0.0061 -0.1277
 3876TIP3    H135823   5.810   3.848  17.232 -4.4807 -0.7222 -0.9185
 3876TIP3    H235824   5.840   3.722  17.310 -2.2468  0.3718  0.1183
 3877TIP3   OH235825   5.993   3.057  16.132  0.2947 -0.3949 -0.2841
 3877TIP3    H135826   5.952   3.049  16.045 -0.4986 -0.7602  0.1073
 3877TIP3    H235827   6.011   2.967  16.158 -0.2100 -0.3497  0.2613
 3878TIP3   OH235828   1.637   7.468  17.093 -0.2774 -0.2160  0.1611
 3878TIP3    H135829   1.707   7.426  17.143 -0.9149  0.2366  1.4549
 3878TIP3    H235830   1.604   7.537  17.150 -0.3767  0.9733 -1.2638
 3879TIP3   OH235831   6.227   1.311  17.521 -0.3694 -0.2390 -0.6181
 3879TIP3    H135832   6.147   1.259  17.527 -0.9618  0.6327 -0.7016
 3879TIP3    H235833   6.284   1.263  17.461 -0.4910 -1.2973  0.0968
 3880TIP3   OH235834   6.911   1.471  17.044 -0.3180  0.1361 -0.1170
 3880TIP3    H135835   6.980   1.443  17.103 -1.0059 -0.0330  0.6198
 3880TIP3    H235836   6.839   1.497  17.101 -1.1960 -0.5306 -0.8845
 3881TIP3   OH235837   3.869   1.166  17.055 -0.2864  0.0806 -0.0775
 3881TIP3    H135838   3.817   1.229  17.105 -1.2736 -0.9062  0.1826
 3881TIP3    H235839   3.957   1.174  17.091 -0.1847  1.8808 -0.6113
 3882TIP3   OH235840   7.062   4.381  16.627 -0.4699  0.2410 -0.1429
 3882TIP3    H135841   7.056   4.362  16.534  0.0178  1.3516 -0.4244
 3882TIP3    H235842   6.973   4.403  16.654 -1.4946 -3.9710  0.6349
 3883TIP3   OH235843   8.246   0.186  16.582 -0.5186 -0.6804 -0.4095
 3883TIP3    H135844   8.316   0.212  16.522 -0.5191  0.4040  0.0293
 3883TIP3    H235845   8.190   0.128  16.530  0.8508 -1.8347 -0.6766
 3884TIP3   OH235846   5.974   3.806  16.523  0.8053  0.1813 -0.3748
 3884TIP3    H135847   5.946   3.863  16.595 -0.1589  1.0384 -1.4024
 3884TIP3    H235848   6.046   3.853  16.482 -0.7734  1.3310 -1.9844
 3885TIP3   OH235849   4.393   8.174  17.051 -0.2340  0.1203  0.5586
 3885TIP3    H135850   4.336   8.127  17.112 -1.8313  0.9252 -0.2685
 3885TIP3    H235851   4.352   8.260  17.040  1.3766  0.8905  0.2564
 3886TIP3   OH235852   1.714   2.727  16.334  0.1065 -0.3421 -0.2947
 3886TIP3    H135853   1.703   2.679  16.417 -0.5678 -0.4646 -0.4493
 3886TIP3    H235854   1.741   2.660  16.272 -1.2963 -0.6380 -0.6223
 3887TIP3   OH235855   5.144   0.448  18.117  0.1606  0.3982  0.0109
 3887TIP3    H135856   5.212   0.381  18.116  0.2642  0.4925 -1.3128
 3887TIP3    H235857   5.175   0.514  18.055 -1.3171  0.2480 -0.9440
 3888TIP3   OH235858   0.503   3.674  17.810  0.2447 -0.0156 -0.1560
 3888TIP3    H135859   0.485   3.584  17.783  2.7606 -0.6573  0.0798
 3888TIP3    H235860   0.571   3.667  17.876 -0.4570  2.0092  0.8802
 3889TIP3   OH235861   6.925   5.154  17.474 -0.0987 -0.0862 -0.1658
 3889TIP3    H135862   6.996   5.218  17.469 -1.3071  1.2547 -1.3282
 3889TIP3    H235863   6.846   5.208  17.479 -1.1090 -1.5199 -0.2339
 3890TIP3   OH235864   4.561   3.198  16.592 -0.2766 -0.1749  0.3925
 3890TIP3    H135865   4.623   3.264  16.620 -0.8026  0.9703 -1.0036
 3890TIP3    H235866   4.577   3.189  16.498 -1.8153 -0.2796  0.1176
 3891TIP3   OH235867   8.025   7.459  17.849  0.3137  0.1847  0.2698
 3891TIP3    H135868   7.973   7.465  17.929 -1.8442 -1.3827 -0.9014
 3891TIP3    H235869   7.971   7.502  17.783  1.8933  1.1187 -0.4646
 3892TIP3   OH235870   0.635   0.811  16.179 -0.0365 -0.1094  0.1021
 3892TIP3    H135871   0.698   0.857  16.124 -0.5969  1.0729  0.4196
 3892TIP3    H235872   0.560   0.796  16.121  0.2056 -0.7676 -0.0434
 3893TIP3   OH235873   2.763   8.361  16.098 -0.1032 -0.0171  0.2294
 3893TIP3    H135874   2.784   8.387  16.009 -0.2082 -1.3188 -0.1956
 3893TIP3    H235875   2.677   8.399  16.115 -0.9181 -1.2484 -0.9057
 3894TIP3   OH235876   2.234   3.442  17.663  0.4186  0.2420  0.0967
 3894TIP3    H135877   2.230   3.375  17.731  1.7893 -0.7697 -0.7684
 3894TIP3    H235878   2.244   3.393  17.581 -2.0828  1.3805 -1.0094
 3895TIP3   OH235879   1.065   0.748  16.211  0.3610  0.1660 -0.5076
 3895TIP3    H135880   1.041   0.659  16.239 -0.7046  0.6576  0.2084
 3895TIP3    H235881   1.036   0.753  16.120  0.3370 -0.1878 -0.5229
 3896TIP3   OH235882   2.801   6.825  16.573  0.3600  0.3708  0.3926
 3896TIP3    H135883   2.891   6.804  16.548  0.0307  0.1823 -0.6697
 3896TIP3    H235884   2.753   6.744  16.562  0.3856 -0.0160  2.7108
 3897TIP3   OH235885   1.435   4.214  16.177  0.1855  0.0472 -0.1316
 3897TIP3    H135886   1.423   4.120  16.186 -1.9510  0.2941  0.2732
 3897TIP3    H235887   1.376   4.239  16.106 -0.3897  1.2457  0.7240
 3898TIP3   OH235888   6.301   4.160  17.837 -0.0072 -0.1336  0.3292
 3898TIP3    H135889   6.304   4.080  17.891  1.1109  0.7135  1.5906
 3898TIP3    H235890   6.393   4.186  17.829 -0.0977 -0.3627 -2.2729
 3899TIP3   OH235891   7.954   3.155  16.661 -0.3327  0.1705 -0.1261
 3899TIP3    H135892   7.934   3.086  16.598  0.0817 -0.1646  0.1034
 3899TIP3    H235893   8.018   3.211  16.618  0.8803 -0.7501  0.4365
 3900TIP3   OH235894   2.457   5.501  17.616 -0.1257 -0.2972  0.0706
 3900TIP3    H135895   2.403   5.578  17.596  0.0095  0.2470  1.6582
 3900TIP3    H235896   2.530   5.506  17.555 -0.4722  0.4490 -0.2966
 3901TIP3   OH235897   4.752   0.881  16.082 -0.3007 -0.7348  0.7824
 3901TIP3    H135898   4.718   0.955  16.031 -2.1291  0.2392  3.2164
 3901TIP3    H235899   4.681   0.816  16.079  0.7633 -1.8902 -0.2564
 3902TIP3   OH235900   0.410   1.553  16.037  0.6172 -0.4803  0.6399
 3902TIP3    H135901   0.463   1.491  15.987 -1.8008 -2.6291  0.4681
 3902TIP3    H235902   0.358   1.598  15.971  2.3144  1.8170  0.7714
 3903TIP3   OH235903   3.227   1.433  15.953 -0.3259  0.6714  0.0990
 3903TIP3    H135904   3.215   1.361  15.891  1.3571  0.0171  0.4643
 3903TIP3    H235905   3.301   1.483  15.917  1.2391 -0.1982  1.9176
 3904TIP3   OH235906   0.234   3.045  15.522 -0.4161  0.3820 -0.1528
 3904TIP3    H135907   0.194   2.971  15.477 -2.8256  0.3209  1.8347
 3904TIP3    H235908   0.186   3.121  15.490 -0.1409  0.6917  0.1646
 3905TIP3   OH235909   4.146   1.427  17.660  0.3078  0.1578  0.3742
 3905TIP3    H135910   4.099   1.477  17.727 -1.8888  0.8755 -1.5778
 3905TIP3    H235911   4.159   1.341  17.699 -2.8448 -0.1430  1.0340
 3906TIP3   OH235912   0.747   8.442  17.196 -0.3612  0.3727 -0.7684
 3906TIP3    H135913   0.691   8.409  17.266 -1.2674  2.9162 -0.1849
 3906TIP3    H235914   0.688   8.453  17.121  0.5217 -1.9493 -1.9145
 3907TIP3   OH235915   7.206   3.139  16.015 -0.0290  0.2350  0.2555
 3907TIP3    H135916   7.128   3.102  15.974 -0.4193  1.4163 -0.1155
 3907TIP3    H235917   7.172   3.200  16.081  0.5927 -0.7089  1.4863
 3908TIP3   OH235918   2.281   3.922  17.144  0.0277 -0.3627 -0.0731
 3908TIP3    H135919   2.214   3.875  17.194 -0.5679 -0.0911 -0.6093
 3908TIP3    H235920   2.262   4.014  17.158 -0.6919 -0.2637 -1.4757
 3909TIP3   OH235921   2.120   5.830  17.718 -1.1760 -0.4254 -0.6711
 3909TIP3    H135922   2.062   5.754  17.722 -1.7435  0.0479  0.6037
 3909TIP3    H235923   2.081   5.893  17.779 -0.0571  0.4285 -0.8061
 3910TIP3   OH235924   3.131   5.272  16.512 -0.1083  0.6499 -0.2283
 3910TIP3    H135925   3.182   5.193  16.531 -0.8572 -0.0308 -0.9595
 3910TIP3    H235926   3.180   5.342  16.554  1.3560  0.0068 -0.7692
 3911TIP3   OH235927   8.388   4.520  16.817  0.1902 -0.0813  0.7168
 3911TIP3    H135928   8.430   4.556  16.895  0.4035 -0.0854  0.6042
 3911TIP3    H235929   8.461   4.484  16.766  0.5907  3.3256 -1.3670
 3912TIP3   OH235930   5.392   6.368  17.546  0.2170  0.0221  0.0190
 3912TIP3    H135931   5.486   6.373  17.566  0.2992  1.2818 -0.5694
 3912TIP3    H235932   5.349   6.409  17.621  0.3647  2.2964 -1.0477
 3913TIP3   OH235933   6.390   0.337  16.860  0.2600 -0.2800  0.1158
 3913TIP3    H135934   6.335   0.300  16.929 -2.5747  1.4484 -1.0597
 3913TIP3    H235935   6.360   0.294  16.780  2.0301 -0.7045 -0.3622
 3914TIP3   OH235936   0.764   7.156  18.091 -0.2316  0.2301  0.5612
 3914TIP3    H135937   0.813   7.109  18.024 -1.0657  0.1675 -0.0122
 3914TIP3    H235938   0.826   7.220  18.125  0.3086  0.0263 -0.0203
 3915TIP3   OH235939   6.361   6.378  17.689 -0.5866 -0.5081  0.2601
 3915TIP3    H135940   6.354   6.286  17.714 -2.7466 -0.4137  0.2414
 3915TIP3    H235941   6.450   6.403  17.714 -0.0935 -2.4745  0.6570
 3916TIP3   OH235942   7.374   5.966  16.591  0.0043  0.0678  0.2689
 3916TIP3    H135943   7.419   5.931  16.668  2.1975  0.8037 -0.5854
 3916TIP3    H235944   7.391   5.903  16.522 -1.0393 -0.0571  0.1087
 3917TIP3   OH235945   1.066   7.309  16.481 -0.3166 -0.1567 -0.8552
 3917TIP3    H135946   1.074   7.378  16.415 -3.0296  2.0655  0.9080
 3917TIP3    H235947   0.972   7.305  16.500  0.2102 -1.6402  1.8994
 3918TIP3   OH235948   7.600   8.405  17.802 -0.5182  0.0129  0.3372
 3918TIP3    H135949   7.654   8.462  17.748 -0.0546  0.0135  0.7851
 3918TIP3    H235950   7.663   8.347  17.845 -0.8197  0.3619  1.2846
 3919TIP3   OH235951   5.310   0.139  16.731 -0.0521 -0.1995 -0.1219
 3919TIP3    H135952   5.326   0.222  16.776  0.0849  1.2213 -2.5978
 3919TIP3    H235953   5.263   0.164  16.651  0.1530 -2.4863 -1.0394
 3920TIP3   OH235954   1.566   6.483  16.497  0.1456 -0.3977 -0.1049
 3920TIP3    H135955   1.602   6.556  16.547 -0.9287 -0.8895  1.4778
 3920TIP3    H235956   1.474   6.507  16.483  0.7203  0.4240 -3.2649
 3921TIP3   OH235957   5.670   1.043  18.521  0.6305 -0.3929 -0.2503
 3921TIP3    H135958   5.683   0.980  18.592  3.0167  0.3823  0.0988
 3921TIP3    H235959   5.678   1.129  18.563 -1.3814  0.1626 -0.9182
 3922TIP3   OH235960   0.884   0.162  16.969  0.6520 -0.1720 -0.6257
 3922TIP3    H135961   0.953   0.096  16.976  0.0962 -0.9524 -1.9480
 3922TIP3    H235962   0.840   0.160  17.054  0.4950 -1.7068 -0.7027
 3923TIP3   OH235963   2.292   4.662  17.768  0.0637 -0.6281 -0.1941
 3923TIP3    H135964   2.359   4.680  17.703 -0.4281  0.7659 -0.3503
 3923TIP3    H235965   2.302   4.732  17.833 -1.7488  0.1383 -0.6652
 3924TIP3   OH235966   2.412   0.908  16.165  0.5846  0.1521 -0.1534
 3924TIP3    H135967   2.458   0.875  16.088  0.3472 -1.7355  0.4732
 3924TIP3    H235968   2.367   0.987  16.134  1.7917  0.3440 -1.5183
 3925TIP3   OH235969   7.874   4.433  16.652  0.0047 -0.4635 -0.5763
 3925TIP3    H135970   7.932   4.412  16.725 -1.8034  0.5846  1.2563
 3925TIP3    H235971   7.833   4.516  16.676  0.4406  0.7586 -3.5180
 3926TIP3   OH235972   4.714   1.493  17.650  0.0538 -0.5623  0.0237
 3926TIP3    H135973   4.765   1.416  17.622  1.0592 -0.2170  0.8433
 3926TIP3    H235974   4.757   1.567  17.608  0.5020 -0.2233  1.0460
 3927TIP3   OH235975   3.041   1.666  15.623 -0.6058  0.4978  0.4112
 3927TIP3    H135976   2.970   1.672  15.687  0.4719  0.0091  1.6812
 3927TIP3    H235977   3.065   1.574  15.623  0.0234  0.6580 -0.0291
 3928TIP3   OH235978   2.824   2.931  16.475  0.0119  0.4405  0.0439
 3928TIP3    H135979   2.884   2.994  16.515  1.2187 -0.3040 -0.5234
 3928TIP3    H235980   2.779   2.980  16.406  1.2601  0.5936 -0.6912
 3929TIP3   OH235981   1.196   3.873  15.779 -0.3631 -0.1047  0.1367
 3929TIP3    H135982   1.195   3.779  15.798 -2.3997  0.1753  1.7657
 3929TIP3    H235983   1.142   3.882  15.700 -0.3237 -0.2793  0.0894
 3930TIP3   OH235984   3.386   3.987  16.074  0.3776  0.0544 -0.3137
 3930TIP3    H135985   3.457   4.040  16.110 -0.0391 -0.0539  0.7044
 3930TIP3    H235986   3.358   4.035  15.996  2.3805 -0.5428 -1.4796
 3931TIP3   OH235987   2.628   3.064  16.296 -0.0192  0.6573 -0.1608
 3931TIP3    H135988   2.555   3.005  16.311  0.4506  0.0661 -0.1279
 3931TIP3    H235989   2.654   3.047  16.205 -0.4341  1.4566 -0.4432
 3932TIP3   OH235990   3.664   3.795  16.526 -0.2926  0.4770  0.1553
 3932TIP3    H135991   3.685   3.850  16.601 -0.2557 -0.0212  0.5158
 3932TIP3    H235992   3.649   3.708  16.563  0.6214  0.0244 -0.5110
 3933TIP3   OH235993   4.965   7.724  17.766 -0.1282 -0.1723 -0.3073
 3933TIP3    H135994   4.901   7.796  17.766  0.3636  0.2883  0.6583
 3933TIP3    H235995   5.022   7.743  17.691 -0.2842  0.1979 -0.3364
 3934TIP3   OH235996   6.651   1.251  17.217  0.0004  0.2807  0.1877
 3934TIP3    H135997   6.718   1.186  17.235  0.9155  1.6386  2.1390
 3934TIP3    H235998   6.590   1.208  17.158  2.3559 -1.1510 -1.3820
 3935TIP3   OH235999   1.288   3.936  15.332 -0.1986 -0.0861  0.1504
 3935TIP3    H136000   1.306   4.021  15.373  0.9117  0.3726 -1.2115
 3935TIP3    H236001   1.210   3.904  15.378  0.2947  0.9204  1.7802
 3936TIP3   OH236002   2.388   3.894  17.773 -0.0704 -0.4560  0.4248
 3936TIP3    H136003   2.459   3.958  17.773 -2.2306  2.1414 -0.8327
 3936TIP3    H236004   2.431   3.810  17.788  3.1025  1.0798  0.6925
 3937TIP3   OH236005   7.520   3.868  16.746  0.0406  0.1751 -0.0313
 3937TIP3    H136006   7.536   3.880  16.840 -0.4365  0.2211  0.0504
 3937TIP3    H236007   7.597   3.905  16.703  0.3139  0.0492  0.3448
 3938TIP3   OH236008   0.279   0.146  16.303  0.3912  0.3056 -0.2222
 3938TIP3    H136009   0.261   0.186  16.218 -1.8730  0.9142  0.4651
 3938TIP3    H236010   0.319   0.215  16.355 -0.1144  0.5725 -0.1796
 3939TIP3   OH236011   8.274   3.478  17.351  0.6082  0.7299  0.0658
 3939TIP3    H136012   8.340   3.483  17.282  0.0011  2.2900 -0.4539
 3939TIP3    H236013   8.192   3.504  17.308 -1.0548 -3.7539 -0.0295
 3940TIP3   OH236014   1.416   4.347  14.944 -0.0586 -0.2837  0.5723
 3940TIP3    H136015   1.495   4.397  14.922  0.4251 -1.5409 -0.6997
 3940TIP3    H236016   1.390   4.380  15.031  0.5477  1.7348  0.0430
 3941TIP3   OH236017   3.472   6.530  16.122 -0.0987 -0.4743 -0.2599
 3941TIP3    H136018   3.477   6.483  16.205 -1.0798 -0.5672 -0.2453
 3941TIP3    H236019   3.387   6.573  16.123  0.5886  0.9529 -0.4814
 3942TIP3   OH236020   1.943   0.491  16.286 -0.0894 -0.4002 -0.1318
 3942TIP3    H136021   1.959   0.429  16.357  0.1186 -0.5813 -0.3336
 3942TIP3    H236022   1.993   0.456  16.212 -0.4177 -0.2918 -0.4101
 3943TIP3   OH236023   2.144   3.934  17.901 -0.1387  0.2832 -0.4059
 3943TIP3    H136024   2.218   3.910  17.846  0.4250  0.0472  0.4313
 3943TIP3    H236025   2.172   3.913  17.990 -1.6103 -0.8138 -0.1615
 3944TIP3   OH236026   1.272   1.043  15.685  0.3991  0.0980  0.1271
 3944TIP3    H136027   1.292   0.993  15.764  0.2716 -0.9887 -0.5091
 3944TIP3    H236028   1.200   0.996  15.644  1.0082  0.1612 -1.0670
 3945TIP3   OH236029   6.468   5.269  16.111 -0.3552  0.0687  0.2991
 3945TIP3    H136030   6.439   5.190  16.067 -1.7147  0.4566  0.4732
 3945TIP3    H236031   6.407   5.280  16.184 -0.8897  1.9041 -0.3868
 3946TIP3   OH236032   4.016   5.040  17.724 -0.3312 -0.5513  0.1672
 3946TIP3    H136033   4.087   4.994  17.770 -0.0684 -0.5437 -0.2299
 3946TIP3    H236034   4.020   5.129  17.760  0.5980 -0.2372 -0.6521
 3947TIP3   OH236035   5.200   6.579  15.584  0.1498  0.3252 -0.0352
 3947TIP3    H136036   5.128   6.539  15.535  0.5723 -1.9858  1.0682
 3947TIP3    H236037   5.184   6.673  15.580 -2.2947 -0.0750 -0.7617
 3948TIP3   OH236038   1.216   4.528  16.372 -0.1209 -0.2520  0.4458
 3948TIP3    H136039   1.229   4.615  16.410 -1.4111  0.2036 -0.0833
 3948TIP3    H236040   1.176   4.545  16.287  2.9873 -1.2149 -1.3525
 3949TIP3   OH236041   5.942   5.320  17.224  0.3028 -0.2861  0.3395
 3949TIP3    H136042   5.908   5.324  17.314  0.1644 -0.8208  0.3164
 3949TIP3    H236043   5.879   5.264  17.178 -1.5596  2.6640 -0.9600
 3950TIP3   OH236044   3.826   7.285  15.497 -0.0166 -0.2153 -0.0559
 3950TIP3    H136045   3.919   7.286  15.522 -0.7929  0.3159  3.4024
 3950TIP3    H236046   3.803   7.192  15.497  0.0664 -0.2628  1.3566
 3951TIP3   OH236047   7.376   2.849  17.612 -0.3021 -0.4265 -0.4986
 3951TIP3    H136048   7.391   2.754  17.611  0.0614 -0.3708 -0.9103
 3951TIP3    H236049   7.282   2.859  17.598 -0.5490 -0.7588  0.8043
 3952TIP3   OH236050   3.252   6.556  17.029 -0.1198 -0.1781 -0.0068
 3952TIP3    H136051   3.321   6.532  16.967  0.0470  0.3162 -0.0185
 3952TIP3    H236052   3.227   6.473  17.070  0.4696 -0.3686 -0.0147
 3953TIP3   OH236053   8.307   1.618  16.581 -0.4337  0.3352 -0.2215
 3953TIP3    H136054   8.332   1.671  16.505 -0.0913 -0.1359 -0.4375
 3953TIP3    H236055   8.260   1.679  16.638  0.1203  0.9232 -0.3831
 3954TIP3   OH236056   2.291   2.176  15.743 -0.1330 -0.2413 -0.1398
 3954TIP3    H136057   2.361   2.242  15.735 -0.1528 -0.1660  0.2772
 3954TIP3    H236058   2.226   2.202  15.677  0.6548 -0.8488 -1.1900
 3955TIP3   OH236059   4.145   3.634  17.205 -0.2010 -0.2051  0.1814
 3955TIP3    H136060   4.090   3.572  17.253  0.7421 -1.0078  0.2552
 3955TIP3    H236061   4.165   3.703  17.268  1.3273 -1.4321  1.1277
 3956TIP3   OH236062   4.826   2.109  16.229  0.5789  0.6927 -0.0157
 3956TIP3    H136063   4.819   2.132  16.137  0.5456  0.3633 -0.0968
 3956TIP3    H236064   4.816   2.013  16.231 -1.7104  0.8863  0.5670
 3957TIP3   OH236065   4.956   2.630  17.350 -0.1787  0.4671  0.1563
 3957TIP3    H136066   4.962   2.604  17.442 -0.5061  0.3677  0.1523
 3957TIP3    H236067   4.917   2.717  17.352 -0.7771  0.2083  0.0877
 3958TIP3   OH236068   2.527   0.578  16.119  0.0686  0.0855  0.6284
 3958TIP3    H136069   2.535   0.591  16.025 -1.2727  0.5632  0.5655
 3958TIP3    H236070   2.617   0.585  16.151  0.5171  0.1381 -0.5813
 3959TIP3   OH236071   6.476   6.182  17.447 -0.1652 -0.2823 -0.0927
 3959TIP3    H136072   6.492   6.273  17.472  0.6654 -0.2891 -0.5530
 3959TIP3    H236073   6.466   6.185  17.352 -1.4349 -0.5072  0.0170
 3960TIP3   OH236074   7.776   0.190  16.437 -0.0760  0.3467  0.5785
 3960TIP3    H136075   7.788   0.218  16.347  0.1482 -1.2770  0.0699
 3960TIP3    H236076   7.685   0.158  16.441  0.9501 -3.1336 -0.1899
 3961TIP3   OH236077   0.915   4.967  15.832  0.2659  0.0442  0.1029
 3961TIP3    H136078   1.007   4.987  15.816  0.2025  0.6845  0.4787
 3961TIP3    H236079   0.871   4.992  15.750  0.6507 -2.0856 -0.8062
 3962TIP3   OH236080   2.696   0.083  15.694 -0.2770  0.8505  0.4972
 3962TIP3    H136081   2.635   0.038  15.752  0.1139 -1.2057 -0.6065
 3962TIP3    H236082   2.640   0.122  15.627 -0.4543 -0.8826 -0.4148
 3963TIP3   OH236083   4.711   6.348  17.194 -0.4016  0.9473  0.1189
 3963TIP3    H136084   4.676   6.425  17.151 -1.0196  0.2349 -0.6707
 3963TIP3    H236085   4.636   6.290  17.206 -0.0472  0.6828  1.1997
 3964TIP3   OH236086   6.053   4.516  16.529 -0.1705 -0.0241 -0.3421
 3964TIP3    H136087   5.968   4.527  16.486 -0.9131  2.1364  1.5064
 3964TIP3    H236088   6.112   4.575  16.482 -0.4524  0.7121  0.2097
 3965TIP3   OH236089   5.821   0.796  17.294 -0.2231  0.0171 -0.6726
 3965TIP3    H136090   5.780   0.738  17.230  0.3053  0.8434 -1.8064
 3965TIP3    H236091   5.751   0.818  17.355 -0.9256 -0.2457 -1.3688
 3966TIP3   OH236092   5.213   7.245  17.270  0.4715 -0.1541  0.0572
 3966TIP3    H136093   5.250   7.164  17.304  0.3109 -0.8048 -1.2763
 3966TIP3    H236094   5.189   7.225  17.180 -0.5595  1.0739  0.0357
 3967TIP3   OH236095   2.157   7.770  16.827 -0.4435  0.0473 -0.6057
 3967TIP3    H136096   2.084   7.718  16.793 -1.5195  0.6139  0.7070
 3967TIP3    H236097   2.141   7.775  16.922  0.1054  1.9703 -0.5628
 3968TIP3   OH236098   6.740   1.556  16.662 -0.4231  0.3405  0.3408
 3968TIP3    H136099   6.800   1.483  16.643  1.5000  1.7185  0.8090
 3968TIP3    H236100   6.667   1.515  16.707 -0.4716 -1.6046 -1.3111
 3969TIP3   OH236101   1.061   8.435  16.718 -0.3567  0.4985  0.0236
 3969TIP3    H136102   1.079   8.417  16.625  1.1167  0.0777  0.3697
 3969TIP3    H236103   0.978   8.389  16.735  0.9033 -2.1030 -0.3334
 3970TIP3   OH236104   3.727   4.850  15.813 -0.5191 -0.2922 -0.4345
 3970TIP3    H136105   3.683   4.882  15.734 -0.5474 -0.2968 -0.4202
 3970TIP3    H236106   3.707   4.757  15.816 -1.8279 -0.0118  0.4208
 3971TIP3   OH236107   3.041   2.380  15.684 -0.7032 -0.2584  0.1491
 3971TIP3    H136108   3.057   2.292  15.716 -2.6186 -0.2130  1.3519
 3971TIP3    H236109   3.013   2.368  15.593  2.3364 -0.5552 -0.8936
 3972TIP3   OH236110   1.448   2.061  17.506 -0.4517 -0.0609 -0.5253
 3972TIP3    H136111   1.494   2.100  17.432  2.3538 -1.5892  0.2892
 3972TIP3    H236112   1.423   2.136  17.561  0.3942  0.8709 -1.3708
 3973TIP3   OH236113   2.683   0.943  17.329  0.0178 -0.3414 -0.4948
 3973TIP3    H136114   2.749   0.874  17.321  1.6356  1.3260 -2.4570
 3973TIP3    H236115   2.619   0.907  17.390  2.4267 -2.2677  1.0856
 3974TIP3   OH236116   8.098   5.429  16.132 -0.0267 -0.5259 -0.0112
 3974TIP3    H136117   8.176   5.477  16.105  0.0524 -0.5592  0.1578
 3974TIP3    H236118   8.123   5.337  16.123 -0.0949 -0.5369 -0.0925
 3975TIP3   OH236119   6.272   6.636  17.560  0.8161  0.4089 -0.2109
 3975TIP3    H136120   6.266   6.567  17.626  3.0432 -0.0390 -0.4102
 3975TIP3    H236121   6.187   6.681  17.565  0.1895 -0.8509  1.5493
 3976TIP3   OH236122   0.971   0.396  17.390  0.3232 -0.4869 -0.0549
 3976TIP3    H136123   0.945   0.309  17.422  1.5535 -1.0782 -0.5782
 3976TIP3    H236124   0.889   0.443  17.380 -0.2029 -0.6215  2.8534
 3977TIP3   OH236125   5.481   0.026  15.954  0.3998 -0.5866  0.3612
 3977TIP3    H136126   5.498   0.004  15.862  1.4762 -0.9725  0.6395
 3977TIP3    H236127   5.564   0.007  15.999  0.2166  0.5990  1.2390
 3978TIP3   OH236128   5.755   6.786  17.426 -0.0542  0.6485  0.5697
 3978TIP3    H136129   5.673   6.743  17.453  0.7399 -1.6724 -0.4272
 3978TIP3    H236130   5.729   6.840  17.351 -0.9159  1.1363  1.1959
 3979TIP3   OH236131   4.627   2.551  16.202 -0.0292 -0.4201  0.2180
 3979TIP3    H136132   4.590   2.574  16.117 -0.3678 -0.0777  0.4554
 3979TIP3    H236133   4.551   2.543  16.260  0.2967  1.0330  0.8897
 3980TIP3   OH236134   0.044   1.286  17.468  0.1793  0.2613  0.4473
 3980TIP3    H136135  -0.047   1.256  17.476 -0.0824  1.1995  1.1678
 3980TIP3    H236136   0.096   1.209  17.488 -0.4245 -0.6336 -1.2281
 3981TIP3   OH236137   4.301   1.646  17.851 -0.1207 -0.2119 -0.5790
 3981TIP3    H136138   4.367   1.690  17.905  0.6916  0.2847 -1.9305
 3981TIP3    H236139   4.327   1.554  17.851 -0.1218 -0.2154 -0.1434
 3982TIP3   OH236140   7.276   0.669  17.563 -0.4046 -0.0803  0.0986
 3982TIP3    H136141   7.206   0.615  17.600 -0.4500  0.0116  0.1475
 3982TIP3    H236142   7.232   0.723  17.498 -0.4592  0.3012  0.4491
 3983TIP3   OH236143   1.900   0.757  16.287 -0.3750  0.0943 -0.2051
 3983TIP3    H136144   1.964   0.802  16.231  0.2969  0.1242  0.5665
 3983TIP3    H236145   1.914   0.664  16.269 -1.2564  0.1434 -1.2513
 3984TIP3   OH236146   5.718   0.883  15.993 -0.1784 -0.0607  0.7439
 3984TIP3    H136147   5.752   0.803  15.954  1.4842 -0.2764  2.4314
 3984TIP3    H236148   5.696   0.858  16.083 -2.8489  0.6350  0.3534
 3985TIP3   OH236149   0.556   4.522  17.410 -0.0356  0.3748 -0.6148
 3985TIP3    H136150   0.646   4.546  17.387  0.2093  0.0872  0.0068
 3985TIP3    H236151   0.501   4.578  17.356  0.5207  0.8625 -0.6812
 3986TIP3   OH236152   0.678   2.997  17.057 -0.7313 -0.0190 -0.1606
 3986TIP3    H136153   0.687   3.070  17.118 -0.4769  1.0629 -1.4516
 3986TIP3    H236154   0.607   2.945  17.093 -0.8736  0.8171  0.8318
 3987TIP3   OH236155   0.424   2.554  17.520  0.0742  0.2990 -0.2740
 3987TIP3    H136156   0.366   2.613  17.568 -2.6039 -0.9763 -1.7199
 3987TIP3    H236157   0.510   2.566  17.561 -0.8587  3.3201  1.0687
 3988TIP3   OH236158   7.618   7.984  16.613 -0.7044 -0.2075  0.6222
 3988TIP3    H136159   7.602   8.036  16.691 -2.6316  0.3228 -0.0654
 3988TIP3    H236160   7.537   7.990  16.563  0.0115 -1.5969 -0.8119
 3989TIP3   OH236161   1.447   3.008  16.884 -0.1980  0.4610  0.2953
 3989TIP3    H136162   1.394   2.936  16.850 -1.2165 -0.9782  4.3080
 3989TIP3    H236163   1.392   3.086  16.874 -1.0994 -0.1856  0.1065
 3990TIP3   OH236164   6.074   1.416  16.903 -0.1479 -0.0974 -0.2430
 3990TIP3    H136165   5.984   1.408  16.934  0.3946  0.0354  1.4555
 3990TIP3    H236166   6.117   1.470  16.969  0.3105  3.1463 -2.8934
 3991TIP3   OH236167   2.214   0.012  16.906 -0.3677 -0.2288  0.5048
 3991TIP3    H136168   2.190  -0.077  16.931 -0.3838 -0.9444 -1.7643
 3991TIP3    H236169   2.146   0.067  16.943 -1.5438 -1.4139  0.1833
 3992TIP3   OH236170   3.903   6.303  15.676  0.5295  0.0615 -0.6574
 3992TIP3    H136171   3.973   6.242  15.653  1.1334  0.8084 -0.8180
 3992TIP3    H236172   3.942   6.390  15.668  0.6581  0.4458  2.6590
 3993TIP3   OH236173   2.736   5.055  16.187 -0.2988  0.5111  0.3525
 3993TIP3    H136174   2.791   5.128  16.214  0.4287  0.8669 -1.9159
 3993TIP3    H236175   2.722   5.005  16.267  2.0732  1.2400  1.3169
 3994TIP3   OH236176   6.165   7.298  17.384  0.3492 -0.4056 -0.4658
 3994TIP3    H136177   6.254   7.282  17.415  1.1708 -0.3898 -2.6808
 3994TIP3    H236178   6.139   7.379  17.427  0.6225 -1.4004  1.7142
 3995TIP3   OH236179   4.115   2.684  16.748 -0.2816  0.1992  0.4244
 3995TIP3    H136180   4.058   2.614  16.718 -0.1667  0.0631  0.5215
 3995TIP3    H236181   4.062   2.733  16.811 -0.3663  0.2093  0.3452
 3996TIP3   OH236182   3.955   4.005  17.256 -0.0128 -0.1339  0.4554
 3996TIP3    H136183   4.003   3.927  17.284  0.1654  0.3729  1.6646
 3996TIP3    H236184   3.878   4.008  17.313 -0.1291  0.4511  0.2808
 3997TIP3   OH236185   1.989   1.958  16.199  0.3191  0.2559  0.1052
 3997TIP3    H136186   2.025   1.998  16.278  0.5822 -0.9164  0.5968
 3997TIP3    H236187   1.911   2.009  16.180 -0.0590  0.2205  1.4559
 3998TIP3   OH236188   1.066   1.760  15.722  0.5304  0.4212  0.3206
 3998TIP3    H136189   0.987   1.731  15.767  0.4039  1.0843  0.5309
 3998TIP3    H236190   1.038   1.837  15.672  1.0337  0.6315  0.3624
 3999TIP3   OH236191   7.126   6.336  16.873  0.1286 -0.1589  0.3104
 3999TIP3    H136192   7.055   6.395  16.846  1.4609  0.4599 -2.0738
 3999TIP3    H236193   7.081   6.255  16.897 -1.4975  0.7741  0.5664
 4000TIP3   OH236194   3.728   6.402  17.468 -0.1470 -0.3974  0.5748
 4000TIP3    H136195   3.748   6.483  17.421  0.9978 -1.2635 -0.4956
 4000TIP3    H236196   3.814   6.362  17.485 -0.7204 -2.0097 -0.0746
 4001TIP3   OH236197   5.254   3.866  16.285  0.3873 -0.1519 -0.1603
 4001TIP3    H136198   5.184   3.839  16.226 -0.4595 -0.6390  1.0201
 4001TIP3    H236199   5.283   3.951  16.251 -1.0703  0.2682 -0.4475
 4002TIP3   OH236200   0.334   3.289  16.967  0.3703 -0.0340 -0.2717
 4002TIP3    H136201   0.350   3.262  17.058  0.8056  1.5744  0.1694
 4002TIP3    H236202   0.287   3.215  16.928 -0.4192 -0.4999  1.4445
 4003TIP3   OH236203   0.447   7.105  16.515  0.0687 -0.2336 -0.3978
 4003TIP3    H136204   0.479   7.023  16.554 -0.7008 -0.1199  0.5164
 4003TIP3    H236205   0.359   7.116  16.551 -0.2905  0.4053 -1.4227
 4004TIP3   OH236206   1.955   3.761  16.161  0.3536  0.0734 -0.0581
 4004TIP3    H136207   1.984   3.828  16.099 -1.8564 -0.3137 -1.6108
 4004TIP3    H236208   1.864   3.743  16.137 -0.1304 -1.1898  2.3805
 4005TIP3   OH236209   6.377   1.983  16.970 -0.5094  0.6233 -0.4914
 4005TIP3    H136210   6.336   1.974  16.884  0.5151  1.3372 -1.0676
 4005TIP3    H236211   6.309   2.022  17.025 -1.5020 -0.7160 -0.6942
 4006TIP3   OH236212   2.507   4.859  16.717  0.2584  0.4136  0.4613
 4006TIP3    H136213   2.480   4.811  16.795 -2.1631 -2.1439 -1.7149
 4006TIP3    H236214   2.445   4.931  16.710 -0.7445 -0.4717 -0.0382
 4007TIP3   OH236215   0.191   3.158  17.424 -0.1381 -0.0669  0.1066
 4007TIP3    H136216   0.247   3.123  17.494  0.6797 -0.5786 -0.7836
 4007TIP3    H236217   0.194   3.253  17.436  2.2469  0.0572 -0.8483
 4008TIP3   OH236218   6.118   4.331  16.950  0.0809  0.0353  0.0195
 4008TIP3    H136219   6.165   4.354  16.870 -1.5278  1.8266 -0.4698
 4008TIP3    H236220   6.048   4.395  16.957 -1.9503 -2.1419  1.0732
 4009TIP3   OH236221   2.008   5.253  16.476 -0.9525  0.4950  0.4109
 4009TIP3    H136222   2.028   5.265  16.569  1.2422 -0.7774  0.1691
 4009TIP3    H236223   2.089   5.273  16.431 -1.2237 -1.3791 -1.0210
 4010TIP3   OH236224   8.369   4.364  17.694  0.4194  0.2082  0.3890
 4010TIP3    H136225   8.364   4.458  17.712 -1.7732  0.2728 -0.3124
 4010TIP3    H236226   8.308   4.350  17.622  1.8095 -1.5484 -0.5206
 4011TIP3   OH236227   0.514   0.307  16.454  0.2103  0.2950  0.1417
 4011TIP3    H136228   0.604   0.308  16.421 -0.0195  0.2077 -0.5074
 4011TIP3    H236229   0.495   0.398  16.475 -0.1620  0.6248 -1.4715
 4012TIP3   OH236230   7.354   6.861  16.223  0.0811  0.2040  0.0140
 4012TIP3    H136231   7.446   6.837  16.211 -0.6833 -2.1778 -1.6302
 4012TIP3    H236232   7.353   6.956  16.212  2.2461  0.2021 -0.5799
 4013TIP3   OH236233   0.864   2.146  16.640 -0.4249 -0.0369 -0.0868
 4013TIP3    H136234   0.930   2.157  16.708  2.6841 -1.0082 -2.7182
 4013TIP3    H236235   0.819   2.065  16.664 -0.4952  0.4608  1.5863
 4014TIP3   OH236236   0.018   2.740  17.001 -0.4039 -0.2316  0.0916
 4014TIP3    H136237  -0.027   2.806  16.948 -2.0987 -1.0457  0.4701
 4014TIP3    H236238  -0.018   2.752  17.089 -0.1272 -1.1318  0.3328
 4015TIP3   OH236239   3.201   0.991  16.479  0.1012  0.1247  0.2309
 4015TIP3    H136240   3.282   0.952  16.445 -0.2401 -0.7202  0.3563
 4015TIP3    H236241   3.230   1.068  16.529  0.7431  0.3782 -0.5176
 4016TIP3   OH236242   7.178   4.200  17.440 -0.0159 -0.3607  0.8666
 4016TIP3    H136243   7.230   4.271  17.403 -0.4946  0.3564  1.5448
 4016TIP3    H236244   7.242   4.129  17.454 -0.0100 -1.1637 -2.4052
 4017TIP3   OH236245   1.702   4.902  16.561  0.0243 -0.3536  0.0327
 4017TIP3    H136246   1.794   4.922  16.577 -0.0213  1.2462 -1.3365
 4017TIP3    H236247   1.657   4.930  16.641  1.0405 -5.2724  2.6700
 4018TIP3   OH236248   2.386   1.145  17.332  0.4014  0.0638 -0.2718
 4018TIP3    H136249   2.376   1.105  17.245  1.1235 -0.4108 -0.1456
 4018TIP3    H236250   2.431   1.228  17.315  0.5927 -0.0548 -0.3447
 4019TIP3   OH236251   0.356   2.183  15.483  0.1744  0.6781 -0.3964
 4019TIP3    H136252   0.300   2.148  15.413 -0.0119 -0.4105  0.2738
 4019TIP3    H236253   0.344   2.123  15.556  1.2546  1.1442  0.1949
 4020TIP3   OH236254   0.894   8.042  16.755  0.4390  0.4615  0.1632
 4020TIP3    H136255   0.933   8.026  16.841  1.0438  0.6451 -0.0730
 4020TIP3    H236256   0.868   7.955  16.724 -0.0021  0.4227  0.6324
 4021TIP3   OH236257   2.273   0.472  16.787 -0.0877  0.2506 -0.0918
 4021TIP3    H136258   2.269   0.469  16.691  0.7297  0.9754 -0.1682
 4021TIP3    H236259   2.361   0.441  16.808  0.4486  1.8792  0.2821
 4022TIP3   OH236260   3.781   4.584  16.568 -0.2006 -0.0510 -0.1122
 4022TIP3    H136261   3.688   4.583  16.543 -0.3932  1.5811  0.4211
 4022TIP3    H236262   3.812   4.671  16.541  1.2966 -0.7344 -0.6792
 4023TIP3   OH236263   5.178   2.369  16.756  1.1498 -0.5668  0.0158
 4023TIP3    H136264   5.175   2.463  16.772  0.9856 -0.7006  0.7954
 4023TIP3    H236265   5.224   2.333  16.832 -1.8178 -1.4901  1.5352
 4024TIP3   OH236266   4.556   6.950  17.183 -0.6913  0.5253  0.4819
 4024TIP3    H136267   4.609   7.021  17.218 -0.4115  0.8061 -0.4680
 4024TIP3    H236268   4.491   6.932  17.251  0.7911 -0.0396  1.8088
 4025TIP3   OH236269   7.805   6.384  16.486  0.0063 -0.0340  0.2499
 4025TIP3    H136270   7.802   6.288  16.480 -0.3242 -0.0234  0.2307
 4025TIP3    H236271   7.723   6.413  16.447 -0.1353  0.2351  0.7373
 4026TIP3   OH236272   3.302   7.372  16.742 -0.3723  0.2398 -0.2119
 4026TIP3    H136273   3.241   7.396  16.811 -0.4103 -0.2509 -0.0719
 4026TIP3    H236274   3.277   7.283  16.718 -0.0007  0.2027 -0.4670
 4027TIP3   OH236275   0.651   7.301  17.133  0.1702 -0.8843 -0.1967
 4027TIP3    H136276   0.654   7.233  17.067  0.2181 -2.0640  0.9798
 4027TIP3    H236277   0.558   7.318  17.146  0.1445 -1.0538 -0.1615
 4028TIP3   OH236278   8.328   4.087  17.840 -0.2550  0.0264 -0.4125
 4028TIP3    H136279   8.374   4.162  17.801  0.7621  0.9123  2.2793
 4028TIP3    H236280   8.240   4.120  17.860 -0.0729  0.2509  0.0223
 4029TIP3   OH236281   7.442   0.965  16.922  0.8172  0.4135 -0.0027
 4029TIP3    H136282   7.535   0.987  16.934  0.9767  0.1261 -0.6324
 4029TIP3    H236283   7.419   1.007  16.839  0.3227  0.6565  0.2559
 4030TIP3   OH236284   7.873   5.136  17.285  0.1132  0.0076 -0.4723
 4030TIP3    H136285   7.825   5.063  17.243 -0.7155 -0.3656  1.0516
 4030TIP3    H236286   7.820   5.158  17.362  0.3173  2.2881 -0.9244
 4031TIP3   OH236287   6.411   7.507  16.356 -0.1151 -0.4132 -0.3968
 4031TIP3    H136288   6.461   7.434  16.319  0.3002 -0.2999 -0.0658
 4031TIP3    H236289   6.345   7.466  16.411 -2.1676 -0.7038 -2.9007
 4032TIP3   OH236290   1.495   1.003  16.737 -0.4253 -0.3927 -0.5305
 4032TIP3    H136291   1.408   1.020  16.701 -1.0257 -0.6793  0.7369
 4032TIP3    H236292   1.483   0.930  16.797  0.2720  0.8469  1.2129
 4033TIP3   OH236293   7.121   4.033  16.013 -0.6385  0.0763  0.3259
 4033TIP3    H136294   7.187   3.999  15.953 -1.0446  0.0135 -0.0858
 4033TIP3    H236295   7.055   4.074  15.957 -0.7542  0.4894  0.7528
 4034TIP3   OH236296   7.606   5.782  16.943  0.2131 -0.0595 -0.0184
 4034TIP3    H136297   7.598   5.760  16.851 -0.7366  1.8957 -0.4626
 4034TIP3    H236298   7.516   5.795  16.973  0.5346 -0.1625  1.0530
 4035TIP3   OH236299   5.821   2.113  16.344  0.6413 -0.3113  0.4620
 4035TIP3    H136300   5.766   2.192  16.340 -0.8323 -1.3278  0.0612
 4035TIP3    H236301   5.877   2.119  16.266 -0.1723 -0.1555 -0.1210
 4036TIP3   OH236302   3.074   3.169  17.079 -0.6685  0.0877  0.5530
 4036TIP3    H136303   3.015   3.098  17.103 -1.0082 -0.4032 -1.5316
 4036TIP3    H236304   3.161   3.138  17.102 -0.9373 -0.4544  0.8437
 4037TIP3   OH236305   0.644   7.122  17.492 -0.6921  0.4092 -0.2443
 4037TIP3    H136306   0.621   7.034  17.524 -0.0551  0.4009  0.2239
 4037TIP3    H236307   0.665   7.171  17.571  0.2586  0.5880 -0.5949
 4038TIP3   OH236308   0.619   6.162  16.519 -0.1368 -0.1605 -0.0640
 4038TIP3    H136309   0.525   6.172  16.506 -0.2161 -0.6360  0.1151
 4038TIP3    H236310   0.626   6.117  16.604  0.2188 -0.8674 -0.4598
 4039TIP3   OH236311   7.281   6.391  16.565  0.1902 -0.4352 -0.2129
 4039TIP3    H136312   7.240   6.309  16.592  2.1121 -1.1026  0.9140
 4039TIP3    H236313   7.306   6.434  16.647  0.3412  0.6724 -0.8148
 4040TIP3   OH236314   8.080   5.744  16.486 -0.9685  0.2442 -0.2198
 4040TIP3    H136315   8.167   5.784  16.478  0.0363 -0.9033  3.0251
 4040TIP3    H236316   8.022   5.817  16.505 -0.6253  0.9417 -1.6758
 4041TIP3   OH236317   1.940   6.754  17.620  0.4803  0.0065 -0.2515
 4041TIP3    H136318   1.956   6.848  17.627  0.4099 -0.0335  0.5087
 4041TIP3    H236319   2.005   6.714  17.679 -1.2794 -0.2603  1.6143
 4042TIP3   OH236320   8.244   4.878  17.020  0.0946 -0.5485 -0.1371
 4042TIP3    H136321   8.164   4.929  17.007 -1.2860 -1.1970  4.0772
 4042TIP3    H236322   8.314   4.943  17.022 -0.4446  0.1943 -2.4597
 4043TIP3   OH236323   2.031   4.808  16.010  0.4456 -0.3179  0.1054
 4043TIP3    H136324   2.030   4.715  15.992  0.5920 -0.4881  0.9162
 4043TIP3    H236325   1.963   4.821  16.076 -0.2786  0.3189 -0.7348
 4044TIP3   OH236326   7.742   5.527  16.002  0.0659 -0.1546 -0.0111
 4044TIP3    H136327   7.713   5.616  16.019  0.9984  0.1030  0.2912
 4044TIP3    H236328   7.837   5.534  15.988  0.2261 -1.1440  0.4346
 4045TIP3   OH236329   4.901   6.145  17.388 -0.2684  0.1249  0.3327
 4045TIP3    H136330   4.907   6.102  17.302 -0.4819  0.6180  0.0630
 4045TIP3    H236331   4.976   6.205  17.390 -1.4371  1.6904 -0.4241
 4046TIP3   OH236332   3.939   1.074  17.988  0.4307 -0.3542  0.0329
 4046TIP3    H136333   3.936   1.158  17.944  0.0591 -0.4296 -0.0934
 4046TIP3    H236334   3.853   1.035  17.971  0.2592 -0.3576  0.8753
 4047TIP3   OH236335   3.715   5.168  17.748 -0.2711 -0.2297  0.3195
 4047TIP3    H136336   3.785   5.112  17.714  0.7968  0.6765  0.9504
 4047TIP3    H236337   3.641   5.151  17.691  0.6773 -0.6954 -0.8267
 4048TIP3   OH236338   0.417   2.872  15.922 -0.5750 -0.0001  0.1778
 4048TIP3    H136339   0.428   2.777  15.929 -1.6900 -0.0745  1.3251
 4048TIP3    H236340   0.336   2.891  15.969 -0.1537  1.5754  0.3519
 4049TIP3   OH236341   7.283   2.603  16.090 -1.1044  0.1276  1.0773
 4049TIP3    H136342   7.234   2.534  16.045 -0.3957  0.7451 -0.7204
 4049TIP3    H236343   7.218   2.644  16.147 -2.3706  0.0520 -0.2408
 4050TIP3   OH236344   2.787   2.432  16.800  0.2292 -0.0431  0.0266
 4050TIP3    H136345   2.806   2.385  16.719  3.5175 -1.4068  1.3925
 4050TIP3    H236346   2.692   2.432  16.806 -0.0664 -1.6338 -2.8192
 4051TIP3   OH236347   0.757   3.261  16.943 -0.2934 -0.2820  0.4243
 4051TIP3    H136348   0.720   3.246  17.030  0.1667 -1.2968  0.4630
 4051TIP3    H236349   0.846   3.225  16.948  1.2487  3.1982  0.7159
 4052TIP3   OH236350   1.965   2.832  15.886  0.1932  0.2710 -0.3010
 4052TIP3    H136351   1.910   2.869  15.817 -1.6007  1.5700  1.6812
 4052TIP3    H236352   2.013   2.907  15.921  0.6155 -0.2520  0.2648
 4053TIP3   OH236353   5.629   4.366  17.777 -0.7054  0.2129  0.2079
 4053TIP3    H136354   5.577   4.442  17.801  0.7002  0.9449  1.0899
 4053TIP3    H236355   5.716   4.401  17.760 -0.0585 -1.1701  0.5148
 4054TIP3   OH236356   6.132   5.069  17.647  0.1985  0.4364 -0.3643
 4054TIP3    H136357   6.037   5.073  17.648  0.1330 -0.5194 -1.1304
 4054TIP3    H236358   6.152   4.980  17.676  0.8434  0.4959 -0.6110
 4055TIP3   OH236359   5.202   4.891  16.791 -0.3946 -0.1582 -0.1759
 4055TIP3    H136360   5.145   4.967  16.784 -2.7807 -1.7101  0.9377
 4055TIP3    H236361   5.203   4.870  16.885  1.4343 -0.6371 -0.2672
 4056TIP3   OH236362   5.084   3.252  16.204  0.2701  0.3313  0.4082
 4056TIP3    H136363   5.127   3.215  16.126 -0.6739  1.9996 -0.9928
 4056TIP3    H236364   4.990   3.244  16.185  0.0309  2.5223  0.4421
 4057TIP3   OH236365   7.108   0.121  15.840 -0.3021  0.1478  0.0434
 4057TIP3    H136366   7.034   0.069  15.808  0.4330 -0.2865 -0.9910
 4057TIP3    H236367   7.129   0.083  15.925  0.0982 -1.1461 -0.6101
 4058TIP3   OH236368   0.754   0.141  16.646 -0.1557  0.1252  0.6886
 4058TIP3    H136369   0.819   0.072  16.663  0.5224  0.6083  0.1274
 4058TIP3    H236370   0.676   0.093  16.618  0.0398 -0.4569  1.1144
 4059TIP3   OH236371   0.572   4.115  17.209 -0.0711 -0.6590  0.1147
 4059TIP3    H136372   0.484   4.106  17.246  0.6927 -3.1635  1.5206
 4059TIP3    H236373   0.557   4.120  17.114 -1.7113 -2.0224  0.2459
 4060TIP3   OH236374   2.499   4.750  17.619  0.0746  0.0157  0.3180
 4060TIP3    H136375   2.461   4.834  17.595  0.0640 -0.1148 -0.1279
 4060TIP3    H236376   2.593   4.767  17.625 -0.0752  0.4710  1.9657
 4061TIP3   OH236377   7.276   2.931  16.239  0.0064 -0.1012  0.2482
 4061TIP3    H136378   7.200   2.893  16.283 -0.4214 -0.0585 -0.4386
 4061TIP3    H236379   7.238   2.989  16.173  0.6442  0.4075  0.3235
 4062TIP3   OH236380   3.583   4.224  17.258 -0.3271  0.7199 -0.2212
 4062TIP3    H136381   3.604   4.142  17.212 -0.1577  0.4547  0.3241
 4062TIP3    H236382   3.566   4.287  17.188 -1.1780  0.0379 -0.6563
 4063TIP3   OH236383   3.243   2.726  16.275 -0.6769  0.4816 -0.0984
 4063TIP3    H136384   3.198   2.810  16.268  0.0516  0.7547 -2.3097
 4063TIP3    H236385   3.334   2.745  16.251 -0.9246 -1.2244 -2.8406
 4064TIP3   OH236386   6.147   0.165  17.600 -0.0924  0.4539 -0.4911
 4064TIP3    H136387   6.123   0.160  17.692  1.1477 -1.2610 -0.2029
 4064TIP3    H236388   6.144   0.258  17.579 -0.1753  0.8989  1.3370
 4065TIP3   OH236389   8.238   0.664  17.460  0.4527 -0.5654 -0.2935
 4065TIP3    H136390   8.150   0.628  17.450  0.2662 -0.5544  1.0330
 4065TIP3    H236391   8.296   0.588  17.452  0.0271 -1.4242  3.1269
 4066TIP3   OH236392   7.912   7.032  16.799  0.7191 -0.0551 -0.0784
 4066TIP3    H136393   7.818   7.044  16.806  0.3228 -2.5167 -0.3779
 4066TIP3    H236394   7.934   6.970  16.869  1.8071 -0.8014 -1.0346
 4067TIP3   OH236395   1.839   1.449  16.206 -0.1888 -0.3423  0.0301
 4067TIP3    H136396   1.906   1.514  16.226  0.8878 -1.0358 -1.1615
 4067TIP3    H236397   1.857   1.376  16.265 -0.6688 -0.0360  0.5597
 4068TIP3   OH236398   5.698   0.745  15.654  0.4273 -0.0477  0.1247
 4068TIP3    H136399   5.783   0.774  15.688  0.1480 -0.0910  0.8656
 4068TIP3    H236400   5.720   0.674  15.593  1.0163  0.7979 -0.6894
 4069TIP3   OH236401   4.735   7.588  16.449  0.1799 -0.2598 -0.1122
 4069TIP3    H136402   4.726   7.533  16.526 -0.7562  1.3898  1.0130
 4069TIP3    H236403   4.646   7.593  16.412  0.1218  0.8901  0.1274
 4070TIP3   OH236404   0.440   0.516  16.188 -0.4984  0.1219 -0.1877
 4070TIP3    H136405   0.473   0.593  16.142 -0.2868  0.7925  1.0469
 4070TIP3    H236406   0.354   0.542  16.219 -1.6931 -1.1516 -2.1962
 4071TIP3   OH236407   5.747   3.660  16.841  0.4060 -0.3883 -0.0415
 4071TIP3    H136408   5.778   3.628  16.756  1.1617 -0.7644  0.3618
 4071TIP3    H236409   5.827   3.685  16.888  0.1248 -1.4605  1.0607
 4072TIP3   OH236410   4.703   7.663  17.917  0.0375 -0.4595  0.4532
 4072TIP3    H136411   4.646   7.691  17.989  0.5447  1.4857  0.1754
 4072TIP3    H236412   4.672   7.576  17.893 -3.2350  0.7339 -0.0920
 4073TIP3   OH236413   1.052   3.876  16.887  0.3179 -0.0595  0.6418
 4073TIP3    H136414   1.097   3.953  16.920  2.4122 -1.2680  0.7796
 4073TIP3    H236415   0.981   3.911  16.832 -0.0916  1.9234  2.3059
 4074TIP3   OH236416   8.395   5.371  17.543  0.1375  0.3026  0.0492
 4074TIP3    H136417   8.482   5.383  17.582  0.2518 -0.8957  0.2073
 4074TIP3    H236418   8.335   5.367  17.618 -0.1883  1.9748 -0.0933
 4075TIP3   OH236419   6.089   2.944  16.663 -0.2441 -0.2336  0.0562
 4075TIP3    H136420   6.097   2.892  16.743 -0.5529  0.2504  0.4065
 4075TIP3    H236421   6.037   3.020  16.688  0.6010  0.5006 -0.3165
 4076TIP3   OH236422   2.112   8.434  16.530  0.7319 -0.6138  0.6399
 4076TIP3    H136423   2.091   8.410  16.440 -0.0371  2.3367 -0.0548
 4076TIP3    H236424   2.205   8.413  16.539  1.0329 -0.1768 -1.1251
 4077TIP3   OH236425   3.519   1.749  17.284  0.2237 -0.6322 -0.2981
 4077TIP3    H136426   3.508   1.668  17.235 -0.7496 -1.6573  1.5103
 4077TIP3    H236427   3.436   1.796  17.273  0.0914 -0.7558  0.1688
 4078TIP3   OH236428   2.203   6.978  16.909  0.1285 -0.9296  0.1537
 4078TIP3    H136429   2.264   7.029  16.855  0.1013 -0.4799  0.5427
 4078TIP3    H236430   2.232   6.994  16.999 -1.6270  0.7542  0.4904
 4079TIP3   OH236431   2.343   2.600  17.359 -0.4305 -0.4141  0.1707
 4079TIP3    H136432   2.329   2.650  17.278 -0.3867  0.3232  0.6063
 4079TIP3    H236433   2.261   2.610  17.407  0.1996  0.8033  1.0748
 4080TIP3   OH236434   1.958   5.362  17.785  0.2214  0.4560 -0.1694
 4080TIP3    H136435   2.022   5.348  17.855 -0.5482 -1.9901  0.1398
 4080TIP3    H236436   2.006   5.342  17.705 -0.2441 -2.2726  0.1178
 4081TIP3   OH236437   0.275   7.254  17.394  0.0878 -0.2630  0.2815
 4081TIP3    H136438   0.320   7.172  17.413  1.1409  0.3928  0.6717
 4081TIP3    H236439   0.331   7.298  17.330  0.1499  0.6828  0.9651
 4082TIP3   OH236440   7.111   0.756  16.801 -0.1337  0.3793 -0.1203
 4082TIP3    H136441   7.182   0.767  16.738 -0.8604 -0.2608 -1.0748
 4082TIP3    H236442   7.154   0.725  16.881  0.8424  1.5603 -0.1741
 4083TIP3   OH236443   2.609   1.594  17.367  0.0951 -0.0639 -0.7058
 4083TIP3    H136444   2.514   1.586  17.381 -0.0801 -2.2949 -2.4759
 4083TIP3    H236445   2.639   1.503  17.364  2.0419  0.5704 -1.7131
 4084TIP3   OH236446   5.181   6.010  16.101 -0.1048 -0.0688  0.2452
 4084TIP3    H136447   5.268   6.038  16.130  0.6628 -1.6180 -0.4699
 4084TIP3    H236448   5.189   6.000  16.006 -0.7584 -1.1859  0.2876
 4085TIP3   OH236449   1.291   2.993  17.667  0.2658 -0.0062 -0.3306
 4085TIP3    H136450   1.370   2.981  17.614  0.2574 -0.8218 -0.1688
 4085TIP3    H236451   1.304   3.077  17.710  1.3126 -0.3953  0.1461
 4086TIP3   OH236452   6.130   0.940  17.338  0.1176 -0.5238 -0.2637
 4086TIP3    H136453   6.204   1.000  17.332 -0.7829  0.5817 -0.5632
 4086TIP3    H236454   6.065   0.975  17.276 -1.0941 -0.8275  0.7889
 4087TIP3   OH236455   7.316   2.987  16.834 -0.2497  0.3956  0.2183
 4087TIP3    H136456   7.318   2.980  16.930  1.1407  1.2470  0.2682
 4087TIP3    H236457   7.276   3.072  16.818  1.0577  1.0100  0.1049
 4088TIP3   OH236458   4.264   3.054  16.331 -0.1682  0.5268  0.3327
 4088TIP3    H136459   4.359   3.055  16.319 -0.4082 -2.3602 -4.0465
 4088TIP3    H236460   4.241   2.961  16.332 -2.9323  1.1100  2.6804
 4089TIP3   OH236461   3.539   5.413  16.239  0.2849 -0.3363  0.3097
 4089TIP3    H136462   3.513   5.501  16.209 -2.9610 -0.2554  2.7623
 4089TIP3    H236463   3.546   5.362  16.158 -4.2795  0.6997 -1.0626
 4090TIP3   OH236464   0.719   4.940  16.019  0.6353 -0.5647 -0.4564
 4090TIP3    H136465   0.677   5.022  15.991  0.2585 -0.2556  0.9187
 4090TIP3    H236466   0.801   4.937  15.970  1.3088  1.3426  0.4279
 4091TIP3   OH236467   3.027   0.942  15.818 -0.0319 -0.2169 -0.3069
 4091TIP3    H136468   3.102   0.920  15.764 -0.0731 -1.0719 -0.0208
 4091TIP3    H236469   2.956   0.959  15.756  0.7443  2.0683 -0.6565
 4092TIP3   OH236470   4.656   3.484  16.840 -0.2106 -0.6218 -0.3442
 4092TIP3    H136471   4.562   3.468  16.844 -0.2675 -0.0864  1.5993
 4092TIP3    H236472   4.696   3.398  16.852 -0.4367 -0.9372 -1.7855
 4093TIP3   OH236473   0.051   2.826  16.346  0.4253  0.5662  0.3295
 4093TIP3    H136474   0.111   2.894  16.313 -0.5689  0.3418 -2.1997
 4093TIP3    H236475   0.070   2.750  16.290 -0.7022 -0.2001  0.9733
 4094TIP3   OH236476   6.258   0.512  17.313  0.3600  0.5202 -0.0290
 4094TIP3    H136477   6.336   0.461  17.336  2.0500  2.9490  0.0204
 4094TIP3    H236478   6.194   0.489  17.380  2.0831  0.6589  1.7660
 4095TIP3   OH236479   3.183   3.268  17.918 -0.1126  0.4881  0.0595
 4095TIP3    H136480   3.275   3.293  17.924  0.0037  0.1347 -0.1808
 4095TIP3    H236481   3.150   3.273  18.008  0.1611  0.5429  0.1564
 4096TIP3   OH236482   5.545   1.260  15.841 -0.4471 -0.4505 -0.1347
 4096TIP3    H136483   5.525   1.180  15.793 -0.7197 -0.1366 -0.5554
 4096TIP3    H236484   5.639   1.271  15.831 -0.0529 -1.8298  1.6806
 4097TIP3   OH236485   6.850   3.952  16.574  0.0919 -0.2574 -0.4464
 4097TIP3    H136486   6.809   3.956  16.660  1.8720  0.8686  0.3961
 4097TIP3    H236487   6.943   3.939  16.592  0.2248 -2.6893 -2.2881
 4098TIP3   OH236488   2.700   2.159  16.477  0.8344 -0.0219 -0.4621
 4098TIP3    H136489   2.608   2.175  16.497  0.4687 -1.1196 -1.1943
 4098TIP3    H236490   2.739   2.140  16.563 -0.3571 -2.9130 -0.4266
 4099TIP3   OH236491   4.526   4.643  16.480 -0.0645  0.3139 -0.3300
 4099TIP3    H136492   4.486   4.557  16.488 -0.2678  0.2908 -1.4650
 4099TIP3    H236493   4.495   4.677  16.396  1.7147  0.6056 -0.9032
 4100TIP3   OH236494   0.630   4.425  17.688 -0.1882  0.1387  0.4860
 4100TIP3    H136495   0.646   4.411  17.594 -1.3608 -1.1864  0.4410
 4100TIP3    H236496   0.712   4.400  17.730 -0.4148 -1.6531 -0.0477
 4101TIP3   OH236497   4.048   5.183  16.450 -0.0488  0.6460  0.0764
 4101TIP3    H136498   3.992   5.150  16.379  2.0834  0.2566 -1.5010
 4101TIP3    H236499   3.987   5.199  16.523 -1.9113 -1.7092 -0.8416
 4102TIP3   OH236500   0.171   6.326  15.610 -0.4547  0.9838  0.1233
 4102TIP3    H136501   0.165   6.233  15.630 -1.3169  0.7483 -1.0517
 4102TIP3    H236502   0.261   6.351  15.631 -0.0245 -0.2724 -0.1591
 4103TIP3   OH236503   1.432   5.718  15.894 -0.1010 -0.2893 -0.1438
 4103TIP3    H136504   1.486   5.795  15.911  1.0545 -0.9088 -0.9160
 4103TIP3    H236505   1.381   5.740  15.816  1.7772 -1.0339 -1.6598
 4104TIP3   OH236506   3.349   0.768  15.951 -0.4589 -0.0832 -0.0463
 4104TIP3    H136507   3.320   0.810  16.032 -0.2359 -1.5890  0.8592
 4104TIP3    H236508   3.370   0.678  15.977  1.1839 -0.1620 -1.4596
 4105TIP3   OH236509   2.412   2.772  16.060 -0.5482  0.0589  0.8890
 4105TIP3    H136510   2.471   2.705  16.096  0.4989  1.7283  2.4434
 4105TIP3    H236511   2.396   2.831  16.134 -1.2610  1.6539 -0.4979
 4106TIP3   OH236512   8.159   7.621  16.749  1.0303 -0.2436  0.7261
 4106TIP3    H136513   8.113   7.702  16.771  1.3453  0.0022  0.4874
 4106TIP3    H236514   8.117   7.554  16.803  0.6259  0.0413  0.7704
 4107TIP3   OH236515   2.107   2.920  17.020 -0.6459 -0.1529  0.5878
 4107TIP3    H136516   2.061   2.950  17.098  1.0052  3.0096  0.5233
 4107TIP3    H236517   2.038   2.904  16.956 -1.8471  0.9316  1.5618
 4108TIP3   OH236518   7.199   5.990  17.841 -0.6020 -0.2504 -0.1016
 4108TIP3    H136519   7.256   6.039  17.781  0.1346 -0.0157  0.7644
 4108TIP3    H236520   7.254   5.921  17.877 -0.7461  0.1775  1.0009
 4109TIP3   OH236521   8.034   3.825  16.481  0.0142 -0.8679  0.6939
 4109TIP3    H136522   8.062   3.879  16.555  0.2701  0.4439 -0.3298
 4109TIP3    H236523   8.097   3.753  16.478  0.5151 -0.4582  1.2322
 4110TIP3   OH236524   4.368   5.789  17.844 -0.0755  0.3133  0.8308
 4110TIP3    H136525   4.296   5.798  17.781 -1.4481 -0.9516  2.1453
 4110TIP3    H236526   4.378   5.877  17.881  1.1506  1.2338 -1.4678
 4111TIP3   OH236527   1.941   0.268  16.425  0.0287 -0.1662 -0.2137
 4111TIP3    H136528   1.981   0.222  16.499  0.2800  0.1958 -0.1194
 4111TIP3    H236529   1.916   0.199  16.364 -0.2796 -0.4732  0.2599
 4112TIP3   OH236530   0.520   1.034  16.509 -0.2692  0.1995 -0.1100
 4112TIP3    H136531   0.440   0.984  16.492  0.7195 -0.9116 -1.6826
 4112TIP3    H236532   0.507   1.070  16.597 -1.2310 -2.4415  0.9299
 4113TIP3   OH236533   2.120   2.602  16.152 -0.1443 -0.1359  0.0432
 4113TIP3    H136534   2.102   2.695  16.163  0.9804  0.3156 -1.6418
 4113TIP3    H236535   2.152   2.574  16.238 -0.9732  0.8934  0.7155
 4114TIP3   OH236536   4.685   5.412  15.709 -0.1930  0.5182 -0.1894
 4114TIP3    H136537   4.600   5.430  15.668  0.5311 -1.3783 -2.7893
 4114TIP3    H236538   4.684   5.318  15.726  1.5547  0.3441 -0.8077
 4115TIP3   OH236539   6.709   7.100  15.461 -0.6574  0.0263 -0.3018
 4115TIP3    H136540   6.750   7.176  15.502 -1.1985  0.8606 -1.2622
 4115TIP3    H236541   6.758   7.025  15.495  0.9872  0.8998 -0.6269
 4116TIP3   OH236542   8.113   8.188  16.480  0.6352  0.2673  0.2172
 4116TIP3    H136543   8.108   8.284  16.481  1.6600  0.4322 -2.5482
 4116TIP3    H236544   8.024   8.160  16.503  0.2691  1.8515  0.9283
 4117TIP3   OH236545   7.378   1.211  15.967 -0.1387  0.0071 -0.1307
 4117TIP3    H136546   7.316   1.278  15.938  2.8848  2.9567 -0.3191
 4117TIP3    H236547   7.440   1.203  15.895  1.0882 -1.0326  0.9877
 4118TIP3   OH236548   3.389   0.091  16.200  0.0150  0.0267 -0.1011
 4118TIP3    H136549   3.389  -0.003  16.183 -1.1029 -0.0013  0.0171
 4118TIP3    H236550   3.324   0.103  16.269  0.9746  0.7518  0.7132
 4119TIP3   OH236551   1.595   3.713  17.400 -0.1714 -0.2323  0.2021
 4119TIP3    H136552   1.527   3.780  17.409  0.6514  0.6897 -0.3000
 4119TIP3    H236553   1.605   3.677  17.488  1.0773  2.0009  1.0518
 4120TIP3   OH236554   6.245   1.361  16.472 -0.3027  0.0567 -0.9112
 4120TIP3    H136555   6.166   1.369  16.525 -0.0358 -0.3273 -0.4421
 4120TIP3    H236556   6.268   1.268  16.478  1.4172  0.5367  0.7865
 4121TIP3   OH236557   4.546   6.182  17.402 -0.5226  0.2832 -0.5991
 4121TIP3    H136558   4.565   6.105  17.456  2.9814 -0.3419 -2.4414
 4121TIP3    H236559   4.581   6.256  17.452 -0.0386  0.1070 -0.6762
 4122TIP3   OH236560   1.789   6.744  18.045  1.0070  0.2239 -0.5932
 4122TIP3    H136561   1.712   6.688  18.031  0.4979 -0.0657  2.6304
 4122TIP3    H236562   1.766   6.826  18.001 -0.8018 -0.1412 -0.4369
 4123TIP3   OH236563   8.447   3.849  17.861  0.4387  0.4762  0.2055
 4123TIP3    H136564   8.536   3.842  17.897  0.5479 -0.3990 -0.2242
 4123TIP3    H236565   8.427   3.943  17.866  1.6227  0.7734 -0.2510
 4124TIP3   OH236566   7.732   3.319  16.694 -0.5681 -0.0793 -0.5199
 4124TIP3    H136567   7.786   3.325  16.772  3.9378  2.2521 -3.3727
 4124TIP3    H236568   7.780   3.260  16.636 -2.8494 -0.4362 -2.1913
 4125TIP3   OH236569   4.545   7.221  16.380  0.2769 -0.1142 -0.4025
 4125TIP3    H136570   4.591   7.158  16.435 -0.0833 -0.5390 -0.5761
 4125TIP3    H236571   4.541   7.301  16.432  0.5336 -0.3080 -0.0851
 4126TIP3   OH236572   0.971   3.762  15.981 -0.0655  0.4246  0.5158
 4126TIP3    H136573   0.957   3.669  15.995 -0.5525  0.4789  0.4040
 4126TIP3    H236574   0.885   3.796  15.956 -0.3068  1.2099  2.2318
 4127TIP3   OH236575   1.348   2.169  15.955  0.2809 -0.6550  0.2191
 4127TIP3    H136576   1.363   2.131  15.868  1.6272 -0.6059  0.4016
 4127TIP3    H236577   1.270   2.223  15.945  1.7758  1.3341 -1.6447
 4128TIP3   OH236578   7.882   5.206  16.348 -0.0405  0.1370 -0.1714
 4128TIP3    H136579   7.907   5.234  16.436 -1.1325 -0.0818  0.2235
 4128TIP3    H236580   7.877   5.287  16.297  0.4988  0.2726 -0.0084
 4129TIP3   OH236581   4.484   0.881  17.040 -0.6344  0.4964 -0.3470
 4129TIP3    H136582   4.579   0.870  17.038 -0.3996  1.7130  1.4768
 4129TIP3    H236583   4.450   0.792  17.032  0.6385  0.0730 -1.3385
 4130TIP3   OH236584   0.296   6.629  16.680  0.3806  0.5088  0.0907
 4130TIP3    H136585   0.314   6.611  16.773 -0.5506 -3.6865 -0.3453
 4130TIP3    H236586   0.202   6.646  16.677  0.2900 -0.0412 -0.1635
 4131TIP3   OH236587   3.438   3.328  17.933  0.0290 -0.3969 -0.2358
 4131TIP3    H136588   3.520   3.282  17.914  0.0690  0.7863 -3.8665
 4131TIP3    H236589   3.464   3.420  17.942 -0.6994 -0.2609  0.5592
 4132TIP3   OH236590   7.420   3.748  16.057 -0.2198 -0.2594 -0.2506
 4132TIP3    H136591   7.376   3.749  15.972  0.5887 -0.3121 -0.6810
 4132TIP3    H236592   7.513   3.751  16.036  0.0072  2.6697  0.6694
 4133TIP3   OH236593   2.458   2.951  17.583  0.0939 -0.0489 -0.0816
 4133TIP3    H136594   2.503   2.871  17.613  1.7258  0.8502 -0.0198
 4133TIP3    H236595   2.495   2.968  17.497 -2.2743 -0.8470 -1.3513
 4134TIP3   OH236596   0.502   2.599  15.861 -0.1826  0.2104  0.2532
 4134TIP3    H136597   0.461   2.558  15.937  1.3259  0.0360  1.0154
 4134TIP3    H236598   0.584   2.551  15.849  0.4894  1.4452 -0.3210
 4135TIP3   OH236599   8.322   1.236  16.724 -0.6414 -0.4790  0.6880
 4135TIP3    H136600   8.280   1.252  16.639  1.6916 -0.7529 -0.5891
 4135TIP3    H236601   8.310   1.143  16.740  2.4878 -1.3983 -1.5096
 4136TIP3   OH236602   6.397   0.123  17.787 -0.2729 -0.4212 -0.5960
 4136TIP3    H136603   6.332   0.178  17.744  0.4556 -0.8421 -2.3315
 4136TIP3    H236604   6.361   0.108  17.874 -1.0449  1.8022 -0.4604
 4137TIP3   OH236605   6.804   1.796  17.129 -0.5054 -0.1328  0.0068
 4137TIP3    H136606   6.737   1.806  17.062  0.1633 -0.3945 -0.7088
 4137TIP3    H236607   6.818   1.701  17.136  1.4726 -0.0199 -1.5714
 4138TIP3   OH236608   1.633   5.538  16.302 -0.7929  0.4412  0.5620
 4138TIP3    H136609   1.605   5.535  16.211 -1.0692  2.6018  0.5377
 4138TIP3    H236610   1.603   5.623  16.335  2.1460  1.1745  1.7035
 4139TIP3   OH236611   0.688   5.878  18.022 -0.1446 -0.2941 -0.5359
 4139TIP3    H136612   0.781   5.880  18.001 -0.0031  1.2927  0.1087
 4139TIP3    H236613   0.646   5.849  17.941  0.8565 -0.5948 -0.9687
 4140TIP3   OH236614   7.367   0.398  17.870 -0.4896  0.3137  0.1365
 4140TIP3    H136615   7.440   0.437  17.918 -0.7357  1.9248 -0.7060
 4140TIP3    H236616   7.407   0.351  17.797 -0.2635  1.9506 -0.8566
 4141TIP3   OH236617   4.804   4.565  16.364  0.0285 -0.1286 -0.0230
 4141TIP3    H136618   4.774   4.628  16.299  0.7767  0.1741 -0.0850
 4141TIP3    H236619   4.789   4.609  16.448  3.8289  1.7839 -0.0865
 4142TIP3   OH236620   0.233   4.081  11.420  0.1183 -0.1145  0.3809
 4142TIP3    H136621   0.228   4.157  11.361  0.8008  0.7100  1.3554
 4142TIP3    H236622   0.271   4.116  11.501 -2.1580 -0.8657  1.8812
 4143TIP3   OH236623   8.277   5.272  17.778  0.3544  0.1030 -0.1796
 4143TIP3    H136624   8.197   5.278  17.830  0.7984  0.5434  0.4701
 4143TIP3    H236625   8.323   5.196  17.813  0.1575 -0.2404 -0.6526
 4144TIP3   OH236626   4.952   1.280  15.871 -0.5673 -0.5625  0.1462
 4144TIP3    H136627   5.010   1.206  15.853 -0.2548 -0.2265 -0.2599
 4144TIP3    H236628   4.865   1.249  15.847 -0.1701 -0.1161 -2.1175
 4145TIP3   OH236629   8.375   6.381  16.608  0.4608  0.6258 -0.2314
 4145TIP3    H136630   8.353   6.292  16.636  0.2859  0.6113 -0.4164
 4145TIP3    H236631   8.432   6.369  16.532 -1.2900  0.6722 -1.6043
 4146TIP3   OH236632   5.416   5.066  16.929 -0.0928  0.1979  0.3347
 4146TIP3    H136633   5.482   4.997  16.924  0.3763  0.6078  0.7713
 4146TIP3    H236634   5.377   5.056  17.016 -0.0498  0.4570  0.3849
 4147TIP3   OH236635   5.232   1.278  17.262  0.3140  0.5205  0.4731
 4147TIP3    H136636   5.149   1.323  17.251 -0.9030 -1.4364  1.0456
 4147TIP3    H236637   5.289   1.314  17.194 -1.1573  1.5320 -0.2627
 4148TIP3   OH236638   4.679   1.830  17.870 -0.4948  0.4818  0.3594
 4148TIP3    H136639   4.774   1.841  17.882 -0.5279  0.6992  0.4369
 4148TIP3    H236640   4.650   1.783  17.948 -0.1932 -1.1040 -0.4563
 4149TIP3   OH236641   0.560   5.100  17.508 -0.1796 -0.2806 -0.0560
 4149TIP3    H136642   0.639   5.153  17.516  0.8179 -1.7435  0.1070
 4149TIP3    H236643   0.503   5.132  17.578  1.0230 -0.4422  1.0365
 4150TIP3   OH236644   7.743   7.598  17.432 -0.1710  0.4843 -0.1465
 4150TIP3    H136645   7.662   7.625  17.389  0.0312  0.8988 -0.2774
 4150TIP3    H236646   7.787   7.544  17.367  0.0598  0.9783 -0.4083
 4151TIP3   OH236647   7.633   5.107  16.401 -0.1214 -0.2145  0.2762
 4151TIP3    H136648   7.556   5.124  16.347  1.4685 -0.8432 -2.3820
 4151TIP3    H236649   7.706   5.145  16.352  1.5780 -1.7824  1.4474
 4152TIP3   OH236650   0.239   8.131  15.688  0.0612  0.3219  0.8818
 4152TIP3    H136651   0.183   8.209  15.686 -1.8959 -1.0309 -0.1484
 4152TIP3    H236652   0.208   8.077  15.616  3.9335  0.2308 -0.9747
 4153TIP3   OH236653   3.792   5.488  16.351  0.4077  0.2029 -0.7400
 4153TIP3    H136654   3.702   5.471  16.322  0.2557  1.0639 -0.7858
 4153TIP3    H236655   3.843   5.417  16.313 -0.3224 -0.5588 -0.3366
 4154TIP3   OH236656   8.155   3.785  17.826 -0.5000 -0.1757  0.5251
 4154TIP3    H136657   8.222   3.853  17.820 -0.5494 -0.0939  0.9042
 4154TIP3    H236658   8.074   3.829  17.800 -0.0850 -0.7985 -2.1263
 4155TIP3   OH236659   5.855   8.339  17.805 -0.0348 -0.1166 -0.0303
 4155TIP3    H136660   5.767   8.345  17.766 -0.1198  0.5544  0.2478
 4155TIP3    H236661   5.910   8.306  17.735 -0.1294  1.3332 -0.8409
 4156TIP3   OH236662   6.888   7.804  16.341 -0.0822 -0.5719  0.3405
 4156TIP3    H136663   6.968   7.751  16.346  0.3973  0.1566  0.5176
 4156TIP3    H236664   6.897   7.868  16.412  0.5238  1.3315 -1.3635
 4157TIP3   OH236665   1.310   4.465  15.157 -0.4336  0.6739 -0.2418
 4157TIP3    H136666   1.320   4.554  15.123  1.0126  0.2243 -1.0778
 4157TIP3    H236667   1.316   4.475  15.252  1.8266  1.2793 -0.3781
 4158TIP3   OH236668   2.539   6.633  17.469  0.2968  0.0623  0.8811
 4158TIP3    H136669   2.526   6.716  17.423  0.6703 -0.0251  0.6063
 4158TIP3    H236670   2.587   6.579  17.406 -1.3309 -0.9289  0.4602
 4159TIP3   OH236671   7.894   4.736  16.943 -0.1598 -0.2067 -0.2637
 4159TIP3    H136672   7.824   4.675  16.918  0.8123 -1.3012 -0.3505
 4159TIP3    H236673   7.930   4.767  16.860  0.8959 -1.3277 -0.2399
 4160TIP3   OH236674   4.090   7.908  16.753 -0.0234  0.3370  0.0349
 4160TIP3    H136675   4.151   7.982  16.757 -1.3934  1.6747 -1.9748
 4160TIP3    H236676   4.011   7.944  16.713 -1.0383 -2.0490 -0.2761
 4161TIP3   OH236677   2.777   7.835  16.730 -0.2642 -0.3183  0.1668
 4161TIP3    H136678   2.755   7.902  16.665 -1.3567  0.5527  1.3861
 4161TIP3    H236679   2.693   7.794  16.752 -0.0536 -0.0495  1.5838
 4162TIP3   OH236680   4.328   0.333  18.110 -0.1243  0.2799  0.3173
 4162TIP3    H136681   4.352   0.250  18.068 -2.9829 -0.6528  0.2618
 4162TIP3    H236682   4.403   0.356  18.164  0.6522 -2.5653  0.6056
 4163TIP3   OH236683   0.661   7.167  17.750  0.1812 -0.2242  0.0793
 4163TIP3    H136684   0.704   7.091  17.790  0.7702 -0.8552 -1.6724
 4163TIP3    H236685   0.569   7.159  17.776  0.5108 -0.6430  1.1994
 4164TIP3   OH236686   5.626   8.336  18.360 -0.4285  0.5074  0.1830
 4164TIP3    H136687   5.640   8.272  18.430 -1.4366 -0.7711 -0.7566
 4164TIP3    H236688   5.668   8.297  18.283 -1.9514  0.4521 -0.6554
 4165TIP3   OH236689   3.389   2.520  17.070  0.2831  0.3068  0.0181
 4165TIP3    H136690   3.403   2.427  17.051 -1.7326  0.0378 -0.4354
 4165TIP3    H236691   3.445   2.566  17.008  2.0588 -0.5836  0.9074
 4166TIP3   OH236692   3.689   7.597  16.299 -0.0669 -0.1053 -0.3943
 4166TIP3    H136693   3.595   7.614  16.286 -0.0116 -0.8332 -1.9236
 4166TIP3    H236694   3.692   7.509  16.337  0.0279 -0.5830 -1.4792
 4167TIP3   OH236695   8.366   4.207  16.116 -0.1050  0.4423  0.4836
 4167TIP3    H136696   8.427   4.135  16.127 -1.9634 -0.9976  2.0970
 4167TIP3    H236697   8.326   4.193  16.031 -2.0093 -1.8176  1.6407
 4168TIP3   OH236698   7.736   5.736  16.446  0.1173  0.1533  0.0553
 4168TIP3    H136699   7.799   5.679  16.401 -0.5197 -0.7776  0.2933
 4168TIP3    H236700   7.712   5.802  16.381 -0.0477 -0.5867 -0.6550
 4169TIP3   OH236701   1.402   1.056  17.117 -0.0838 -0.6067  0.5284
 4169TIP3    H136702   1.346   1.081  17.190  0.6778  0.1766  0.8601
 4169TIP3    H236703   1.417   0.963  17.129  1.2106 -0.2319  2.2263
 4170TIP3   OH236704   2.658   7.572  16.560 -0.4212  0.2537 -0.4893
 4170TIP3    H136705   2.723   7.640  16.543 -0.6038  0.2121 -1.3789
 4170TIP3    H236706   2.645   7.529  16.476 -2.4654  1.0179 -0.6191
 4171TIP3   OH236707   3.417   7.314  16.347 -0.0969 -0.0544  0.2066
 4171TIP3    H136708   3.476   7.290  16.275 -0.4020  0.4288 -0.2102
 4171TIP3    H236709   3.409   7.409  16.340 -1.6908 -0.1914 -0.3515
 4172TIP3   OH236710   4.652   2.524  15.654  0.1252 -0.1511  0.6209
 4172TIP3    H136711   4.690   2.540  15.740 -0.8775 -1.4039  1.3398
 4172TIP3    H236712   4.687   2.438  15.628 -0.2689 -0.1846  0.1852
 4173TIP3   OH236713   5.527   0.404  17.463  0.1195  0.3998  0.6355
 4173TIP3    H136714   5.622   0.407  17.469  0.4856 -0.1048 -3.0041
 4173TIP3    H236715   5.501   0.337  17.527  2.1829  0.3953  1.5355
 4174TIP3   OH236716   1.592   0.253  16.613  0.5021  0.2600 -0.0214
 4174TIP3    H136717   1.637   0.180  16.657  0.7797  1.3624  1.6022
 4174TIP3    H236718   1.499   0.236  16.627  0.5472 -0.0153 -0.0457
 4175TIP3   OH236719   7.818   6.578  16.103 -0.3814 -0.7538 -0.4555
 4175TIP3    H136720   7.723   6.588  16.110 -0.4100 -0.9900 -0.5098
 4175TIP3    H236721   7.848   6.660  16.064 -0.4729 -0.3405  0.3231
 4176TIP3   OH236722   5.745   4.798  17.126  0.0904 -0.0973 -0.0922
 4176TIP3    H136723   5.813   4.759  17.071  0.3463 -0.5425  0.5239
 4176TIP3    H236724   5.793   4.857  17.185  0.0660 -1.0480  0.9120
 4177TIP3   OH236725   0.973   1.303  15.750 -0.2199  0.1961  0.3294
 4177TIP3    H136726   1.052   1.291  15.801 -1.2730 -1.9298  1.6108
 4177TIP3    H236727   0.950   1.215  15.720 -1.1761  1.0004 -1.4999
 4178TIP3   OH236728   5.994   2.493  17.496  0.2832  0.0397 -0.1063
 4178TIP3    H136729   6.015   2.400  17.506  0.4865  0.2283  1.4688
 4178TIP3    H236730   6.077   2.533  17.470  0.3701 -0.1244 -0.0866
 4179TIP3   OH236731   4.897   2.811  17.759 -0.5668  0.2789 -0.1739
 4179TIP3    H136732   4.976   2.799  17.707 -0.7441  0.8191 -0.5763
 4179TIP3    H236733   4.893   2.905  17.777 -0.4398  0.0854  0.9448
 4180TIP3   OH236734   0.487   4.629  16.947  0.3476  0.0007  0.5703
 4180TIP3    H136735   0.534   4.712  16.942  0.8523 -0.2081  1.5168
 4180TIP3    H236736   0.394   4.652  16.942  0.5213  0.4825 -0.6219
 4181TIP3   OH236737   7.389   7.729  16.274  0.3713  0.0794 -0.4191
 4181TIP3    H136738   7.293   7.731  16.277  0.3156 -1.1894 -0.7970
 4181TIP3    H236739   7.413   7.815  16.239 -0.5978  0.5814  0.0951
 4182TIP3   OH236740   1.562   7.930  16.357  0.6396  0.1183  0.2408
 4182TIP3    H136741   1.501   7.858  16.344 -0.6282  1.5160 -2.1143
 4182TIP3    H236742   1.643   7.887  16.388  0.4343 -2.5135 -2.4528
 4183TIP3   OH236743   5.333   6.564  17.011 -0.3445 -0.0819 -0.0357
 4183TIP3    H136744   5.313   6.656  16.995 -0.1483  0.0429  0.3997
 4183TIP3    H236745   5.386   6.537  16.937  0.2431  0.3736  0.2108
 4184TIP3   OH236746   2.339   7.160  16.299 -0.6489  0.4798 -0.2139
 4184TIP3    H136747   2.249   7.131  16.315 -0.4011 -0.6068 -0.6627
 4184TIP3    H236748   2.388   7.130  16.376 -0.5376  0.4393 -0.3002
 4185TIP3   OH236749   3.472   7.709  16.016 -0.1418  0.1029 -0.2052
 4185TIP3    H136750   3.509   7.636  15.967  2.1537  0.1343  1.3537
 4185TIP3    H236751   3.400   7.670  16.066  0.1724 -0.7831 -0.4227
 4186TIP3   OH236752   4.668   2.304  16.028  0.1858  0.8875 -0.8437
 4186TIP3    H136753   4.689   2.302  15.935 -1.2569  0.0675 -1.1750
 4186TIP3    H236754   4.603   2.374  16.036 -2.0025 -0.9949 -1.0280
 4187TIP3   OH236755   0.557   6.059  17.645  0.6448 -0.9207  0.1054
 4187TIP3    H136756   0.612   6.052  17.567 -0.6823 -1.7678 -0.8167
 4187TIP3    H236757   0.485   6.117  17.619  0.2267 -1.1456  0.7258
 4188TIP3   OH236758   8.191   4.476  15.844 -0.2851  0.7591  1.1112
 4188TIP3    H136759   8.237   4.506  15.923 -1.4190 -1.0929  2.5791
 4188TIP3    H236760   8.257   4.429  15.794 -0.0657 -0.1780  2.2214
 4189TIP3   OH236761   4.162   7.036  16.424  0.4947 -0.0982 -0.4301
 4189TIP3    H136762   4.085   7.082  16.389 -0.1231 -1.6701 -1.2448
 4189TIP3    H236763   4.175   7.073  16.511 -1.8569 -0.5216  0.1581
 4190TIP3   OH236764   6.262   0.524  16.413 -0.1124  0.0642  0.1926
 4190TIP3    H136765   6.287   0.466  16.340  0.6010  1.7523 -0.9681
 4190TIP3    H236766   6.341   0.576  16.430 -0.7385  0.7207  1.2005
 4191TIP3   OH236767   0.582   0.010  16.246 -0.0051 -0.4276  0.5561
 4191TIP3    H136768   0.524  -0.039  16.304 -1.9207 -1.7680 -2.2839
 4191TIP3    H236769   0.587  -0.043  16.166 -1.6825  3.4532 -2.5081
 4192TIP3   OH236770   3.115   6.351  17.780 -0.0470  0.0416 -0.0263
 4192TIP3    H136771   3.153   6.439  17.766 -0.8717  1.0885  3.3508
 4192TIP3    H236772   3.173   6.311  17.845 -0.9441 -1.0639  0.1094
 4193TIP3   OH236773   7.155   2.383  16.526 -0.1658  0.1315  0.5412
 4193TIP3    H136774   7.143   2.474  16.497  0.0062  0.0070  0.0705
 4193TIP3    H236775   7.127   2.383  16.617  1.0830  0.9536  0.9572
 4194TIP3   OH236776   2.304   4.790  16.935  0.1288 -0.1366  0.0558
 4194TIP3    H136777   2.290   4.742  17.016  0.0759 -1.1398 -0.5288
 4194TIP3    H236778   2.329   4.723  16.871  0.1769  0.6304 -0.7559
 4195TIP3   OH236779   3.080   1.976  17.446 -0.1582  0.1638  0.3264
 4195TIP3    H136780   2.992   2.006  17.426 -0.1864 -0.2827 -0.2696
 4195TIP3    H236781   3.070   1.917  17.521 -0.2930  0.5358  0.5980
 4196TIP3   OH236782   3.789   6.957  17.137  0.4976 -0.1767 -0.0197
 4196TIP3    H136783   3.745   6.989  17.216  4.0482  1.3033  1.5538
 4196TIP3    H236784   3.746   7.003  17.065 -2.8281 -1.5408  0.8641
 4197TIP3   OH236785   1.413   4.984  16.613  0.6354  0.0032 -0.2796
 4197TIP3    H136786   1.341   5.006  16.554  0.5603 -1.8320 -0.9275
 4197TIP3    H236787   1.384   5.015  16.699 -0.4630  0.2069 -0.7143
 4198TIP3   OH236788   2.921   3.786  16.751 -0.0923  0.0760 -0.6540
 4198TIP3    H136789   2.875   3.735  16.684 -1.5805 -0.1560  0.4818
 4198TIP3    H236790   2.864   3.860  16.769  0.0323 -0.1226  0.6893
 4199TIP3   OH236791   7.145   3.602  18.034  0.5250 -0.2183 -0.0385
 4199TIP3    H136792   7.063   3.557  18.050  1.0338 -1.6388 -1.1876
 4199TIP3    H236793   7.131   3.691  18.067 -0.8278 -0.9456  1.4352
 4200TIP3   OH236794   8.246   1.907  17.385 -0.6596 -0.4949  0.3056
 4200TIP3    H136795   8.195   1.987  17.394 -0.7144 -0.1142 -2.5775
 4200TIP3    H236796   8.335   1.932  17.408 -0.3963  0.8439 -1.9131
 4201TIP3   OH236797   2.735   6.053  16.260 -0.4146  0.2311  0.1550
 4201TIP3    H136798   2.786   6.093  16.190  1.2177 -2.3494 -0.2451
 4201TIP3    H236799   2.783   6.075  16.340  0.5660 -0.9568 -0.0782
 4202TIP3   OH236800   3.498   1.071  16.543 -0.5582 -0.3871  0.0640
 4202TIP3    H136801   3.578   1.117  16.519 -0.6628 -0.1078  0.2494
 4202TIP3    H236802   3.526   1.008  16.610 -0.8806  1.3490  1.9433
 4203TIP3   OH236803   8.029   7.429  16.284  0.9299  0.4186  0.0368
 4203TIP3    H136804   7.991   7.360  16.339  1.1183 -0.0043 -0.3552
 4203TIP3    H236805   7.958   7.492  16.272  0.1292 -0.6583 -1.2008
 4204TIP3   OH236806   3.799   6.650  17.317 -0.6571  0.0486  0.0984
 4204TIP3    H136807   3.836   6.670  17.231  1.3262  1.4338  1.1848
 4204TIP3    H236808   3.728   6.713  17.328  0.1736  1.0035  0.1310
 4205TIP3   OH236809   7.452   8.355  16.332  0.2259 -0.6469 -0.1599
 4205TIP3    H136810   7.401   8.319  16.260  0.6388 -0.8468 -0.3536
 4205TIP3    H236811   7.524   8.294  16.344 -0.2945 -1.0756  0.9773
 4206TIP3   OH236812   7.325   7.358  17.369  0.5536 -0.6564 -0.7041
 4206TIP3    H136813   7.233   7.333  17.369  0.6947 -1.4097 -2.9913
 4206TIP3    H236814   7.372   7.277  17.386  0.8478  0.0521  2.5027
 4207TIP3   OH236815   7.372   5.927  17.193  0.0818  0.5778  0.6627
 4207TIP3    H136816   7.364   5.846  17.244 -0.1763 -0.2298 -0.6306
 4207TIP3    H236817   7.460   5.960  17.215  0.6175 -0.6130  0.4214
 4208TIP3   OH236818   7.502   0.162  16.410  0.6329  0.3371 -0.0698
 4208TIP3    H136819   7.439   0.174  16.481  0.6958 -0.0602  0.0594
 4208TIP3    H236820   7.487   0.072  16.380  0.0457  0.7753 -1.1134
 4209TIP3   OH236821   7.229   3.227  16.904  0.2029 -0.0452 -0.4664
 4209TIP3    H136822   7.314   3.263  16.878  0.2767  0.4331  0.4028
 4209TIP3    H236823   7.217   3.256  16.994 -1.4279  0.9105 -0.9415
 4210TIP3   OH236824   0.228   7.980  15.945 -0.2238 -0.1533 -0.0179
 4210TIP3    H136825   0.217   8.056  15.887 -0.0446 -0.0609  0.0690
 4210TIP3    H236826   0.229   7.905  15.887  1.6521  0.0509 -0.2989
 4211TIP3   OH236827   4.983   2.498  17.623  0.0469  0.6479  0.4242
 4211TIP3    H136828   4.906   2.505  17.679 -0.2550 -0.3231  0.1411
 4211TIP3    H236829   5.051   2.463  17.679  0.5539  2.3016  0.9003
 4212TIP3   OH236830   4.743   3.442  16.446 -0.0938 -0.0025  0.6870
 4212TIP3    H136831   4.817   3.502  16.436 -0.9793  0.7067 -3.4417
 4212TIP3    H236832   4.778   3.356  16.422 -0.3171  0.1601 -0.2767
 4213TIP3   OH236833   4.830   2.307  16.779 -0.0761 -0.1540 -0.0306
 4213TIP3    H136834   4.904   2.364  16.762  2.3012 -3.2498 -0.9481
 4213TIP3    H236835   4.766   2.363  16.823  1.9028  3.1784 -1.0663
 4214TIP3   OH236836   5.880   7.900  17.266 -0.2019 -0.0055 -0.2455
 4214TIP3    H136837   5.924   7.866  17.189 -0.7155  0.6588 -0.8455
 4214TIP3    H236838   5.951   7.930  17.323  0.1500  0.1224 -0.7468
 4215TIP3   OH236839   1.177   2.900  15.663 -0.1886  0.0950 -0.3775
 4215TIP3    H136840   1.143   2.980  15.704  2.1215  1.0894 -0.2363
 4215TIP3    H236841   1.144   2.829  15.719  0.6267  1.2287  1.6743
 4216TIP3   OH236842   0.460   5.925  15.631  0.1277  0.7052 -0.3173
 4216TIP3    H136843   0.543   5.933  15.678  0.8477 -0.1140 -1.4069
 4216TIP3    H236844   0.444   5.830  15.626 -0.8000  0.8431 -0.2702
 4217TIP3   OH236845   6.289   8.326  15.289 -0.5688 -0.2112  0.3830
 4217TIP3    H136846   6.326   8.289  15.209  1.0647 -1.8236  1.8005
 4217TIP3    H236847   6.349   8.396  15.315 -0.8794  0.0500  0.4041
 4218TIP3   OH236848   3.730   7.968  17.241  0.0922 -0.4858 -0.2704
 4218TIP3    H136849   3.647   7.982  17.196 -0.7798  2.0636  1.8384
 4218TIP3    H236850   3.794   8.018  17.191  0.0131 -1.0533 -0.9488
 4219TIP3   OH236851   1.402   6.212  17.654  0.5222  0.3789  0.2779
 4219TIP3    H136852   1.435   6.205  17.564 -1.0003  2.9109 -0.5999
 4219TIP3    H236853   1.319   6.163  17.652 -0.0061  1.2724 -0.0035
 4220TIP3   OH236854   3.020   1.263  16.507  0.1830 -0.2854 -0.0265
 4220TIP3    H136855   3.043   1.349  16.471  0.7221 -1.7122 -3.4806
 4220TIP3    H236856   2.925   1.256  16.494  0.4774 -1.1200 -2.3043
 4221TIP3   OH236857   3.633   6.296  16.921  0.3289 -0.4296  0.3615
 4221TIP3    H136858   3.618   6.247  16.841 -1.4932  0.5111  0.0689
 4221TIP3    H236859   3.725   6.323  16.916 -0.1282  0.9215 -2.1855
 4222TIP3   OH236860   1.098   0.985  16.365 -0.3663  0.1803  0.2832
 4222TIP3    H136861   1.007   1.011  16.382 -0.6803  0.6084 -1.8473
 4222TIP3    H236862   1.091   0.916  16.299  0.9300  3.1176 -3.2560
 4223TIP3   OH236863   7.287   2.190  17.298 -0.2797  0.6754  0.3416
 4223TIP3    H136864   7.252   2.259  17.243  0.7791  0.4316 -0.6720
 4223TIP3    H236865   7.261   2.109  17.255  0.6671  0.4849  0.1204
 4224TIP3   OH236866   6.933   5.544  15.939  0.3847 -0.0675 -0.2866
 4224TIP3    H136867   6.885   5.464  15.959 -2.1338  1.2730 -0.4295
 4224TIP3    H236868   6.867   5.613  15.947  2.8588  2.2799  1.8341
 4225TIP3   OH236869   4.490   0.696  17.576 -0.4247 -0.3813  0.8331
 4225TIP3    H136870   4.399   0.724  17.591 -0.3837 -0.4778  1.2786
 4225TIP3    H236871   4.519   0.663  17.661 -0.2444 -1.1197  0.4962
 4226TIP3   OH236872   2.786   7.891  17.022  0.2908  0.3936 -0.2973
 4226TIP3    H136873   2.703   7.849  16.998  1.1978 -0.5301 -1.9969
 4226TIP3    H236874   2.847   7.867  16.952  1.7097  1.9941  0.3071
 4227TIP3   OH236875   0.748   0.877  16.672  1.2055  0.5402  0.8497
 4227TIP3    H136876   0.821   0.821  16.646  0.1258  0.3114 -2.0343
 4227TIP3    H236877   0.748   0.949  16.608 -0.5376  1.0091  1.3144
 4228TIP3   OH236878   6.231   5.994  16.498 -0.3091 -0.1137  0.4623
 4228TIP3    H136879   6.283   6.059  16.451 -0.8091  1.0036  1.4056
 4228TIP3    H236880   6.164   5.967  16.435 -0.1905  0.4019  0.1085
 4229TIP3   OH236881   6.869   4.308  17.167 -0.3021 -0.1276  0.4360
 4229TIP3    H136882   6.960   4.324  17.192  0.2399  1.2619 -2.1215
 4229TIP3    H236883   6.856   4.214  17.182  1.7223 -0.4566  0.3431
 4230TIP3   OH236884   5.629   3.586  17.084  0.0511 -0.3077 -0.1737
 4230TIP3    H136885   5.692   3.632  17.138 -1.0453  1.6162 -0.4197
 4230TIP3    H236886   5.659   3.601  16.994  1.3543 -2.7088 -0.2089
 4231TIP3   OH236887   5.659   7.077  17.056 -0.1057  0.1560 -0.1905
 4231TIP3    H136888   5.606   7.148  17.090  1.4778  0.7404  1.2169
 4231TIP3    H236889   5.620   6.998  17.093  0.6998  0.6760  1.9228
 4232TIP3   OH236890   7.710   8.262  16.376 -0.2571  0.4666 -0.2003
 4232TIP3    H136891   7.748   8.282  16.461 -0.5057 -1.4784  0.4156
 4232TIP3    H236892   7.749   8.325  16.316  0.4455  1.4239  1.2215
 4233TIP3   OH236893   0.705   2.495  15.691 -0.7968  0.2506  0.0961
 4233TIP3    H136894   0.680   2.409  15.656  2.0399 -0.6998  0.1326
 4233TIP3    H236895   0.752   2.537  15.618  0.7086  0.3483  1.0669
 4234TIP3   OH236896   3.346   4.800  17.369 -0.3491  0.1295  0.3235
 4234TIP3    H136897   3.366   4.791  17.462 -0.7158 -0.7240  0.3298
 4234TIP3    H236898   3.308   4.887  17.361  2.4382  1.4881  0.4577
 4235TIP3   OH236899   7.324   3.178  17.920  0.5820 -0.4646 -0.5891
 4235TIP3    H136900   7.235   3.144  17.912  0.5972 -1.0664  1.3011
 4235TIP3    H236901   7.314   3.273  17.919 -0.1038 -0.5291 -0.3318
 4236TIP3   OH236902   1.164   5.189  16.684 -0.0464 -0.3159  0.0398
 4236TIP3    H136903   1.095   5.219  16.625 -0.0967 -0.9422 -0.2345
 4236TIP3    H236904   1.120   5.128  16.743  0.0031  0.3167  0.7288
 4237TIP3   OH236905   7.563   4.951  17.036  0.1548  0.2209  0.4839
 4237TIP3    H136906   7.541   5.003  16.959  0.8053  2.0690  1.4714
 4237TIP3    H236907   7.489   4.893  17.048 -0.7795  1.1647 -0.4828
 4238TIP3   OH236908   4.019   4.908  17.091 -0.3516 -0.4101 -0.4604
 4238TIP3    H136909   3.976   4.983  17.131  0.2940 -0.1990 -0.1408
 4238TIP3    H236910   4.109   4.912  17.125 -0.3412 -1.3875 -0.3507
 4239TIP3   OH236911   7.095   1.964  16.044 -0.6388 -0.2423  0.4422
 4239TIP3    H136912   7.123   1.999  15.959 -0.4993 -0.5772  0.3502
 4239TIP3    H236913   7.087   2.041  16.100 -0.3023 -0.0632  0.2497
 4240TIP3   OH236914   5.278   2.085  15.749 -0.0831 -0.6925 -0.2759
 4240TIP3    H136915   5.244   2.029  15.819 -0.7956 -2.0881 -1.6937
 4240TIP3    H236916   5.218   2.160  15.748 -0.8321 -1.2749 -0.2196
 4241TIP3   OH236917   2.633   2.038  17.220  0.3756 -0.1513 -0.4431
 4241TIP3    H136918   2.675   1.952  17.216  0.6914 -0.0758  0.7742
 4241TIP3    H236919   2.675   2.088  17.150 -0.7141 -1.3406 -2.0251
 4242TIP3   OH236920   0.691   6.157  17.418 -0.2893 -0.0447  0.1186
 4242TIP3    H136921   0.723   6.239  17.455  0.1068 -0.6657  1.1861
 4242TIP3    H236922   0.765   6.124  17.366 -0.9725  1.0140 -1.6152
 4243TIP3   OH236923   5.664   6.427  17.547 -0.2534  0.1636 -0.8007
 4243TIP3    H136924   5.743   6.413  17.494  0.1447  1.5270 -0.6084
 4243TIP3    H236925   5.657   6.522  17.555 -0.5723  0.0196  1.1794
 4244TIP3   OH236926   8.113   0.611  17.179 -1.1071  0.0798 -0.0214
 4244TIP3    H136927   8.044   0.648  17.235 -1.5432 -0.8426  0.0716
 4244TIP3    H236928   8.080   0.623  17.090 -0.9164  0.5625 -0.0278
 4245TIP3   OH236929   6.877   4.848  17.129 -0.3250  0.1242  0.0443
 4245TIP3    H136930   6.924   4.889  17.057 -0.1305  0.7436  0.5138
 4245TIP3    H236931   6.943   4.792  17.171 -0.3634 -0.0202 -0.0865
 4246TIP3   OH236932   0.182   6.654  17.632  0.5111 -0.4849  0.2256
 4246TIP3    H136933   0.244   6.614  17.571 -1.0673 -0.1524 -1.6804
 4246TIP3    H236934   0.157   6.736  17.590  1.6972  1.3554  2.8097
 4247TIP3   OH236935   2.543   5.577  16.563 -0.3113 -0.5087 -0.8121
 4247TIP3    H136936   2.452   5.593  16.591 -0.4798  3.2511 -2.8294
 4247TIP3    H236937   2.534   5.537  16.476 -0.0865  0.0721 -1.1091
 4248TIP3   OH236938   2.387   5.242  17.681  0.4120  0.0380 -0.2965
 4248TIP3    H136939   2.293   5.229  17.691  0.4660 -1.1967 -1.1022
 4248TIP3    H236940   2.398   5.336  17.674 -0.9192  0.1383 -1.4987
 4249TIP3   OH236941   7.307   2.563  17.573  0.1862  0.3826  0.0445
 4249TIP3    H136942   7.331   2.470  17.572  0.8260  0.5441 -0.8766
 4249TIP3    H236943   7.211   2.563  17.576  0.1254 -0.3268 -1.1825
 4250TIP3   OH236944   7.670   3.699  17.627  0.0383  0.2103  0.4716
 4250TIP3    H136945   7.636   3.748  17.702  1.4057  0.2742  1.0682
 4250TIP3    H236946   7.617   3.729  17.553  1.2418  3.1569  0.6674
 4251TIP3   OH236947   8.223   2.382  16.637 -0.7864 -1.0182  0.4581
 4251TIP3    H136948   8.240   2.318  16.568  1.9365  0.4233 -0.3583
 4251TIP3    H236949   8.310   2.409  16.667 -1.8473  1.1768  1.8378
 4252TIP3   OH236950   3.509   7.953  15.781  0.4642  0.3924  0.2582
 4252TIP3    H136951   3.524   7.863  15.751 -0.6244  0.3811 -0.2992
 4252TIP3    H236952   3.479   8.000  15.703  0.8269  1.1975  0.5857
 4253TIP3   OH236953   3.250   7.108  16.672  0.3400 -0.2797  0.1540
 4253TIP3    H136954   3.231   7.100  16.578 -1.9850 -0.5650  0.5823
 4253TIP3    H236955   3.333   7.064  16.684 -0.8813 -3.2397 -1.2991
 4254TIP3   OH236956   3.969   1.799  16.678 -0.6221  0.3692 -0.4961
 4254TIP3    H136957   3.971   1.770  16.769 -2.5670  0.7794 -0.2843
 4254TIP3    H236958   3.931   1.887  16.681 -1.0522  0.2484 -1.7326
 4255TIP3   OH236959   5.543   6.017  16.203 -0.5033 -0.0382  0.3074
 4255TIP3    H136960   5.519   5.925  16.211 -1.1504  0.1465  0.5466
 4255TIP3    H236961   5.578   6.025  16.115  1.7411 -0.9893  1.0416
 4256TIP3   OH236962   8.359   6.434  17.343 -0.4916 -0.1735  0.5724
 4256TIP3    H136963   8.405   6.404  17.264  0.8408 -0.2798  1.3547
 4256TIP3    H236964   8.285   6.484  17.309 -0.6962 -1.2932 -0.7464
 4257TIP3   OH236965   1.535   4.698  16.446 -0.1227  0.2056 -0.3105
 4257TIP3    H136966   1.597   4.766  16.471  0.4574  0.0933 -1.4001
 4257TIP3    H236967   1.533   4.700  16.350 -2.5934  0.9042 -0.3306
 4258TIP3   OH236968   7.412   6.119  15.990 -0.1416  0.8060 -0.0033
 4258TIP3    H136969   7.446   6.134  16.078 -1.8939  2.8176  0.4009
 4258TIP3    H236970   7.369   6.034  15.995  0.6745  0.4205  0.7585
 4259TIP3   OH236971   1.291   4.198  16.683  0.0919  0.1240 -0.2172
 4259TIP3    H136972   1.325   4.224  16.598  0.2128 -0.8571 -0.4754
 4259TIP3    H236973   1.305   4.275  16.739  1.5649  0.1794 -0.6315
 4260TIP3   OH236974   5.022   2.152  16.630 -0.4546 -0.3694 -0.2506
 4260TIP3    H136975   5.074   2.228  16.656 -1.2971  0.0187  0.3458
 4260TIP3    H236976   4.945   2.155  16.687 -1.9703  0.0471 -2.2023
 4261TIP3   OH236977   8.288   6.712  17.517 -0.1109  0.0355  0.1335
 4261TIP3    H136978   8.195   6.690  17.523 -0.0115 -0.4830 -0.2658
 4261TIP3    H236979   8.308   6.755  17.601 -1.2513  2.2170 -0.6189
 4262TIP3   OH236980   5.528   1.980  17.199 -0.3568  0.3008  0.6852
 4262TIP3    H136981   5.550   1.984  17.106  1.3651 -2.0303  0.9112
 4262TIP3    H236982   5.432   1.977  17.201 -0.4756 -3.2809 -1.3685
 4263TIP3   OH236983   4.718   0.728  16.920  0.3582 -0.0574 -0.2284
 4263TIP3    H136984   4.687   0.771  16.840 -2.6474 -1.9417 -0.2727
 4263TIP3    H236985   4.797   0.681  16.892  1.6110  2.3613 -1.0335
 4264TIP3   OH236986   6.777   0.757  16.054 -0.2428  0.1997 -0.1712
 4264TIP3    H136987   6.698   0.708  16.029 -0.1808 -1.3686  2.3398
 4264TIP3    H236988   6.765   0.844  16.015 -2.7289 -0.3015 -0.6929
 4265TIP3   OH236989   1.837   3.557  16.844  0.2418 -0.4859  0.0244
 4265TIP3    H136990   1.772   3.487  16.840 -1.3363  0.8597  0.8459
 4265TIP3    H236991   1.881   3.545  16.928 -1.7800  0.8906  1.3832
 4266TIP3   OH236992   5.456   8.166  18.107  0.4899 -0.4111  1.0847
 4266TIP3    H136993   5.459   8.160  18.012 -0.2628 -0.4347  1.0532
 4266TIP3    H236994   5.366   8.194  18.126  1.1198  1.3664  1.7038
 4267TIP3   OH236995   0.101   3.154  16.451  0.3540  0.0792  0.3384
 4267TIP3    H136996   0.079   3.171  16.359  3.3486  0.4439 -0.4049
 4267TIP3    H236997   0.017   3.132  16.492 -1.2400  0.9547 -2.2195
 4268TIP3   OH236998   1.623   1.839  16.890  0.0856 -0.5919  0.3708
 4268TIP3    H136999   1.584   1.923  16.864 -1.9558 -1.3834  0.7066
 4268TIP3    H237000   1.571   1.774  16.844  1.2768 -1.7285  0.5798
 4269TIP3   OH237001   4.747   1.728  16.746 -0.1743  0.4107  0.6036
 4269TIP3    H137002   4.782   1.647  16.710 -2.0789 -0.5773  0.8491
 4269TIP3    H237003   4.755   1.791  16.674 -2.7265 -1.1865 -1.2676
 4270TIP3   OH237004   6.444   7.129  17.265  0.8984  0.2873 -0.5975
 4270TIP3    H137005   6.414   7.220  17.255  1.3576  0.4806 -0.2307
 4270TIP3    H237006   6.502   7.115  17.190 -0.1219 -0.1045 -1.3403
 4271TIP3   OH237007   7.717   3.421  17.005  0.4538  0.3603  0.4134
 4271TIP3    H137008   7.812   3.420  17.018  0.2951 -0.4584  1.7063
 4271TIP3    H237009   7.683   3.366  17.076 -1.0319  1.1672  0.3549
 4272TIP3   OH237010   7.495   1.113  16.688 -0.0559 -0.0357  0.0487
 4272TIP3    H137011   7.428   1.179  16.667 -1.0503 -1.2519 -0.7120
 4272TIP3    H237012   7.551   1.156  16.753 -0.8157  1.4735 -0.2524
 4273TIP3   OH237013   4.731   8.329  16.759  0.1037  0.0693 -0.4993
 4273TIP3    H137014   4.650   8.331  16.708 -0.4437 -1.2173  0.2878
 4273TIP3    H237015   4.800   8.340  16.693 -0.6794  0.6932 -1.2372
 4274TIP3   OH237016   1.039   6.289  17.112  0.0740 -0.0580  0.4169
 4274TIP3    H137017   0.995   6.352  17.169 -0.5073  0.9955 -1.1517
 4274TIP3    H237018   0.975   6.270  17.043  1.5378  0.3872 -1.1158
 4275TIP3   OH237019   1.981   8.129  17.920  0.3320  0.1004  0.9743
 4275TIP3    H137020   1.892   8.161  17.908  1.0158  1.4258 -1.0620
 4275TIP3    H237021   1.978   8.037  17.892 -0.6459 -0.2929  2.2834
 4276TIP3   OH237022   2.806   5.331  16.330 -0.2119  0.3576  0.4194
 4276TIP3    H137023   2.886   5.280  16.337  0.4579  1.1636 -0.8993
 4276TIP3    H237024   2.817   5.402  16.393  0.5879  1.0264 -0.4333
 4277TIP3   OH237025   4.418   3.771  17.486  0.4325 -0.0630  0.0209
 4277TIP3    H137026   4.511   3.795  17.484  0.1421  1.3148  1.2021
 4277TIP3    H237027   4.373   3.855  17.475 -0.6657 -0.5313  0.8516
 4278TIP3   OH237028   8.358   7.830  16.985 -0.6528 -0.0571 -0.1576
 4278TIP3    H137029   8.374   7.789  16.900  0.9784 -0.3858  0.2712
 4278TIP3    H237030   8.414   7.908  16.985 -1.2363  0.3790  0.3268
 4279TIP3   OH237031   1.164   3.549  16.533 -0.0977 -0.0020 -0.2783
 4279TIP3    H137032   1.084   3.600  16.517  0.6970  1.0532 -1.0092
 4279TIP3    H237033   1.182   3.507  16.449  0.2979  0.0369 -0.2117
 4280TIP3   OH237034   7.576   2.965  16.742 -0.0580  0.2145  0.3269
 4280TIP3    H137035   7.561   2.917  16.661 -0.0732 -0.4933  0.7372
 4280TIP3    H237036   7.489   2.986  16.774 -0.0452  0.7583  0.0061
 4281TIP3   OH237037   3.993   2.433  17.480  0.2418 -0.0921  0.3557
 4281TIP3    H137038   3.903   2.408  17.501 -0.4594  1.7542 -0.2786
 4281TIP3    H237039   4.029   2.464  17.563 -0.6117  1.6877  0.0987
 4282TIP3   OH237040   8.160   6.601  17.253 -0.3168 -0.6839 -0.1137
 4282TIP3    H137041   8.127   6.638  17.335  1.1315  1.9061 -0.5593
 4282TIP3    H237042   8.096   6.629  17.187  1.2244  2.1604 -0.5944
 4283TIP3   OH237043   2.913   4.418  17.312  0.1271  0.2496 -0.1536
 4283TIP3    H137044   2.999   4.389  17.282  0.8449 -0.1613  2.0688
 4283TIP3    H237045   2.928   4.507  17.345 -0.0470 -0.1582  1.0854
 4284TIP3   OH237046   5.733   7.688  15.719 -0.2253 -0.1459 -0.8580
 4284TIP3    H137047   5.779   7.700  15.801  0.3521 -1.2032 -1.0119
 4284TIP3    H237048   5.689   7.772  15.704 -1.3096 -0.3078  1.1070
 4285TIP3   OH237049   0.159   1.056  17.557 -0.4829  0.4289 -0.1927
 4285TIP3    H137050   0.104   0.980  17.575 -1.3551  1.3023  0.9652
 4285TIP3    H237051   0.217   1.027  17.487  0.0607 -1.6998  1.0534
 4286TIP3   OH237052   8.215   2.883  16.444  0.0332 -0.4053  0.0545
 4286TIP3    H137053   8.305   2.885  16.411 -0.2430  1.1751 -0.7329
 4286TIP3    H237054   8.220   2.834  16.526  1.7905  0.4522  0.5112
 4287TIP3   OH237055   6.788   5.615  16.908  0.0963 -0.5282  0.5388
 4287TIP3    H137056   6.740   5.684  16.863 -0.4967 -0.0049  1.9122
 4287TIP3    H237057   6.838   5.661  16.977  0.5472 -1.3459  0.7729
 4288TIP3   OH237058   7.573   3.868  17.835 -0.0695  0.0991  0.0856
 4288TIP3    H137059   7.573   3.957  17.800  1.1480  0.1665  0.1939
 4288TIP3    H237060   7.658   3.860  17.879 -0.2746 -1.0265  0.3062
 4289TIP3   OH237061   3.164   6.515  16.680 -0.3960 -0.6556 -0.2143
 4289TIP3    H137062   3.248   6.470  16.692 -0.8719 -1.1892  1.3885
 4289TIP3    H237063   3.185   6.608  16.688  0.2885 -0.6755 -1.5329
 4290TIP3   OH237064   3.216   7.448  17.041  0.0153 -0.8002  0.2161
 4290TIP3    H137065   3.306   7.480  17.042  0.2548 -1.4341 -0.1417
 4290TIP3    H237066   3.212   7.383  17.110 -0.9479  1.1707  2.1405
 4291TIP3   OH237067   6.508   5.723  16.965  0.4033 -0.3607  0.2746
 4291TIP3    H137068   6.491   5.630  16.977  2.0684 -0.7660 -0.1331
 4291TIP3    H237069   6.516   5.734  16.870 -3.3565  0.9622 -0.0610
 4292TIP3   OH237070   3.110   4.413  16.946 -0.0614 -0.6796  0.2120
 4292TIP3    H137071   3.189   4.363  16.967  0.3096  0.0772  0.6479
 4292TIP3    H237072   3.038   4.351  16.960  0.4837 -1.5947 -0.8855
 4293TIP3   OH237073   2.419   2.118  16.512  0.1559 -0.3671  0.2784
 4293TIP3    H137074   2.419   2.099  16.606 -1.0841 -0.6081  0.2479
 4293TIP3    H237075   2.422   2.032  16.470 -3.7490 -0.5849  0.1410
 4294TIP3   OH237076   5.188   2.936  17.288 -0.4131 -0.4516  0.1671
 4294TIP3    H137077   5.272   2.981  17.278  0.4539 -1.7888  1.0701
 4294TIP3    H237078   5.178   2.924  17.382 -0.9067 -1.5489 -0.0058
 4295TIP3   OH237079   1.166   3.409  16.274 -0.3731  0.0005  0.1705
 4295TIP3    H137080   1.192   3.443  16.189 -0.9642 -1.1297 -0.4831
 4295TIP3    H237081   1.077   3.375  16.261 -1.0389  1.0601  1.5838
 4296TIP3   OH237082   1.929   0.826  17.405  0.3986 -0.2608 -0.6544
 4296TIP3    H137083   2.024   0.829  17.420  0.2685 -0.7792  0.3858
 4296TIP3    H237084   1.902   0.744  17.447 -0.8243  0.9138  0.9545
 4297TIP3   OH237085   0.949   3.285  16.147  0.4731 -0.0538  0.4641
 4297TIP3    H137086   0.888   3.355  16.123 -2.3847 -2.2123  0.9050
 4297TIP3    H237087   1.015   3.287  16.079 -0.0041  2.4252 -0.0468
 4298TIP3   OH237088   0.891   5.784  16.169  0.5855 -0.2824 -0.0373
 4298TIP3    H137089   0.848   5.820  16.092  2.0705 -2.5303 -2.0856
 4298TIP3    H237090   0.852   5.697  16.179  0.7473 -0.2069  1.5073
 4299TIP3   OH237091   5.975   5.801  17.210  0.7357  1.0616  0.3376
 4299TIP3    H137092   5.901   5.856  17.235 -1.3399 -2.3166  2.5322
 4299TIP3    H237093   5.973   5.800  17.114 -1.8135  1.4418  0.3180
 4300TIP3   OH237094   4.495   1.039  16.018 -0.4702 -0.2400  0.5576
 4300TIP3    H137095   4.498   1.130  16.048  1.1625 -0.6392  1.7205
 4300TIP3    H237096   4.448   0.993  16.087 -0.2588 -0.4954  0.5283
 4301TIP3   OH237097   3.272   5.906  17.714 -0.3783 -0.2055 -0.2406
 4301TIP3    H137098   3.186   5.873  17.741 -0.4918  0.5143  0.3089
 4301TIP3    H237099   3.253   5.963  17.639 -0.4707  0.4778  0.2911
 4302TIP3   OH237100   2.805   2.698  16.807  0.1389  0.5655 -0.0103
 4302TIP3    H137101   2.719   2.737  16.792  0.1740  0.0828 -1.6385
 4302TIP3    H237102   2.789   2.604  16.806  0.6301  0.4807  0.0785
 4303TIP3   OH237103   7.359   3.183  16.561 -0.4817  0.1374  0.2118
 4303TIP3    H137104   7.384   3.212  16.648  2.4095 -1.2421 -0.0115
 4303TIP3    H237105   7.353   3.263  16.509  0.5267  0.7972  1.0789
 4304TIP3   OH237106   2.216   1.596  15.963 -0.6469  0.0545  0.5275
 4304TIP3    H137107   2.161   1.520  15.946 -1.0139 -0.4099  3.2598
 4304TIP3    H237108   2.156   1.671  15.954 -0.9392 -0.1920  0.3817
 4305TIP3   OH237109   4.667   7.366  16.125  0.5049 -0.1196 -0.5618
 4305TIP3    H137110   4.686   7.298  16.190  0.9270  1.1216  0.6429
 4305TIP3    H237111   4.649   7.317  16.044  1.3852 -1.6358  0.1203
 4306TIP3   OH237112   5.265   0.593  17.896 -0.3627 -0.2388  0.0970
 4306TIP3    H137113   5.219   0.534  17.837 -1.2047 -2.0833  2.4738
 4306TIP3    H237114   5.343   0.620  17.847 -1.2491 -1.2697 -1.9999
 4307TIP3   OH237115   6.797   3.206  17.125  0.7219 -0.0985  0.7122
 4307TIP3    H137116   6.857   3.272  17.091 -0.7293  0.5581 -0.6604
 4307TIP3    H237117   6.791   3.226  17.219 -0.7041  2.6340  0.1413
 4308TIP3   OH237118   4.839   7.585  17.552 -0.6153 -0.3175 -0.3310
 4308TIP3    H137119   4.871   7.635  17.627  1.0863 -2.2461  0.2848
 4308TIP3    H237120   4.751   7.556  17.579 -0.5694  0.1411  0.3422
 4309TIP3   OH237121   6.334   2.825  17.503 -0.5471 -0.2473  0.1116
 4309TIP3    H137122   6.407   2.805  17.445 -1.1539  1.3123 -1.2661
 4309TIP3    H237123   6.312   2.916  17.484 -1.5000 -0.0247  2.0283
 4310TIP3   OH237124   7.107   6.635  15.607 -0.1601  0.0124 -0.2707
 4310TIP3    H137125   7.077   6.683  15.529  0.3256  0.2684 -0.3044
 4310TIP3    H237126   7.061   6.552  15.603 -0.3670  0.1416 -0.6751
 4311TIP3   OH237127   4.939   3.057  17.568  0.3998  0.1741 -0.2328
 4311TIP3    H137128   5.006   2.994  17.595 -0.1265 -1.2835 -2.1226
 4311TIP3    H237129   4.988   3.136  17.544  1.1489  0.1894  1.2254
 4312TIP3   OH237130   0.975   0.980  17.216 -0.2189  0.3529 -1.0053
 4312TIP3    H137131   0.967   0.890  17.247 -1.0084 -0.9776 -4.5732
 4312TIP3    H237132   0.914   1.030  17.270  0.2890 -1.1834  1.1095
 4313TIP3   OH237133   1.827   6.381  17.011  0.0236 -0.1721 -0.1268
 4313TIP3    H137134   1.874   6.428  16.943 -1.0050  0.6087 -0.3256
 4313TIP3    H237135   1.866   6.412  17.093 -0.9628  1.4611 -0.2213
 4314TIP3   OH237136   4.921   2.902  16.750  0.1330  0.1166 -0.3637
 4314TIP3    H137137   4.916   2.868  16.839 -0.2348  1.8369  0.3212
 4314TIP3    H237138   5.015   2.917  16.735  0.1603  0.2255 -0.0917
 4315TIP3   OH237139   5.708   2.975  16.979  0.7030  0.1834  0.0882
 4315TIP3    H137140   5.618   3.007  16.989  1.2384  2.7475 -2.3980
 4315TIP3    H237141   5.738   2.961  17.069 -1.6922  0.6327  1.0277
 4316TIP3   OH237142   5.053   3.382  16.733 -0.1613  0.1853  0.2532
 4316TIP3    H137143   5.148   3.397  16.730 -0.2183  0.7451  1.0147
 4316TIP3    H237144   5.033   3.374  16.826 -0.8237 -0.2372  0.0841
 4317TIP3   OH237145   1.936   5.021  17.047  0.4735 -0.1584 -0.1886
 4317TIP3    H137146   1.974   5.066  17.122  1.2710 -0.2412 -0.5275
 4317TIP3    H237147   1.967   5.070  16.971  0.6093 -0.7277 -0.5157
 4318TIP3   OH237148   5.441   8.196  17.842 -0.0239  0.3277 -0.0864
 4318TIP3    H137149   5.384   8.127  17.808  1.7055 -1.2305  0.0384
 4318TIP3    H237150   5.403   8.277  17.809 -1.8537 -0.6956 -0.6378
 4319TIP3   OH237151   4.863   5.711  17.182  0.2475  0.2258 -0.2954
 4319TIP3    H137152   4.939   5.713  17.240 -0.9390 -0.4536  1.3388
 4319TIP3    H237153   4.899   5.683  17.097  1.9413  0.8093  0.1892
 4320TIP3   OH237154   1.268   1.136  15.114  0.5975 -0.0742 -0.5215
 4320TIP3    H137155   1.234   1.087  15.040 -0.4253 -0.0417 -0.0956
 4320TIP3    H237156   1.218   1.103  15.189  1.1450  0.3644  0.0477
 4321TIP3   OH237157   2.528   4.457  17.267 -1.1963  0.4652  0.0613
 4321TIP3    H137158   2.471   4.514  17.318 -1.0775  0.1001  0.6080
 4321TIP3    H237159   2.596   4.515  17.233 -1.1959  0.6862  0.4404
 4322TIP3   OH237160   7.794   7.455  17.033  0.4718 -0.6558  0.2905
 4322TIP3    H137161   7.833   7.462  17.120 -0.9650  1.2392  0.8655
 4322TIP3    H237162   7.704   7.487  17.044  0.6109  0.8685 -2.1047
 4323TIP3   OH237163   7.515   1.620  17.301  0.6027  0.1794  0.1184
 4323TIP3    H137164   7.420   1.612  17.307  0.6784 -2.2545 -0.7056
 4323TIP3    H237165   7.530   1.686  17.234 -0.5161  0.1041 -0.2238
 4324TIP3   OH237166   1.788   7.382  17.968  0.0382  0.4514 -0.8476
 4324TIP3    H137167   1.731   7.339  17.904  0.6302  0.0980 -1.1429
 4324TIP3    H237168   1.763   7.474  17.965 -1.7103  0.0657  0.2654
 4325TIP3   OH237169   6.088   7.889  16.991 -0.2896  0.2094  0.1105
 4325TIP3    H137170   6.165   7.832  16.984 -1.0121 -0.7359 -0.2422
 4325TIP3    H237171   6.122   7.970  17.030  1.1022  0.2298 -1.0577
 4326TIP3   OH237172   5.635   0.893  17.503  0.3295 -0.6075  0.1340
 4326TIP3    H137173   5.665   0.981  17.524 -0.4211 -0.2149 -0.3886
 4326TIP3    H237174   5.541   0.895  17.519  0.1146 -0.9749 -0.9654
 4327TIP3   OH237175   6.514   1.585  17.053 -0.1264 -0.1036 -0.5447
 4327TIP3    H137176   6.590   1.559  17.106  0.5335  1.2599 -0.7868
 4327TIP3    H237177   6.530   1.676  17.031 -1.6990  0.1222 -0.8754
 4328TIP3   OH237178   7.305   2.970  17.168 -0.0204  0.0684 -0.3295
 4328TIP3    H137179   7.383   2.935  17.125 -0.7681 -0.9634 -0.9307
 4328TIP3    H237180   7.280   2.903  17.232 -0.1020  0.6358  0.2383
 4329TIP3   OH237181   6.778   0.714  16.336 -0.2628 -0.1573  0.6884
 4329TIP3    H137182   6.844   0.731  16.404 -1.0109  1.6632  1.0175
 4329TIP3    H237183   6.792   0.783  16.272 -1.3544 -0.2171  0.3720
 4330TIP3   OH237184   5.431   2.584  16.595  0.1669 -0.0211 -0.3423
 4330TIP3    H137185   5.455   2.676  16.593  0.6104 -0.1404 -1.1727
 4330TIP3    H237186   5.486   2.544  16.528  0.7191 -1.0728  0.7057
 4331TIP3   OH237187   4.462   1.933  17.052 -0.2692  1.1598 -0.3781
 4331TIP3    H137188   4.499   2.017  17.024  0.8690  0.6740 -0.3816
 4331TIP3    H237189   4.475   1.876  16.976 -2.6918  1.4351 -1.0698
 4332TIP3   OH237190   2.727   4.608  16.030  0.1808  0.2230 -0.5363
 4332TIP3    H137191   2.718   4.691  16.078  3.9032 -0.4304  1.6909
 4332TIP3    H237192   2.655   4.554  16.061 -0.2507  1.4411  0.6803
 4333TIP3   OH237193   3.399   4.689  16.119 -0.0655 -0.3210 -0.0602
 4333TIP3    H137194   3.486   4.725  16.102  0.3059 -0.9961  0.3505
 4333TIP3    H237195   3.383   4.628  16.047  0.1001 -0.7070  0.2246
 4334TIP3   OH237196   4.568   0.399  17.675  0.2316  0.2567 -0.3948
 4334TIP3    H137197   4.521   0.354  17.605 -0.4959  0.8966 -0.3310
 4334TIP3    H237198   4.648   0.348  17.687 -0.0640 -0.3812 -1.0660
 4335TIP3   OH237199   5.581   4.220  17.203  0.8201  0.5676 -0.4103
 4335TIP3    H137200   5.650   4.154  17.194  0.8848  0.5389  0.2487
 4335TIP3    H237201   5.591   4.253  17.292 -1.7692 -1.4289  0.7602
 4336TIP3   OH237202   0.075   6.817  16.998 -0.4290  0.1146  0.1278
 4336TIP3    H137203   0.150   6.766  16.967  0.2032 -1.4206  3.6159
 4336TIP3    H237204   0.002   6.755  16.995 -0.4871  0.1264  0.9202
 4337TIP3   OH237205   8.159   8.275  16.872 -0.3147 -0.4892  0.7354
 4337TIP3    H137206   8.181   8.196  16.821  0.5268 -1.6224  2.7548
 4337TIP3    H237207   8.242   8.301  16.912 -0.3334  2.1019 -0.6687
 4338TIP3   OH237208   7.421   6.722  15.831  0.2804  0.4842 -0.0580
 4338TIP3    H137209   7.502   6.688  15.792  1.3376  1.2286  1.3807
 4338TIP3    H237210   7.444   6.809  15.862 -0.8064  0.3625  1.1902
 4339TIP3   OH237211   0.573   8.163  16.946 -0.0338 -0.2349 -0.0880
 4339TIP3    H137212   0.579   8.125  16.859 -2.4674 -0.5979 -0.1554
 4339TIP3    H237213   0.614   8.249  16.937 -2.3130  0.7493 -2.2669
 4340TIP3   OH237214   3.250   8.288  16.005  0.2563  0.3940 -0.1366
 4340TIP3    H137215   3.220   8.216  15.950 -2.1073  0.5820  0.8093
 4340TIP3    H237216   3.249   8.253  16.094  0.6973  1.1170  0.1671
 4341TIP3   OH237217   4.421   8.027  15.697  0.2168 -0.5392 -0.0749
 4341TIP3    H137218   4.492   7.970  15.666  0.0892 -1.7499  1.6972
 4341TIP3    H237219   4.423   8.018  15.792 -1.6787  0.1943  0.0717
 4342TIP3   OH237220   7.035   2.549  17.522 -0.1994  0.3562  0.5062
 4342TIP3    H137221   7.013   2.456  17.512 -0.2062  0.3793  0.2981
 4342TIP3    H237222   7.014   2.587  17.437  0.9301  0.3236  0.2018
 4343TIP3   OH237223   1.366   7.319  17.150  0.1901 -0.1928  0.2746
 4343TIP3    H137224   1.390   7.402  17.192 -1.8998  1.0464 -0.8214
 4343TIP3    H237225   1.428   7.255  17.187  1.7889  1.7890  1.2615
 4344TIP3   OH237226   7.018   2.663  16.506  0.4245  0.4687 -0.1869
 4344TIP3    H137227   6.937   2.687  16.551  0.5711  0.1602  0.2556
 4344TIP3    H237228   7.087   2.703  16.560  0.5767  0.5332 -0.4297
 4345TIP3   OH237229   2.498   3.942  17.469 -0.3029 -0.7740  0.3259
 4345TIP3    H137230   2.534   3.974  17.552 -2.5791  0.0274  1.0656
 4345TIP3    H237231   2.500   4.018  17.411 -0.3067 -0.8765  0.1919
 4346TIP3   OH237232   5.290   7.966  16.886 -0.3642  0.0984 -0.4148
 4346TIP3    H137233   5.225   7.973  16.816 -1.9307 -1.2574  0.8235
 4346TIP3    H237234   5.278   8.046  16.937  0.8906  1.1703 -1.6986
 4347TIP3   OH237235   0.829   7.627  17.633 -0.6343 -0.1866 -0.0678
 4347TIP3    H137236   0.762   7.563  17.660  1.3956 -1.6320  1.8770
 4347TIP3    H237237   0.899   7.617  17.697  0.8943  2.2512 -1.2190
 4348TIP3   OH237238   4.148   4.155  16.445  0.5011  0.2709 -0.2312
 4348TIP3    H137239   4.146   4.066  16.479  0.6936  0.6479  0.7821
 4348TIP3    H237240   4.117   4.147  16.355 -0.4652 -0.6879  0.1664
 4349TIP3   OH237241   5.791   7.930  16.388  0.5013  0.1680  0.5439
 4349TIP3    H137242   5.790   7.836  16.408 -1.0373  0.4064  1.7352
 4349TIP3    H237243   5.825   7.971  16.468  0.2246  0.6934  0.3941
 4350TIP3   OH237244   6.092   3.322  16.192 -0.6428  0.2774 -0.1281
 4350TIP3    H137245   6.062   3.316  16.283  1.1686 -1.9045  0.4359
 4350TIP3    H237246   6.066   3.238  16.153 -0.0677  0.5595 -1.1573
 4351TIP3   OH237247   1.172   3.455  17.102  0.7879  0.2083  0.4903
 4351TIP3    H137248   1.205   3.413  17.023  3.0897  0.0073  1.4676
 4351TIP3    H237249   1.135   3.538  17.072 -0.6470 -0.9117 -1.0398
 4352TIP3   OH237250   4.805   1.833  17.011  0.3891  0.1559 -0.9627
 4352TIP3    H137251   4.769   1.775  16.944  0.4641  0.9036 -1.6648
 4352TIP3    H237252   4.780   1.920  16.983 -2.7090  0.3580  1.8397
 4353TIP3   OH237253   1.878   2.890  17.458 -0.5013 -0.1234  0.2448
 4353TIP3    H137254   1.946   2.944  17.499 -0.5080  0.3569 -0.3614
 4353TIP3    H237255   1.851   2.830  17.527  2.2801 -2.0283 -0.1841
 4354TIP3   OH237256   6.622   0.052  17.647 -0.3385 -0.5189 -0.6440
 4354TIP3    H137257   6.682   0.004  17.703  1.0972  0.1032 -1.5915
 4354TIP3    H237258   6.557   0.089  17.706  1.0808  0.0568  0.5989
 4355TIP3   OH237259   5.938   4.246  15.754  0.1498  0.0328  0.1215
 4355TIP3    H137260   5.859   4.287  15.790  0.9192  1.9484 -0.2698
 4355TIP3    H237261   5.908   4.202  15.675 -0.7413 -0.4082  0.6722
 4356TIP3   OH237262   5.914   3.550  16.651  0.2994 -0.4951 -0.1817
 4356TIP3    H137263   6.000   3.539  16.690  0.6565  0.0419 -0.7876
 4356TIP3    H237264   5.924   3.625  16.592 -0.3162 -1.0374 -0.9993
 4357TIP3   OH237265   4.067   6.090  17.177 -0.3132  0.0531  0.1129
 4357TIP3    H137266   4.154   6.076  17.215 -0.6032 -0.1329  0.7273
 4357TIP3    H237267   4.072   6.054  17.089  0.1685 -0.1447  0.2230
 4358TIP3   OH237268   8.288   7.073  17.561  0.2885  0.0263  0.5115
 4358TIP3    H137269   8.329   6.988  17.576  0.7484  0.2741  0.6771
 4358TIP3    H237270   8.355   7.124  17.515  0.1373  0.4086  0.7109
 4359TIP3   OH237271   1.141   4.023  16.003 -0.2007 -0.1443 -0.2605
 4359TIP3    H137272   1.125   4.011  15.910 -0.3870 -0.5620 -0.1802
 4359TIP3    H237273   1.184   3.942  16.031  1.9494  0.8696 -0.4275
 4360TIP3   OH237274   6.440   4.384  16.971 -0.3180  0.2356  0.1126
 4360TIP3    H137275   6.460   4.345  17.056  0.6061  0.0021 -0.2009
 4360TIP3    H237276   6.375   4.452  16.990  0.1232  0.4067  1.0533
 4361TIP3   OH237277   5.340   1.409  17.826  0.3889 -0.2769  0.2585
 4361TIP3    H137278   5.379   1.495  17.809  0.7676 -0.6272 -0.7358
 4361TIP3    H237279   5.264   1.405  17.767  1.4065 -1.3070 -1.0556
 4362TIP3   OH237280   3.188   7.741  17.634  0.2185  0.3408 -0.8759
 4362TIP3    H137281   3.270   7.750  17.586  0.1506 -0.0856 -1.0765
 4362TIP3    H237282   3.187   7.650  17.663  0.3102  0.6261  0.0322
 4363TIP3   OH237283   7.963   0.328  17.866  0.8450  0.4198 -0.5660
 4363TIP3    H137284   7.910   0.292  17.795 -0.7126 -0.0961  0.8163
 4363TIP3    H237285   7.963   0.422  17.850  2.3860  0.1895 -2.4514
 4364TIP3   OH237286   6.212   4.626  17.145 -0.4176 -0.2512  0.2808
 4364TIP3    H137287   6.199   4.574  17.224  1.4787  0.8014  1.3535
 4364TIP3    H237288   6.202   4.717  17.174  0.9232  0.1811 -0.5144
 4365TIP3   OH237289   3.978   0.890  17.255 -0.1077  0.3614 -0.3619
 4365TIP3    H137290   4.071   0.909  17.244  0.2302  0.2927  1.8103
 4365TIP3    H237291   3.960   0.820  17.192  0.6089  2.1414 -2.6949
 4366TIP3   OH237292   5.785   8.397  15.784 -0.4722  0.5528  0.2612
 4366TIP3    H137293   5.754   8.308  15.799  0.4787  0.2947  0.7625
 4366TIP3    H237294   5.708   8.444  15.750 -0.6386 -0.7870 -1.3605
 4367TIP3   OH237295   3.581   3.578  15.740 -0.4378 -0.0244 -0.2373
 4367TIP3    H137296   3.653   3.539  15.790 -0.1047  1.9166  0.9162
 4367TIP3    H237297   3.550   3.650  15.796 -0.2941  2.0435 -2.6704
 4368TIP3   OH237298   2.660   1.583  15.585 -0.4441 -0.7176 -0.2866
 4368TIP3    H137299   2.691   1.517  15.523 -2.1398 -2.5971  0.7687
 4368TIP3    H237300   2.568   1.597  15.562 -0.6352 -0.1918  0.7483
 4369TIP3   OH237301   1.627   0.237  17.468  0.3940 -0.0639 -0.4031
 4369TIP3    H137302   1.562   0.300  17.498  0.3718  0.3730 -1.3515
 4369TIP3    H237303   1.598   0.213  17.380  0.8824 -0.7401 -0.3871
 4370TIP3   OH237304   5.203   2.499  16.483 -0.0635 -0.2571 -0.5752
 4370TIP3    H137305   5.230   2.416  16.443  1.4581  0.4419 -1.1025
 4370TIP3    H237306   5.271   2.517  16.547 -0.7847  0.2309  0.0616
 4371TIP3   OH237307   0.255   1.708  15.612 -0.6164 -0.8047  0.3633
 4371TIP3    H137308   0.192   1.705  15.540  1.3692  1.9019 -1.7170
 4371TIP3    H237309   0.313   1.633  15.597 -0.8158 -0.8305 -0.2844
 4372TIP3   OH237310   3.057   3.185  16.344 -1.1092 -0.7210 -0.5683
 4372TIP3    H137311   3.017   3.179  16.431 -1.4267 -0.0883 -0.6591
 4372TIP3    H237312   3.143   3.226  16.360 -2.0050  1.3551 -0.7493
 4373TIP3   OH237313   5.550   2.146  15.850  0.1017 -0.8622  0.3286
 4373TIP3    H137314   5.461   2.123  15.823  0.7744 -0.9532 -1.9953
 4373TIP3    H237315   5.584   2.200  15.779  1.8200 -0.5694  1.3113
 4374TIP3   OH237316   2.791   4.051  16.493  0.2030 -0.3023  0.1579
 4374TIP3    H137317   2.853   3.978  16.497  1.1341  0.4894  0.3805
 4374TIP3    H237318   2.820   4.104  16.419 -0.8023 -0.4406 -0.3495
 4375TIP3   OH237319   3.121   3.706  16.100 -0.2380 -0.0457 -0.5801
 4375TIP3    H137320   3.036   3.732  16.136 -0.0713 -0.1470 -0.1105
 4375TIP3    H237321   3.142   3.775  16.037  0.6020  1.4885  1.2497
 4376TIP3   OH237322   3.182   3.430  16.670  0.3854 -0.3469 -0.3797
 4376TIP3    H137323   3.122   3.369  16.713  1.2430 -1.0312 -0.1280
 4376TIP3    H237324   3.238   3.375  16.615  1.6070  0.1176  0.3543
 4377TIP3   OH237325   0.918   6.557  16.236  0.2156 -0.6057 -0.0559
 4377TIP3    H137326   0.930   6.583  16.328 -0.9414 -0.3045  0.0202
 4377TIP3    H237327   0.932   6.638  16.187 -0.0683 -0.5716 -0.0785
 4378TIP3   OH237328   0.004   2.485  15.918 -0.3478  0.0779  0.1093
 4378TIP3    H137329  -0.088   2.507  15.904 -0.7413 -0.2821  1.8168
 4378TIP3    H237330   0.038   2.558  15.970  0.1881 -0.0449 -0.0652
 4379TIP3   OH237331   3.459   2.269  16.906  0.3051 -0.5904  0.2379
 4379TIP3    H137332   3.391   2.278  16.839  1.3759  0.5083 -0.7555
 4379TIP3    H237333   3.535   2.234  16.859  0.2002 -2.7028  1.5161
 4380TIP3   OH237334   3.190   0.942  16.892  0.1976  0.2480  0.1191
 4380TIP3    H137335   3.138   0.935  16.972 -1.7278 -1.3932 -1.1535
 4380TIP3    H237336   3.148   1.013  16.843  1.0453  0.9035  0.3276
 4381TIP3   OH237337   4.832   2.536  17.107  0.3550  0.1737 -0.5956
 4381TIP3    H137338   4.864   2.446  17.096 -0.7797 -0.4893  0.9657
 4381TIP3    H237339   4.882   2.570  17.181  0.7293  0.8052 -1.1376
 4382TIP3   OH237340   3.415   2.844  17.122  0.1705 -0.8643  0.4180
 4382TIP3    H137341   3.409   2.758  17.081 -2.9582 -0.7928  0.4775
 4382TIP3    H237342   3.434   2.904  17.050 -0.1706 -1.3275 -0.0640
 4383TIP3   OH237343   1.292   5.108  15.470  0.0323 -0.8598  0.6175
 4383TIP3    H137344   1.334   5.161  15.538 -0.5504  0.1844  0.1960
 4383TIP3    H237345   1.361   5.052  15.437  0.5021 -0.8530  1.5637
 4384TIP3   OH237346   6.430   6.702  16.249  0.0592 -0.5926  0.4420
 4384TIP3    H137347   6.456   6.728  16.161  0.5943 -0.3418  0.6747
 4384TIP3    H237348   6.443   6.607  16.250 -0.8947 -0.7487 -0.0593
 4385TIP3   OH237349   5.402   6.286  16.277 -0.2675 -0.0638  0.4862
 4385TIP3    H137350   5.456   6.207  16.271  0.7265  0.6396 -0.3295
 4385TIP3    H237351   5.315   6.254  16.298  0.2240 -1.3381  0.6824
 4386TIP3   OH237352   0.178   6.508  15.961  0.1194 -0.1498  0.2191
 4386TIP3    H137353   0.103   6.565  15.943 -1.0285 -1.9464 -0.9920
 4386TIP3    H237354   0.176   6.495  16.056  0.1151  1.3981  0.4494
 4387TIP3   OH237355   3.097   1.808  17.648  0.2082  0.5270 -0.0677
 4387TIP3    H137356   3.166   1.748  17.621 -0.2361  1.1398 -2.8702
 4387TIP3    H237357   3.017   1.756  17.645 -0.0294  0.9384 -1.4181
 4388TIP3   OH237358   0.229   5.920  16.335 -0.2394 -0.2284  0.1664
 4388TIP3    H137359   0.256   5.837  16.295  0.3915  0.4091 -0.7660
 4388TIP3    H237360   0.138   5.905  16.360 -0.5342 -0.8016 -1.1301
 4389TIP3   OH237361   7.435   5.120  17.250 -0.4390 -0.3253  0.0655
 4389TIP3    H137362   7.499   5.185  17.277  1.6754 -2.1456 -0.2687
 4389TIP3    H237363   7.482   5.064  17.188 -2.1950 -2.0394  0.1861
 4390TIP3   OH237364   1.676   2.490  17.125 -0.3939  0.7379  0.1028
 4390TIP3    H137365   1.612   2.449  17.067  0.3808  0.3203 -0.4511
 4390TIP3    H237366   1.703   2.569  17.079  1.8908 -0.7117 -1.1849
 4391TIP3   OH237367   5.295   4.568  16.411  0.0489 -0.1563 -0.2752
 4391TIP3    H137368   5.201   4.551  16.410  0.0008 -0.3590  2.0427
 4391TIP3    H237369   5.328   4.528  16.330 -1.7401 -0.6884 -0.7783
 4392TIP3   OH237370   1.073   5.856  17.145 -0.6747 -0.8044 -0.5330
 4392TIP3    H137371   1.036   5.770  17.124  1.0464 -1.4756 -0.9860
 4392TIP3    H237372   1.168   5.843  17.139 -0.3132  0.6205  1.4225
 4393TIP3   OH237373   3.846   5.517  17.706 -0.4374 -0.2479  0.0718
 4393TIP3    H137374   3.777   5.480  17.651 -0.4628  2.0464 -1.5338
 4393TIP3    H237375   3.810   5.599  17.740  1.0242  0.3535  0.2713
 4394TIP3   OH237376   4.926   7.551  15.764  0.0291 -0.4153 -0.1707
 4394TIP3    H137377   4.910   7.460  15.743  0.2745 -0.4203 -0.3485
 4394TIP3    H237378   5.019   7.555  15.786  0.2654 -0.0252 -1.1827
 4395TIP3   OH237379   1.154   0.731  16.964  0.4741 -0.4459  0.1440
 4395TIP3    H137380   1.127   0.669  17.032  0.8764 -0.7552  0.0208
 4395TIP3    H237381   1.248   0.739  16.974  0.6889 -1.2949 -1.0397
 4396TIP3   OH237382   3.782   4.676  17.074  0.3760  0.0721  0.1691
 4396TIP3    H137383   3.803   4.592  17.032  1.3197 -0.4544  1.6094
 4396TIP3    H237384   3.712   4.655  17.136 -0.4777  0.6885 -0.5639
 4397TIP3   OH237385   3.723   5.658  17.244  0.7736 -0.4120  0.4098
 4397TIP3    H137386   3.742   5.631  17.154  1.5307  0.6325  0.2379
 4397TIP3    H237387   3.644   5.711  17.238  1.1292  0.1147  0.2640
 4398TIP3   OH237388   1.402   8.105  17.710  0.8841  0.3836  0.1412
 4398TIP3    H137389   1.322   8.154  17.730  0.6857  0.7657 -1.4428
 4398TIP3    H237390   1.473   8.166  17.727  0.8389  0.1751  1.1611
 4399TIP3   OH237391   3.069   3.401  15.763  0.2768  0.2519  0.1338
 4399TIP3    H137392   3.099   3.312  15.744  2.2697  0.9422 -0.1939
 4399TIP3    H237393   2.995   3.415  15.704  0.1654 -1.0494 -0.0610
 4400TIP3   OH237394   7.734   6.656  15.797  0.0667  0.4553 -0.1842
 4400TIP3    H137395   7.784   6.713  15.855  1.0172 -1.1636  0.6883
 4400TIP3    H237396   7.799   6.616  15.740 -0.6251  0.5448 -1.0666
 4401TIP3   OH237397   1.484   4.558  17.231  0.1033 -0.1510 -0.3583
 4401TIP3    H137398   1.465   4.647  17.262 -0.6707  0.0537 -1.3522
 4401TIP3    H237399   1.519   4.571  17.143  0.9717 -0.7864 -0.1119
 4402TIP3   OH237400   6.082   1.030  18.059 -0.1236  0.3331 -0.0753
 4402TIP3    H137401   6.147   1.011  17.992  0.2028 -0.6660  0.5003
 4402TIP3    H237402   6.072   0.947  18.107 -2.2615  0.2856 -0.5163
 4403TIP3   OH237403   3.500   8.005  16.458  0.2099  0.4375 -0.0019
 4403TIP3    H137404   3.435   7.972  16.396  0.1173  0.6943 -0.0427
 4403TIP3    H237405   3.574   8.033  16.404  1.2664 -1.8201  0.1559
 4404TIP3   OH237406   5.339   0.445  16.752  0.1324  0.1431  0.2954
 4404TIP3    H137407   5.264   0.464  16.808  0.5550  1.4046  0.4828
 4404TIP3    H237408   5.333   0.510  16.682 -1.1769 -2.2490 -1.9805
 4405TIP3   OH237409   2.013   1.321  17.144  0.6834  0.3864 -1.1997
 4405TIP3    H137410   2.038   1.248  17.089  0.3335 -0.1594 -0.6530
 4405TIP3    H237411   1.979   1.280  17.224  2.6957  1.1506  0.1371
 4406TIP3   OH237412   1.006   4.865  16.179 -0.4920  0.4405 -0.2262
 4406TIP3    H137413   1.039   4.935  16.124 -0.7097 -0.6304 -1.7962
 4406TIP3    H237414   0.986   4.907  16.263  1.5831  1.7643 -0.3233
 4407TIP3   OH237415   4.150   1.937  17.235  0.0144 -0.7683  0.3363
 4407TIP3    H137416   4.212   1.913  17.304  1.3994 -0.7291 -0.8334
 4407TIP3    H237417   4.115   1.854  17.203 -0.5100 -0.7944  0.9508
 4408TIP3   OH237418   5.674   7.324  15.908 -0.1624  0.0272 -0.5009
 4408TIP3    H137419   5.681   7.240  15.954 -1.9898 -0.1459 -0.4543
 4408TIP3    H237420   5.705   7.389  15.970 -1.2136 -0.3652  0.4668
 4409TIP3   OH237421   8.148   3.991  16.688  0.3002 -0.0140 -0.5137
 4409TIP3    H137422   8.235   3.994  16.727 -0.3067 -1.2226  1.0228
 4409TIP3    H237423   8.092   4.038  16.750 -0.3505 -0.2297 -0.9282
 4410TIP3   OH237424   1.683   3.838  16.349 -0.1838 -0.5760  0.1120
 4410TIP3    H137425   1.646   3.779  16.414 -0.1532 -1.2961 -0.5131
 4410TIP3    H237426   1.690   3.785  16.269  0.8241 -0.0449 -0.1781
 4411TIP3   OH237427   7.035   5.178  16.441 -0.2990  0.4318  0.1420
 4411TIP3    H137428   7.002   5.196  16.353  1.6486  0.6369 -0.5887
 4411TIP3    H237429   7.055   5.265  16.477  2.6877  0.2399 -0.8012
 4412TIP3   OH237430   5.774   1.487  15.985 -0.5204  0.1365 -0.4855
 4412TIP3    H137431   5.790   1.397  16.012  1.8146  0.2639 -1.1884
 4412TIP3    H237432   5.680   1.499  15.996 -0.7512 -2.0507  0.5753
 4413TIP3   OH237433   3.466   0.298  15.493  0.0786  0.0384 -0.2524
 4413TIP3    H137434   3.561   0.303  15.497  0.1162 -0.1467 -0.8240
 4413TIP3    H237435   3.436   0.384  15.522  0.4852  0.8552 -2.1296
 4414TIP3   OH237436   7.056   6.370  16.376  0.4111  0.0063  0.2191
 4414TIP3    H137437   7.083   6.363  16.467  0.8692  1.3502  0.2096
 4414TIP3    H237438   7.134   6.401  16.330 -0.4954  1.8574 -0.1711
 4415TIP3   OH237439   3.758   8.209  17.585  0.8153 -0.2606 -0.1075
 4415TIP3    H137440   3.696   8.136  17.584  0.3755  0.0871  0.9807
 4415TIP3    H237441   3.785   8.218  17.493 -0.1863 -0.8767 -0.4802
 4416TIP3   OH237442   5.011   4.220  17.678  0.0946 -0.1239  0.1224
 4416TIP3    H137443   4.993   4.172  17.597 -2.4348  1.4713 -0.3550
 4416TIP3    H237444   5.101   4.252  17.667  0.1319 -0.7136 -1.6260
 4417TIP3   OH237445   6.110   0.396  16.964 -0.5560  0.4026  0.1160
 4417TIP3    H137446   6.166   0.335  17.012  0.2904  1.0500 -0.0133
 4417TIP3    H237447   6.113   0.366  16.873  1.5476  1.7750 -0.3452
 4418TIP3   OH237448   0.019   0.208  17.743 -0.1360  0.2599  0.4709
 4418TIP3    H137449   0.113   0.195  17.752 -0.3264 -0.0014  2.9244
 4418TIP3    H237450  -0.007   0.151  17.671  1.6363  0.8580 -0.7096
 4419TIP3   OH237451   5.318   2.423  15.998  0.0732  0.5232  0.1040
 4419TIP3    H137452   5.305   2.328  15.996  0.5548  0.4654 -1.1204
 4419TIP3    H237453   5.233   2.459  15.972 -0.2921  0.4592  1.1715
 4420TIP3   OH237454   3.252   2.458  17.751 -0.2834 -0.9643 -0.4459
 4420TIP3    H137455   3.169   2.423  17.785 -0.8441 -1.8896 -2.5604
 4420TIP3    H237456   3.255   2.427  17.661  1.6120  0.4418 -0.9224
 4421TIP3   OH237457   4.107   5.668  16.029  0.2011 -0.4267 -0.2598
 4421TIP3    H137458   4.149   5.691  15.946 -0.1121  2.0899  0.2048
 4421TIP3    H237459   4.172   5.690  16.096  0.1754 -1.7614  0.2376
 4422TIP3   OH237460   5.214   1.317  16.095 -0.2435  0.2390  0.3071
 4422TIP3    H137461   5.126   1.354  16.085 -0.3750 -0.0217  0.4817
 4422TIP3    H237462   5.200   1.222  16.097 -0.0500  0.2208  1.1795
 4423TIP3   OH237463   7.476   1.803  17.620  0.3502 -0.7743  0.1822
 4423TIP3    H137464   7.469   1.739  17.691 -0.9325 -0.8604  0.0142
 4423TIP3    H237465   7.477   1.750  17.540  0.6059 -0.6331  0.0915
 4424TIP3   OH237466   2.785   4.963  16.736 -0.4598  0.4298 -0.2941
 4424TIP3    H137467   2.821   5.048  16.709 -0.8844  1.3467  1.8040
 4424TIP3    H237468   2.696   4.963  16.702 -0.3633  0.6931 -0.5487
 4425TIP3   OH237469   1.933   7.155  17.107  0.1375  0.2438  0.4046
 4425TIP3    H137470   1.888   7.087  17.157 -0.8859  0.2427 -0.4824
 4425TIP3    H237471   1.873   7.230  17.108 -0.8490 -0.3710 -2.3602
 4426TIP3   OH237472   6.070   7.971  17.729 -0.3945  0.3305  0.0182
 4426TIP3    H137473   6.025   7.991  17.647  0.4574  0.7347 -0.3627
 4426TIP3    H237474   6.096   8.056  17.763 -0.7794  0.1643  0.7388
 4427TIP3   OH237475   0.426   6.129  17.292 -0.2737  0.0714 -0.3731
 4427TIP3    H137476   0.517   6.152  17.311 -0.2167 -0.1756 -0.3419
 4427TIP3    H237477   0.385   6.212  17.267  0.1313  0.0726 -1.0681
 4428TIP3   OH237478   3.159   5.310  16.043  0.1206 -0.1801  0.0441
 4428TIP3    H137479   3.213   5.306  16.122 -0.5385  0.1615  0.5160
 4428TIP3    H237480   3.071   5.329  16.075 -0.0337  0.6157 -0.8159
 4429TIP3   OH237481   0.684   5.609  17.514  0.0141  0.8095 -0.8354
 4429TIP3    H137482   0.671   5.671  17.586 -2.4375  0.5574 -0.9920
 4429TIP3    H237483   0.653   5.655  17.436 -0.1364  0.0393 -1.2464
 4430TIP3   OH237484   1.127   6.320  16.451 -0.0734  0.1426  0.4895
 4430TIP3    H137485   1.047   6.347  16.496 -1.0861 -1.0974 -0.4853
 4430TIP3    H237486   1.178   6.400  16.441 -2.1197  1.3734 -0.6883
 4431TIP3   OH237487   0.121   6.767  17.881  0.4577 -0.5005 -0.4727
 4431TIP3    H137488   0.131   6.748  17.787 -0.1726  0.4439 -0.7506
 4431TIP3    H237489   0.185   6.711  17.924 -0.3655 -2.1529 -1.3272
 4432TIP3   OH237490   1.584   2.916  16.137  0.2231 -0.0403 -0.0106
 4432TIP3    H137491   1.619   2.880  16.219  0.3823  0.8397  0.3147
 4432TIP3    H237492   1.491   2.891  16.138  0.1341  0.3067  0.6274
 4433TIP3   OH237493   6.510   2.139  17.571  0.1712  0.5643  0.1838
 4433TIP3    H137494   6.461   2.111  17.648 -0.9153  2.2701  0.1577
 4433TIP3    H237495   6.570   2.206  17.603  0.9880  0.0194 -0.1687
 4434TIP3   OH237496   4.878   6.525  15.766 -0.0466 -0.1464 -0.3622
 4434TIP3    H137497   4.785   6.540  15.780 -0.1372 -1.1722  0.1692
 4434TIP3    H237498   4.894   6.436  15.798  0.9379 -0.3120 -1.2594
 4435TIP3   OH237499   2.073   6.193  18.229  0.4218 -0.0040  0.5626
 4435TIP3    H137500   2.095   6.120  18.287  1.7005 -0.4442 -0.4363
 4435TIP3    H237501   1.994   6.232  18.268 -0.9597 -2.5662  0.5383
 4436TIP3   OH237502   5.959   7.690  15.942 -0.2393 -0.4307 -0.1040
 4436TIP3    H137503   5.927   7.677  16.031 -0.1292 -0.4304 -0.0643
 4436TIP3    H237504   6.016   7.615  15.925  0.2236 -0.1178  0.0453
 4437TIP3   OH237505   5.403   6.812  16.207 -0.0419  0.4251 -0.9777
 4437TIP3    H137506   5.482   6.829  16.258 -0.9957  1.3651  0.2694
 4437TIP3    H237507   5.409   6.872  16.132  0.6748  0.0858 -1.1999
 4438TIP3   OH237508   1.705   6.221  16.487 -0.4630  0.2543  0.0060
 4438TIP3    H137509   1.763   6.262  16.424 -0.0356 -0.8597 -0.3462
 4438TIP3    H237510   1.662   6.294  16.532 -0.2894  1.0640 -1.1141
 4439TIP3   OH237511   0.762   0.736  17.488 -0.1763  0.0630  0.4126
 4439TIP3    H137512   0.856   0.733  17.473 -0.2509  0.5324 -0.1734
 4439TIP3    H237513   0.727   0.660  17.440  0.2363 -2.2149  3.4327
 4440TIP3   OH237514   2.688   6.585  16.511 -0.1717 -0.1858 -0.9319
 4440TIP3    H137515   2.669   6.568  16.419 -1.1734 -1.8624 -0.4516
 4440TIP3    H237516   2.764   6.531  16.531 -0.0675  0.0335 -0.7270
 4441TIP3   OH237517   6.853   0.981  16.917  0.2202 -0.3553 -0.0069
 4441TIP3    H137518   6.878   1.073  16.920  0.5177 -0.4601  1.4747
 4441TIP3    H237519   6.908   0.939  16.982  0.9747 -1.8249 -1.5254
 4442TIP3   OH237520   5.146   7.339  17.007 -0.1729  0.0594 -0.3246
 4442TIP3    H137521   5.132   7.335  16.912 -0.1424  0.8173 -0.3677
 4442TIP3    H237522   5.231   7.382  17.016  0.0500 -0.4441  0.0431
 4443TIP3   OH237523   7.821   3.836  18.018 -0.2013  0.2876  0.5750
 4443TIP3    H137524   7.864   3.880  17.944 -0.1467 -0.0946  0.3777
 4443TIP3    H237525   7.807   3.906  18.082  0.5565  0.4491  0.5747
 4444TIP3   OH237526   5.293   0.662  16.973  0.8741 -0.0855 -0.3479
 4444TIP3    H137527   5.329   0.693  17.057 -0.3579  0.3218  0.0457
 4444TIP3    H237528   5.241   0.586  16.996  1.5378 -0.7333 -0.9322
 4445TIP3   OH237529   4.423   1.874  17.303 -0.2945  0.5671 -0.2895
 4445TIP3    H137530   4.446   1.904  17.216  1.7499  0.4520  0.1513
 4445TIP3    H237531   4.442   1.780  17.302 -1.0125  0.4092  0.0508
 4446TIP3   OH237532   4.107   5.626  16.359 -0.3486 -0.1175  0.0005
 4446TIP3    H137533   4.151   5.672  16.288  0.4601  0.2245  0.7072
 4446TIP3    H237534   4.018   5.660  16.359 -0.1397  0.4368 -0.3578
 4447TIP3   OH237535   0.535   5.907  16.159  0.0373  0.2630  0.3233
 4447TIP3    H137536   0.607   5.905  16.096 -0.7993 -3.6577 -0.7859
 4447TIP3    H237537   0.457   5.921  16.105 -0.4855 -0.9121  0.7620
 4448TIP3   OH237538   1.190   4.457  17.440 -0.2750  0.0814 -0.0519
 4448TIP3    H137539   1.243   4.377  17.439 -0.4864 -0.0738 -1.3174
 4448TIP3    H237540   1.138   4.451  17.360 -0.7609  1.1796  0.1729
 4449TIP3   OH237541   7.426   1.160  16.224 -0.4650 -0.1099 -0.1218
 4449TIP3    H137542   7.391   1.189  16.139  2.5314  0.2359 -1.3701
 4449TIP3    H237543   7.471   1.237  16.258 -0.7674 -0.5516  1.3316
 4450TIP3   OH237544   2.642   6.889  16.862 -0.1573 -0.1363  0.9817
 4450TIP3    H137545   2.600   6.965  16.902 -0.6209  0.7651 -1.0996
 4450TIP3    H237546   2.571   6.844  16.815  0.7836  0.2406 -0.8601
 4451TIP3   OH237547   2.672   1.564  16.113  0.6959  0.0382 -0.1531
 4451TIP3    H137548   2.625   1.522  16.042 -0.3222  3.1442 -1.4874
 4451TIP3    H237549   2.763   1.568  16.084  0.5786 -0.1555 -0.5414
 4452TIP3   OH237550   1.231   4.184  17.206  0.0976  1.2701 -0.3247
 4452TIP3    H137551   1.168   4.256  17.214 -0.7110  0.5698 -0.2850
 4452TIP3    H237552   1.306   4.212  17.259  1.1171  3.4552 -2.6884
 4453TIP3   OH237553   1.508   2.427  17.591 -0.5353  0.1774 -0.2943
 4453TIP3    H137554   1.558   2.487  17.536 -0.9612  0.8774  0.0600
 4453TIP3    H237555   1.493   2.476  17.672 -0.5659 -0.5566  0.1498
 4454TIP3   OH237556   5.491   2.509  16.835  0.3771  0.0325 -0.0369
 4454TIP3    H137557   5.444   2.518  16.752  1.7711 -0.5233 -0.9354
 4454TIP3    H237558   5.492   2.597  16.872 -1.3799  0.0437  0.0337
 4455TIP3   OH237559   2.024   5.438  16.825 -0.0266  0.2081  1.0318
 4455TIP3    H137560   2.002   5.512  16.768 -0.0559 -1.7394 -1.6654
 4455TIP3    H237561   2.118   5.425  16.812 -0.1506 -0.6285  0.9150
 4456TIP3   OH237562   8.042   5.775  17.267  0.0919  0.0475 -0.0392
 4456TIP3    H137563   7.977   5.828  17.314  1.6867  1.7819  0.3414
 4456TIP3    H237564   8.012   5.776  17.176 -0.4842  0.7242  0.1463
 4457TIP3   OH237565   3.048   4.676  16.992  0.3853  0.0796  0.3182
 4457TIP3    H137566   2.954   4.683  16.975  0.2742  0.9111  1.1737
 4457TIP3    H237567   3.068   4.584  16.976  0.4423  0.6806 -4.7575
 4458TIP3   OH237568   7.946   7.211  17.945  0.2005  0.6082  0.0992
 4458TIP3    H137569   8.013   7.270  17.912 -0.2280  0.6064 -0.7991
 4458TIP3    H237570   7.892   7.266  18.003  1.1259  0.5384  1.0496
 4459TIP3   OH237571   4.069   0.097  15.639 -0.1615  0.0321  0.0744
 4459TIP3    H137572   4.088   0.057  15.554 -0.7637  0.8331 -0.4512
 4459TIP3    H237573   4.102   0.034  15.703  2.9942  0.6897 -0.7444
 4460TIP3   OH237574   5.048   4.492  16.258  0.1016 -0.5033  0.1482
 4460TIP3    H137575   4.971   4.518  16.308  1.0267  1.5061  0.6116
 4460TIP3    H237576   5.019   4.417  16.206 -2.0656  0.0290  0.5190
 4461TIP3   OH237577   8.211   1.753  17.681 -0.3070  0.4075 -0.2209
 4461TIP3    H137578   8.124   1.745  17.642 -0.0156 -0.3119 -0.7378
 4461TIP3    H237579   8.256   1.673  17.655  0.6025  0.8967 -0.1738
 4462TIP3   OH237580   3.145   5.226  17.189  0.2284 -0.2817  0.3149
 4462TIP3    H137581   3.205   5.272  17.248 -0.9573  0.6652  0.8282
 4462TIP3    H237582   3.059   5.241  17.227 -0.3215 -1.8205 -0.2695
 4463TIP3   OH237583   1.075   6.288  15.914 -0.0466  0.1159  0.0273
 4463TIP3    H137584   0.996   6.255  15.957 -0.1108 -0.3352 -0.4341
 4463TIP3    H237585   1.102   6.362  15.969 -0.7556  0.2422  0.2180
 4464TIP3   OH237586   7.770   2.356  16.431 -0.6199 -0.4542  0.3074
 4464TIP3    H137587   7.748   2.328  16.520 -0.6668 -0.7649  0.2003
 4464TIP3    H237588   7.848   2.304  16.408  0.4569  0.8844  0.8124
 4465TIP3   OH237589   5.869   3.252  17.118 -0.1640  0.1095 -0.3895
 4465TIP3    H137590   5.925   3.269  17.042  0.0002 -1.8517 -0.7756
 4465TIP3    H237591   5.781   3.274  17.087 -0.2000 -1.3652 -1.4598
 4466TIP3   OH237592   1.272   4.043  17.702  0.1842  0.3641  0.0493
 4466TIP3    H137593   1.204   3.981  17.676  0.7492 -0.4641  0.5244
 4466TIP3    H237594   1.353   3.993  17.702  0.3879  0.5813  2.2200
 4467TIP3   OH237595   5.668   2.583  17.179  0.7366 -0.4865  0.2406
 4467TIP3    H137596   5.653   2.500  17.134  0.5729 -0.5072  0.3301
 4467TIP3    H237597   5.761   2.601  17.167  1.0515 -1.2949  1.2536
 4468TIP3   OH237598   5.884   8.224  16.930  0.2541  0.2344 -0.0497
 4468TIP3    H137599   5.805   8.231  16.877  1.0541 -1.2516 -1.5426
 4468TIP3    H237600   5.852   8.199  17.017 -0.9162 -0.7363 -0.7196
 4469TIP3   OH237601   0.778   3.507  16.148 -0.4026 -0.3041 -0.0491
 4469TIP3    H137602   0.764   3.462  16.231  0.4653  0.8213  0.7470
 4469TIP3    H237603   0.745   3.595  16.163 -1.3555 -0.4233 -1.3212
 4470TIP3   OH237604   7.966   3.877  15.749 -0.0082  0.3957 -0.1021
 4470TIP3    H137605   7.991   3.964  15.719  0.6626 -0.7248 -3.1148
 4470TIP3    H237606   8.049   3.831  15.764 -0.3195 -0.2897 -0.4017
 4471TIP3   OH237607   0.028   3.288  17.921  0.4608  0.1561 -0.2884
 4471TIP3    H137608   0.043   3.370  17.969 -1.6093  0.2321  0.3122
 4471TIP3    H237609  -0.067   3.282  17.912  0.5041 -2.5280  0.2576
 4472TIP3   OH237610   4.725   3.757  17.495  0.1958  0.2467  0.4928
 4472TIP3    H137611   4.784   3.751  17.570 -0.4673  2.2681  1.2388
 4472TIP3    H237612   4.758   3.832  17.445  0.8494 -1.2726 -1.5032
 4473TIP3   OH237613   1.101   5.123  16.083 -0.0014  0.5577  0.2256
 4473TIP3    H137614   1.091   5.117  15.988  0.7145  1.9234  0.0451
 4473TIP3    H237615   1.174   5.063  16.103  0.2665  0.7520 -0.1703
 4474TIP3   OH237616   4.452   1.753  16.839  0.0216 -0.1531  0.3503
 4474TIP3    H137617   4.536   1.753  16.793 -0.3478  0.2788 -0.3511
 4474TIP3    H237618   4.387   1.750  16.769 -0.5521  0.0913  0.8646
 4475TIP3   OH237619   6.837   6.431  15.751 -0.2850 -0.0363 -0.1447
 4475TIP3    H137620   6.907   6.408  15.690 -1.7401 -2.2149 -1.0912
 4475TIP3    H237621   6.818   6.523  15.732  1.0106  0.0553 -1.1656
 4476TIP3   OH237622   0.142   3.415  16.815 -0.3519 -0.2076  0.4983
 4476TIP3    H137623   0.194   3.369  16.881 -0.1425  1.9619  1.9537
 4476TIP3    H237624   0.141   3.506  16.845 -0.3257  0.8730 -2.4700
 4477TIP3   OH237625   6.211   4.418  16.719  0.6788 -0.7433  0.4179
 4477TIP3    H137626   6.294   4.391  16.680  0.6797 -0.2623  0.0850
 4477TIP3    H237627   6.157   4.444  16.645 -0.1319 -1.9880  0.5348
 4478TIP3   OH237628   3.386   3.839  16.678 -0.1648 -0.8213  0.2836
 4478TIP3    H137629   3.446   3.784  16.627 -1.3173 -0.5727 -1.4313
 4478TIP3    H237630   3.307   3.786  16.688 -0.7917 -0.0011 -0.2094
 4479TIP3   OH237631   0.430   2.974  18.016  0.1122  0.0746 -0.4147
 4479TIP3    H137632   0.431   3.034  18.092 -0.5323 -1.1366  0.5903
 4479TIP3    H237633   0.359   3.008  17.961  1.3824  1.6975 -1.1387
 4480TIP3   OH237634   7.125   7.085  16.588  0.2102  0.7943 -0.6559
 4480TIP3    H137635   7.045   7.059  16.543 -0.3609  0.7211  0.3793
 4480TIP3    H237636   7.178   7.125  16.520  0.1008 -0.8533 -1.7893
 4481TIP3   OH237637   0.900   5.080  17.762  0.0309 -0.2678  0.1615
 4481TIP3    H137638   0.962   5.039  17.821 -0.4118  0.0795  0.8813
 4481TIP3    H237639   0.952   5.142  17.710  0.4875 -0.8592 -0.0999
 4482TIP3   OH237640   6.041   3.886  17.501  0.6572 -0.4056 -0.2626
 4482TIP3    H137641   6.119   3.941  17.516 -0.0594  0.7353 -0.5856
 4482TIP3    H237642   5.967   3.946  17.513 -0.1465 -1.2461 -0.9085
 4483TIP3   OH237643   0.333   5.874  16.643 -0.2732  0.1284 -0.1342
 4483TIP3    H137644   0.254   5.824  16.666 -0.3664 -0.7309 -2.1317
 4483TIP3    H237645   0.319   5.900  16.552  1.1745  1.1101 -0.0954
 4484TIP3   OH237646   1.497   0.804  17.214 -0.1181 -0.5728  0.3244
 4484TIP3    H137647   1.591   0.823  17.209 -0.7493  3.2190 -0.5195
 4484TIP3    H237648   1.473   0.778  17.125  0.0272 -0.9856  0.4044
 4485TIP3   OH237649   1.196   5.610  16.695 -0.4367  0.1547 -0.5336
 4485TIP3    H137650   1.119   5.586  16.643  1.3147  0.2258 -3.3953
 4485TIP3    H237651   1.233   5.686  16.649  2.2890 -0.9482 -0.3438
 4486TIP3   OH237652   2.595   7.626  17.320 -0.5032 -0.5424  0.3696
 4486TIP3    H137653   2.514   7.578  17.335 -1.3751  0.7338 -0.1223
 4486TIP3    H237654   2.654   7.596  17.390 -0.8719 -2.5657 -0.1261
 4487TIP3   OH237655   1.071   3.713  17.097 -0.1573  0.2919  0.6249
 4487TIP3    H137656   1.038   3.758  17.019 -2.0874  0.8858  1.6970
 4487TIP3    H237657   1.003   3.728  17.163  1.9482  0.8773  2.8188
 4488TIP3   OH237658   4.818   4.210  16.594  0.1126  0.4028  0.0583
 4488TIP3    H137659   4.894   4.244  16.642  0.0726  2.4921 -1.2072
 4488TIP3    H237660   4.808   4.120  16.625  0.6542  1.3126  3.1802
 4489TIP3   OH237661   7.188   3.840  17.447  0.4062 -0.6071 -0.1538
 4489TIP3    H137662   7.262   3.874  17.497  0.1749  1.6479 -1.2352
 4489TIP3    H237663   7.127   3.807  17.513  1.6310 -0.9813  0.8322
 4490TIP3   OH237664   0.956   1.513  17.493  0.2915 -0.3794  0.1111
 4490TIP3    H137665   0.937   1.604  17.517  2.2952  0.6627 -1.8147
 4490TIP3    H237666   0.870   1.473  17.480 -0.6405  1.4775  0.2335
 4491TIP3   OH237667   0.052   4.946  17.102  0.0567  0.0498  0.1730
 4491TIP3    H137668   0.075   5.014  17.166 -2.0433  1.1510 -0.1453
 4491TIP3    H237669   0.034   4.869  17.155  1.3125  0.0460  0.6389
 4492TIP3   OH237670   7.227   0.152  16.288  0.3058 -0.3116 -0.3538
 4492TIP3    H137671   7.315   0.188  16.282  0.6347 -0.9392  0.5960
 4492TIP3    H237672   7.173   0.213  16.238  0.9648  1.1195  0.6159
 4493TIP3   OH237673   3.336   0.523  16.253  0.2654  0.4480 -0.3393
 4493TIP3    H137674   3.420   0.543  16.212  0.4516  0.9986  0.2964
 4493TIP3    H237675   3.291   0.467  16.190  2.0708 -1.9121  0.3018
 4494TIP3   OH237676   6.510   6.829  15.993 -0.4569 -0.2196 -0.4803
 4494TIP3    H137677   6.477   6.904  16.043  0.2305 -0.0999 -0.2027
 4494TIP3    H237678   6.443   6.815  15.925 -2.5408 -1.7471  1.7279
 4495TIP3   OH237679   0.360   5.826  17.683 -0.2014  0.3288  0.0711
 4495TIP3    H137680   0.350   5.819  17.588 -0.6314 -2.6279  0.2318
 4495TIP3    H237681   0.284   5.877  17.712 -0.4215  0.6961 -1.0896
 4496TIP3   OH237682   5.495   0.023  16.941 -0.2087  0.2316  0.4997
 4496TIP3    H137683   5.470   0.093  16.880  1.5148  0.1923 -0.3086
 4496TIP3    H237684   5.549   0.067  17.007  2.4091 -0.5067 -0.9922
 4497TIP3   OH237685   7.382   6.910  17.327  0.4051 -0.6355  0.8416
 4497TIP3    H137686   7.382   6.855  17.405 -2.5000 -1.0908  0.6212
 4497TIP3    H237687   7.393   6.849  17.254  0.0064 -0.6087  0.7537
 4498TIP3   OH237688   7.118   8.017  17.434  0.0613 -0.1893 -0.2228
 4498TIP3    H137689   7.177   7.945  17.455  1.0720  0.8272  0.5811
 4498TIP3    H237690   7.096   8.004  17.342  0.2781 -1.4677 -0.1133
 4499TIP3   OH237691   4.075   5.928  15.809  0.7804  0.0416  0.4696
 4499TIP3    H137692   4.107   5.926  15.899 -0.2910 -2.1252  0.8765
 4499TIP3    H237693   4.126   5.861  15.764 -1.0874 -1.4375  0.4259
 4500TIP3   OH237694   4.207   4.965  16.556  0.0086  0.2475 -0.9413
 4500TIP3    H137695   4.143   5.022  16.513 -2.2489 -0.9535  0.6265
 4500TIP3    H237696   4.255   5.022  16.615 -1.1222  0.8492 -0.5688
 4501TIP3   OH237697   3.357   5.417  16.555 -0.8399  0.0900  0.6668
 4501TIP3    H137698   3.446   5.426  16.589 -0.1962  1.8660 -1.2656
 4501TIP3    H237699   3.329   5.507  16.537 -2.0363 -0.5782 -1.1185
 4502TIP3   OH237700   0.607   2.122  16.852 -0.9617 -0.6828 -0.3215
 4502TIP3    H137701   0.638   2.043  16.896 -2.8057 -1.1483  0.2364
 4502TIP3    H237702   0.623   2.105  16.759  0.1507 -1.0029 -0.0865
 4503TIP3   OH237703   7.657   1.603  16.937  0.4212 -0.0831 -0.0545
 4503TIP3    H137704   7.673   1.522  16.889 -0.0944  0.1425 -0.6189
 4503TIP3    H237705   7.565   1.624  16.919  0.7946  1.0919 -0.6448
 4504TIP3   OH237706   8.413   7.664  16.771  0.4263  0.1968  0.0331
 4504TIP3    H137707   8.352   7.661  16.698  0.6773 -0.4383 -0.1581
 4504TIP3    H237708   8.381   7.598  16.832 -0.1703  1.1850  0.8209
 4505TIP3   OH237709   5.467   6.372  16.025  0.4942  0.3373  0.1504
 4505TIP3    H137710   5.563   6.380  16.019  0.3287  1.4802 -1.5012
 4505TIP3    H237711   5.451   6.350  16.117  2.3753 -0.5228  0.3190
 4506TIP3   OH237712   0.589   5.956  16.703 -0.0097 -0.0657  0.3058
 4506TIP3    H137713   0.522   5.935  16.638  0.2552  0.2455 -0.0732
 4506TIP3    H237714   0.657   5.890  16.689 -0.9065 -1.3944  1.7486
 4507TIP3   OH237715   1.583   7.702  17.746 -1.0891 -0.3806 -0.2384
 4507TIP3    H137716   1.570   7.757  17.824 -0.6960 -0.3398 -0.1975
 4507TIP3    H237717   1.521   7.737  17.682 -1.7144 -0.6865  0.1918
 4508TIP3   OH237718   3.990   2.767  15.295 -0.0252 -0.0288  0.0565
 4508TIP3    H137719   4.056   2.758  15.364 -0.2098  2.8296  0.7412
 4508TIP3    H237720   4.010   2.696  15.234  2.3582 -0.5414  1.2870
 4509TIP3   OH237721   2.120   2.046  16.431 -0.2620  0.3538 -0.2106
 4509TIP3    H137722   2.178   2.114  16.465  1.3247 -1.1598  0.3264
 4509TIP3    H237723   2.180   1.981  16.392 -1.4513 -1.8217  1.3435
 4510TIP3   OH237724   5.727   7.339  16.876 -0.3026 -0.0005  0.0324
 4510TIP3    H137725   5.674   7.416  16.855  0.4170  0.2816 -0.8178
 4510TIP3    H237726   5.665   7.266  16.871 -0.7129  0.3712 -0.4977
 4511TIP3   OH237727   4.086   2.009  17.656 -0.1496  0.4563 -0.4055
 4511TIP3    H137728   4.042   1.961  17.586 -0.2187 -1.7089  1.0177
 4511TIP3    H237729   4.179   1.998  17.638 -0.1680 -0.0874 -0.2019
 4512TIP3   OH237730   7.664   6.015  15.892  0.6288 -0.2859 -0.3803
 4512TIP3    H137731   7.679   5.931  15.936  1.1165  0.2935  0.5680
 4512TIP3    H237732   7.572   6.035  15.911  0.7258 -0.2318  0.0309
 4513TIP3   OH237733   1.115   5.615  17.813  0.2369  0.3747  0.2546
 4513TIP3    H137734   1.019   5.607  17.818  0.2507  0.7312  1.1199
 4513TIP3    H237735   1.147   5.572  17.892  0.7913  0.3728  0.0308
 4514TIP3   OH237736   1.338   7.326  16.201  0.6302  0.0332  0.3244
 4514TIP3    H137737   1.421   7.361  16.169  1.1914 -0.9778  0.6314
 4514TIP3    H237738   1.287   7.308  16.122  0.8406  0.3157  0.1224
 4515TIP3   OH237739   0.548   6.453  17.427  0.2768  0.4132  0.0549
 4515TIP3    H137740   0.453   6.456  17.427  0.3008  2.4906  0.2697
 4515TIP3    H237741   0.571   6.424  17.516 -0.1162 -0.6954 -0.1814
 4516TIP3   OH237742   7.657   1.412  17.390 -0.5655 -0.5103  0.3053
 4516TIP3    H137743   7.621   1.493  17.353  0.5066 -0.8669 -1.6559
 4516TIP3    H237744   7.734   1.441  17.438  1.4543 -0.5003 -2.6745
 4517TIP3   OH237745   6.784   4.084  17.808  0.1843 -0.1069  0.2797
 4517TIP3    H137746   6.737   4.004  17.833  0.8232 -1.4424 -2.3998
 4517TIP3    H237747   6.874   4.055  17.794  0.4592  1.0998 -0.5941
 4518TIP3   OH237748   4.901   7.910  16.191  0.0841 -0.0515 -0.4945
 4518TIP3    H137749   4.839   7.837  16.184 -0.2209  0.0607  0.7101
 4518TIP3    H237750   4.864   7.979  16.135 -1.1275  0.1507  0.4978
 4519TIP3   OH237751   0.094   2.814  15.450 -0.0938 -0.8058  0.6276
 4519TIP3    H137752  -0.001   2.802  15.455  0.1400 -2.6492  1.7899
 4519TIP3    H237753   0.123   2.748  15.387  0.6383 -2.3285  2.4434
 4520TIP3   OH237754   2.729   4.644  17.197  0.1593  0.5347  0.0227
 4520TIP3    H137755   2.718   4.640  17.102  0.1170  0.9357  0.0060
 4520TIP3    H237756   2.793   4.576  17.216  1.0362  1.2156 -0.4373
 4521TIP3   OH237757   1.929   5.897  16.754  0.2056 -0.0050  0.3590
 4521TIP3    H137758   1.879   5.937  16.683  0.7677  0.5133  0.2392
 4521TIP3    H237759   1.973   5.971  16.797 -0.2487 -0.2924  1.3461
 4522TIP3   OH237760   3.635   4.577  16.842 -0.3797  0.4219 -0.1717
 4522TIP3    H137761   3.674   4.661  16.818 -1.2756  0.3954 -1.9869
 4522TIP3    H237762   3.645   4.524  16.763 -1.0220 -0.7100  0.4955
 4523TIP3   OH237763   2.313   6.334  16.133 -0.0519  0.3515 -0.1392
 4523TIP3    H137764   2.255   6.404  16.162 -0.7681  0.1855 -1.1200
 4523TIP3    H237765   2.353   6.367  16.052  1.5510  0.6232  0.7236
 4524TIP3   OH237766   3.903   5.315  16.157 -0.3985 -0.0966  0.5580
 4524TIP3    H137767   3.872   5.242  16.104 -1.1004  0.8646 -0.3877
 4524TIP3    H237768   3.888   5.392  16.103  0.7696  0.7146  1.3419
 4525TIP3   OH237769   1.772   1.081  16.402 -0.1267  0.0680 -0.1649
 4525TIP3    H137770   1.711   1.008  16.406 -0.4891  0.3411 -0.6001
 4525TIP3    H237771   1.756   1.129  16.484 -0.9540  0.4815 -0.5440
 4526TIP3   OH237772   7.199   1.831  17.326  0.5850  0.4554  0.3217
 4526TIP3    H137773   7.226   1.746  17.360  3.1563  0.7977 -0.6698
 4526TIP3    H237774   7.231   1.894  17.390  1.8829  0.8466 -0.6615
 4527TIP3   OH237775   5.658   1.791  16.734  0.8256 -0.1060  0.1563
 4527TIP3    H137776   5.744   1.751  16.720  0.8350  0.0569 -0.2724
 4527TIP3    H237777   5.650   1.856  16.664  1.2768  1.4144  1.4518
 4528TIP3   OH237778   0.813   2.017  16.111 -0.1215  0.0123 -0.1444
 4528TIP3    H137779   0.898   2.034  16.068 -0.8008  1.3217 -1.0608
 4528TIP3    H237780   0.771   1.951  16.056 -0.2743  0.4195 -0.5264
 4529TIP3   OH237781   4.903   7.065  17.679  0.9486  0.4547 -0.2419
 4529TIP3    H137782   4.917   7.158  17.664 -1.5855  1.1608  1.3065
 4529TIP3    H237783   4.815   7.048  17.645  0.4963 -0.8428  1.4300
 4530TIP3   OH237784   6.274   1.679  17.671 -0.5114  0.5199  0.5043
 4530TIP3    H137785   6.182   1.701  17.685 -0.6140  0.3929  0.0566
 4530TIP3    H237786   6.275   1.634  17.586  0.0603  1.1010  0.2011
 4531TIP3   OH237787   0.786   4.744  16.473 -0.1307  0.1002  0.2414
 4531TIP3    H137788   0.844   4.683  16.519 -0.3149 -1.1667 -1.1235
 4531TIP3    H237789   0.786   4.713  16.382 -0.8890  1.6579 -0.3259
 4532TIP3   OH237790   7.735   0.221  17.305 -1.0217 -0.1017 -0.1324
 4532TIP3    H137791   7.816   0.204  17.352 -0.3867  0.7748 -0.8647
 4532TIP3    H237792   7.714   0.139  17.261  1.7524  0.6458 -3.3073
 4533TIP3   OH237793   2.425   1.827  16.594 -0.1640  0.3163  0.6284
 4533TIP3    H137794   2.474   1.751  16.628 -0.9575 -0.5185 -0.0396
 4533TIP3    H237795   2.346   1.830  16.647  0.0958  0.9918  0.9811
 4534TIP3   OH237796   5.709   7.882  17.858 -0.6269  0.0130 -0.0550
 4534TIP3    H137797   5.719   7.813  17.923 -0.4913  0.3255  0.2627
 4534TIP3    H237798   5.668   7.839  17.783 -0.7287 -0.3643  0.2136
 4535TIP3   OH237799   7.685   2.393  16.132  0.7293 -0.8662  0.4984
 4535TIP3    H137800   7.742   2.355  16.198  0.6025 -2.8040 -0.4216
 4535TIP3    H237801   7.713   2.352  16.050  0.6898  1.2449 -0.6146
 4536TIP3   OH237802   2.281   1.319  15.660  0.0076  0.0948 -0.1451
 4536TIP3    H137803   2.229   1.246  15.625 -0.2231 -0.7932  1.8704
 4536TIP3    H237804   2.344   1.277  15.719  0.6277  1.4468  0.1927
 4537TIP3   OH237805   5.170   5.701  17.726  0.1764 -0.4196  0.0470
 4537TIP3    H137806   5.207   5.694  17.815  0.8892  0.0015 -0.2023
 4537TIP3    H237807   5.087   5.655  17.731  0.3278 -0.6321  0.8703
 4538TIP3   OH237808   5.610   5.139  17.543  0.1874 -0.2824 -0.5382
 4538TIP3    H137809   5.680   5.203  17.530  0.9259 -1.2678 -1.7147
 4538TIP3    H237810   5.565   5.136  17.459  0.2982 -1.4380 -0.5716
 4539TIP3   OH237811   2.682   2.526  15.528 -0.1050  0.0059 -0.1865
 4539TIP3    H137812   2.630   2.458  15.485 -0.9921  1.8402 -2.1968
 4539TIP3    H237813   2.750   2.549  15.465  0.1330  1.0457  0.4101
 4540TIP3   OH237814   7.893   0.463  16.800  0.2439 -0.0629  0.4242
 4540TIP3    H137815   7.964   0.404  16.824 -1.1521 -1.1635  2.1361
 4540TIP3    H237816   7.823   0.443  16.862 -1.4863  1.1383 -1.0144
 4541TIP3   OH237817   2.473   3.675  17.458  0.6224  0.2300 -0.2636
 4541TIP3    H137818   2.480   3.767  17.434  0.2816 -0.0086 -1.3281
 4541TIP3    H237819   2.493   3.628  17.378  1.1001 -0.6369  0.3488
 4542TIP3   OH237820   3.682   0.983  17.932  0.4698 -0.3709 -0.1769
 4542TIP3    H137821   3.601   1.023  17.899  1.4924  0.4969 -1.7257
 4542TIP3    H237822   3.666   0.889  17.925 -0.6516 -0.2316  0.2111
 4543TIP3   OH237823   5.073   1.454  17.022 -0.5404 -0.2012 -0.0597
 4543TIP3    H137824   4.997   1.428  16.969  1.0066 -2.3726 -1.3744
 4543TIP3    H237825   5.050   1.428  17.111 -1.4239 -0.6629 -0.4089
 4544TIP3   OH237826   0.966   7.509  18.008 -0.4495 -0.3682 -0.1787
 4544TIP3    H137827   0.989   7.438  18.068  0.4415 -0.5652 -0.7262
 4544TIP3    H237828   0.983   7.472  17.921 -0.8750  0.2060 -0.5067
 4545TIP3   OH237829   3.760   1.144  16.553  0.5819 -0.6359  0.5578
 4545TIP3    H137830   3.841   1.179  16.517  0.9623 -2.6539 -0.6917
 4545TIP3    H237831   3.752   1.187  16.639  2.1136  0.7711  0.0666
 4546TIP3   OH237832   8.430   3.916  15.541 -0.0184  0.8423 -0.0037
 4546TIP3    H137833   8.487   3.892  15.614  0.6174  1.2172 -0.3682
 4546TIP3    H237834   8.490   3.934  15.469 -0.6489  0.2349 -0.6984
 4547TIP3   OH237835   6.682   0.055  16.098 -0.7149  0.0513 -0.2793
 4547TIP3    H137836   6.601   0.086  16.058 -0.3166  0.1304 -1.0615
 4547TIP3    H237837   6.711  -0.017  16.041 -1.9478 -2.2689  1.8201
 4548TIP3   OH237838   5.922   0.805  16.757  0.0503 -0.0775 -0.1926
 4548TIP3    H137839   5.985   0.763  16.698  0.1674  1.9890 -1.6450
 4548TIP3    H237840   5.974   0.869  16.806 -0.4844 -0.1086  0.4260
 4549TIP3   OH237841   0.014   7.572  17.976  0.2493  0.2992 -0.2903
 4549TIP3    H137842   0.022   7.477  17.976  0.8298  0.3163  1.3428
 4549TIP3    H237843  -0.070   7.589  17.932  1.4956 -0.7554 -3.2806
 4550TIP3   OH237844   4.841   1.049  16.959  0.3461 -0.3708 -0.1755
 4550TIP3    H137845   4.855   0.954  16.956 -1.2166 -0.6346  0.2373
 4550TIP3    H237846   4.923   1.085  16.925  1.4033 -1.8187  0.7028
 4551TIP3   OH237847   4.780   5.056  15.894 -0.8963 -0.2170 -0.8703
 4551TIP3    H137848   4.704   5.080  15.841  0.5770 -1.7429 -3.9406
 4551TIP3    H237849   4.828   4.993  15.840  1.7418 -0.5303  1.5971
 4552TIP3   OH237850   8.067   0.053  16.426  0.0180 -0.1522 -0.6406
 4552TIP3    H137851   8.096   0.074  16.337  2.5636  1.3995  0.4247
 4552TIP3    H237852   7.972   0.043  16.419  0.2520 -1.3034 -3.7174
 4553TIP3   OH237853   5.856   4.985  17.646 -0.2046 -0.2172  0.1411
 4553TIP3    H137854   5.784   5.048  17.647 -1.3899 -1.4660  2.4362
 4553TIP3    H237855   5.813   4.899  17.641  1.0844 -0.9942  1.2996
 4554TIP3   OH237856   6.820   4.362  15.920 -0.0451  0.1849  0.3325
 4554TIP3    H137857   6.747   4.422  15.904 -0.1552  0.7805  2.6774
 4554TIP3    H237858   6.884   4.414  15.969  1.6795 -0.5310 -1.0268
 4555TIP3   OH237859   4.762   4.372  17.782  0.2321  0.0189  0.6213
 4555TIP3    H137860   4.725   4.314  17.849  0.7475 -0.4635  0.4983
 4555TIP3    H237861   4.835   4.322  17.745 -0.8693 -0.2818 -1.2577
 4556TIP3   OH237862   1.018   3.225  17.148  0.4402  0.2862  0.4553
 4556TIP3    H137863   1.063   3.298  17.105 -1.3356  0.8369 -0.5877
 4556TIP3    H237864   1.018   3.155  17.083 -2.7672  1.3116 -0.8833
 4557TIP3   OH237865   2.828   7.342  15.823  0.1840  0.2080 -0.8868
 4557TIP3    H137866   2.757   7.303  15.873 -1.7276  1.4088 -2.5069
 4557TIP3    H237867   2.824   7.435  15.845 -0.2618  0.6488 -2.6555
 4558TIP3   OH237868   6.098   7.549  17.517 -0.1435  0.2370 -0.0474
 4558TIP3    H137869   6.174   7.606  17.532 -0.7142  0.5267  1.9824
 4558TIP3    H237870   6.046   7.556  17.597 -0.1844 -3.2768  0.3541
 4559TIP3   OH237871   1.285   5.092  16.406 -0.5117  0.2439  0.1926
 4559TIP3    H137872   1.308   5.121  16.317 -2.3945  0.5074 -0.2619
 4559TIP3    H237873   1.199   5.131  16.421 -0.2832  0.0681  2.0910
 4560TIP3   OH237874   5.050   7.335  16.028 -0.1919 -0.1189 -0.2079
 4560TIP3    H137875   4.994   7.327  15.951 -0.0867  0.8701 -0.4063
 4560TIP3    H237876   5.102   7.255  16.028 -0.8939 -0.5822 -0.5947
 4561TIP3   OH237877   2.068   1.185  16.644 -0.0572 -0.0160  0.1882
 4561TIP3    H137878   2.058   1.193  16.738 -0.0083  1.1106  0.1030
 4561TIP3    H237879   2.122   1.259  16.618 -0.6588  0.0964 -0.8221
 4562TIP3   OH237880   0.061   1.447  16.715 -0.1013  0.3039  0.2774
 4562TIP3    H137881   0.027   1.358  16.716 -0.0764  0.2602 -1.1149
 4562TIP3    H237882  -0.013   1.500  16.685  0.1228  0.6489  0.3346
 4563TIP3   OH237883   2.964   7.522  16.093 -0.5313  0.1895  0.2345
 4563TIP3    H137884   2.921   7.544  16.010 -1.9349  0.3354  0.9751
 4563TIP3    H237885   3.057   7.537  16.076 -0.8963  1.2889 -0.9841
 4564TIP3   OH237886   4.161   6.162  15.667 -0.0785  0.4190 -0.0384
 4564TIP3    H137887   4.131   6.086  15.716  0.0221 -1.2423 -2.3924
 4564TIP3    H237888   4.255   6.148  15.655 -0.4280 -0.2917 -2.3591
 4565TIP3   OH237889   2.313   6.460  17.828 -0.3525 -0.1453  0.2475
 4565TIP3    H137890   2.284   6.391  17.887  1.0423  0.1629  1.3618
 4565TIP3    H237891   2.390   6.498  17.872  0.1504  0.7377 -1.3147
 4566TIP3   OH237892   0.356   4.926  16.441 -0.3234  0.5482  0.2557
 4566TIP3    H137893   0.331   4.914  16.533 -0.9764  0.2373  0.0452
 4566TIP3    H237894   0.430   4.867  16.428 -0.4780  0.3023  0.4790
 4567TIP3   OH237895   1.518   6.660  18.022  0.0644 -0.2698 -0.4056
 4567TIP3    H137896   1.439   6.626  18.063 -0.5665  1.6100  0.0644
 4567TIP3    H237897   1.492   6.745  17.987  1.9877  0.6465  0.2525
 4568TIP3   OH237898   7.220   1.606  17.734  0.1994 -0.9146  0.2457
 4568TIP3    H137899   7.198   1.516  17.757  1.6292 -0.6872  2.7527
 4568TIP3    H237900   7.309   1.619  17.766  2.0479 -0.0476 -4.4472
 4569TIP3   OH237901   8.111   4.670  17.109 -0.7508  0.1464  0.0973
 4569TIP3    H137902   8.169   4.741  17.082 -0.9941  0.9016  1.4277
 4569TIP3    H237903   8.039   4.672  17.047 -0.6708  0.9641  0.0247
 4570TIP3   OH237904   5.584   4.153  15.999 -0.0285 -0.1840  0.6816
 4570TIP3    H137905   5.563   4.063  16.025  0.2929 -0.5713 -0.3270
 4570TIP3    H237906   5.503   4.186  15.960  0.1008 -0.3523  0.2584
 4571TIP3   OH237907   8.147   1.350  16.547 -0.3820  0.3171 -0.2645
 4571TIP3    H137908   8.054   1.328  16.560 -0.1861  1.1076  3.9369
 4571TIP3    H237909   8.152   1.444  16.566  1.5161 -0.1758  2.1831
 4572TIP3   OH237910   2.352   2.057  17.167  0.2097  0.1399 -0.1236
 4572TIP3    H137911   2.442   2.085  17.182  0.2707 -0.0299 -0.1789
 4572TIP3    H237912   2.301   2.138  17.171  0.6469  0.5736 -2.4354
 4573TIP3   OH237913   3.187   4.956  17.160 -0.5443  0.1569 -0.7427
 4573TIP3    H137914   3.171   5.050  17.172  0.3895  0.2784 -0.3336
 4573TIP3    H237915   3.280   4.951  17.136 -0.8576 -0.5838 -1.8878
 4574TIP3   OH237916   1.797   3.891  17.792 -0.0394  0.1800 -0.0112
 4574TIP3    H137917   1.839   3.816  17.834  0.7559 -0.0847 -1.2257
 4574TIP3    H237918   1.811   3.878  17.699 -0.3548  1.5690 -0.2856
 4575TIP3   OH237919   7.827   5.931  17.367 -0.1188  0.4423  0.4009
 4575TIP3    H137920   7.806   6.007  17.421  0.7735  0.4797  0.7097
 4575TIP3    H237921   7.767   5.937  17.292  0.5737  1.9727 -0.0713
 4576TIP3   OH237922   2.532   6.004  17.659 -0.2636  0.2872  0.4028
 4576TIP3    H137923   2.556   6.094  17.637  2.4884 -0.2646  0.7454
 4576TIP3    H237924   2.466   6.012  17.728  0.3838  2.0699  0.8676
 4577TIP3   OH237925   8.112   6.494  16.681 -0.2223  0.2396 -0.1580
 4577TIP3    H137926   8.113   6.463  16.772 -1.2605 -0.2448 -0.2946
 4577TIP3    H237927   8.201   6.477  16.649 -0.3326 -1.2205  0.2386
 4578TIP3   OH237928   7.210   7.999  16.905 -0.2763  0.1947  0.4265
 4578TIP3    H137929   7.155   7.960  16.837  0.5388 -0.7243  0.2686
 4578TIP3    H237930   7.198   8.093  16.895 -0.8072  0.0410 -0.4541
 4579TIP3   OH237931   2.516   2.438  16.818  0.2396 -0.4207 -0.3862
 4579TIP3    H137932   2.462   2.484  16.754 -0.0875  0.7565  0.6983
 4579TIP3    H237933   2.478   2.350  16.822 -0.2467 -0.2587 -1.1980
 4580TIP3   OH237934   6.634   8.028  17.525  0.0244  0.0782 -0.1545
 4580TIP3    H137935   6.683   8.105  17.496  0.2758 -0.3491 -0.8703
 4580TIP3    H237936   6.700   7.960  17.538 -0.1746  0.0194  0.6353
 4581TIP3   OH237937   7.345   1.702  16.869 -0.4341 -0.5687  0.3685
 4581TIP3    H137938   7.353   1.621  16.819 -1.5858 -0.9252  0.7368
 4581TIP3    H237939   7.269   1.747  16.832  0.3525  0.5087 -0.0212
 4582TIP3   OH237940   3.333   5.557  15.527 -0.1547  0.3542  0.4933
 4582TIP3    H137941   3.377   5.597  15.602  0.5840  1.3992 -0.4565
 4582TIP3    H237942   3.315   5.631  15.469 -1.2603 -0.3528 -0.0941
 4583TIP3   OH237943   0.346   4.260  16.477 -0.3644  0.3058 -0.1238
 4583TIP3    H137944   0.277   4.313  16.438 -1.4721 -2.6384 -2.6304
 4583TIP3    H237945   0.306   4.222  16.556 -0.6144  0.8436  0.0092
 4584TIP3   OH237946   6.734   1.944  15.989 -0.2236 -0.0172  0.4755
 4584TIP3    H137947   6.776   2.030  15.986  1.3948 -0.7755  0.2388
 4584TIP3    H237948   6.744   1.910  15.900 -0.5105 -0.5971  0.6635
 4585TIP3   OH237949   1.741   1.362  17.141  0.3741 -0.8128  0.0289
 4585TIP3    H137950   1.830   1.352  17.108  0.5359 -1.1157  0.5561
 4585TIP3    H237951   1.736   1.454  17.168  0.2173 -0.5366 -0.8784
 4586TIP3   OH237952   7.062   3.134  17.839 -0.4030  0.0962  0.2897
 4586TIP3    H137953   7.064   3.224  17.808  0.1995 -0.9156 -2.8935
 4586TIP3    H237954   6.973   3.104  17.819  0.1622 -0.7444 -1.0508
 4587TIP3   OH237955   3.656   3.205  17.503 -0.0582  0.4548  0.2430
 4587TIP3    H137956   3.599   3.280  17.487 -0.2501  0.2304 -0.1376
 4587TIP3    H237957   3.597   3.132  17.520  0.0889  0.0898 -0.7428
 4588TIP3   OH237958   7.085   2.150  16.360 -0.3783  0.2031 -0.3070
 4588TIP3    H137959   7.096   2.235  16.403  0.4813 -0.5385  1.0147
 4588TIP3    H237960   7.127   2.161  16.275  0.2602  0.9273  0.0864
 4589TIP3   OH237961   0.155   7.495  16.969  0.3975 -0.2976  0.4861
 4589TIP3    H137962   0.078   7.446  16.998 -0.6711  0.5395 -0.7871
 4589TIP3    H237963   0.210   7.432  16.923  0.2255 -0.7961  0.9642
 4590TIP3   OH237964   7.104   7.376  16.721 -0.2001 -0.4291 -0.1424
 4590TIP3    H137965   7.050   7.432  16.665 -0.1565 -1.9324 -1.8156
 4590TIP3    H237966   7.074   7.287  16.700  0.9300 -1.1301  1.0807
 4591TIP3   OH237967   0.272   7.846  16.363 -0.1179 -0.5060 -0.1754
 4591TIP3    H137968   0.303   7.928  16.399 -1.8200  0.8333 -1.5924
 4591TIP3    H237969   0.258   7.790  16.439  0.3016  0.7797  0.8808
 4592TIP3   OH237970   1.581   1.489  16.913 -0.5346 -0.5303 -0.0889
 4592TIP3    H137971   1.563   1.402  16.947  1.4634 -1.4153 -1.1371
 4592TIP3    H237972   1.521   1.546  16.961 -1.1058 -2.3073  1.4379
 4593TIP3   OH237973   6.745   0.001  16.365 -0.7564  0.3050  0.0529
 4593TIP3    H137974   6.835  -0.030  16.375 -0.7671  0.4611  0.6712
 4593TIP3    H237975   6.741   0.036  16.275 -0.0617  0.7533  0.1919
 4594TIP3   OH237976   4.659   6.420  17.486 -0.0937 -0.5972 -0.0982
 4594TIP3    H137977   4.713   6.387  17.557  0.9493 -0.4556 -0.8078
 4594TIP3    H237978   4.711   6.406  17.407 -1.0297 -0.3186 -0.7874
 4595TIP3   OH237979   2.699   3.464  17.049 -0.3109 -0.1157 -0.5402
 4595TIP3    H137980   2.792   3.477  17.034 -0.1822 -0.2425  0.1053
 4595TIP3    H237981   2.691   3.372  17.074 -0.2935  0.3986  1.5581
 4596TIP3   OH237982   3.123   8.205  16.248  0.5855 -0.4327 -0.4359
 4596TIP3    H137983   3.105   8.130  16.304 -1.9762 -1.1668 -2.0971
 4596TIP3    H237984   3.067   8.275  16.282 -1.1360 -0.9382 -2.0532
 4597TIP3   OH237985   0.659   3.226  17.726  0.4664  0.3203 -0.1952
 4597TIP3    H137986   0.630   3.317  17.723  1.4634  0.6997  0.9042
 4597TIP3    H237987   0.699   3.210  17.641  2.3807  1.6755  0.3841
 4598TIP3   OH237988   7.986   3.416  16.956  0.1672 -0.3528 -0.1510
 4598TIP3    H137989   8.018   3.331  16.925  1.6247 -0.1284  0.6541
 4598TIP3    H237990   7.977   3.468  16.876 -0.2689 -1.1055 -0.6061
 4599TIP3   OH237991   7.243   2.007  17.085  0.5803  0.1686 -0.6251
 4599TIP3    H137992   7.198   1.981  17.004 -0.5702 -2.2353  0.6705
 4599TIP3    H237993   7.335   1.989  17.068  0.1381 -2.2574 -0.8165
 4600TIP3   OH237994   1.803   4.374  17.836 -0.1505 -0.3087  0.1791
 4600TIP3    H137995   1.869   4.443  17.835  0.2535 -0.5703 -3.1375
 4600TIP3    H237996   1.854   4.292  17.829 -0.6789 -0.4803 -3.0769
 4601TIP3   OH237997   6.041   1.410  17.270 -0.5337 -0.1898 -0.5183
 4601TIP3    H137998   6.014   1.485  17.323 -1.1392  0.4284 -1.6641
 4601TIP3    H237999   5.980   1.340  17.294  1.5077 -1.1512  2.3406
 4602TIP3   OH238000   6.021   5.983  17.610  0.4510 -0.2152  0.3883
 4602TIP3    H138001   6.043   5.964  17.518  0.0938  2.3667 -0.3152
 4602TIP3    H238002   6.104   5.977  17.656  0.4742 -2.6242  0.1761
 4603TIP3   OH238003   5.284   2.708  17.811  0.4957  0.2753  0.3240
 4603TIP3    H138004   5.292   2.622  17.770  0.5846  1.0210 -1.2926
 4603TIP3    H238005   5.282   2.690  17.905 -0.3321 -1.5421 -0.0102
 4604TIP3   OH238006   0.367   5.876  15.949 -0.1529 -0.2417 -0.3891
 4604TIP3    H138007   0.427   5.856  15.878 -0.1171  0.8364 -0.6908
 4604TIP3    H238008   0.286   5.831  15.925 -0.1930  0.2347 -1.2091
 4605TIP3   OH238009   6.014   3.791  15.724  0.3288 -0.4332 -0.4709
 4605TIP3    H138010   6.022   3.711  15.673  0.7905 -1.8442  1.6957
 4605TIP3    H238011   5.942   3.775  15.785  0.7749  0.5796  0.3640
 4606TIP3   OH238012   5.160   7.673  16.948  0.6234  0.4266 -0.8449
 4606TIP3    H138013   5.101   7.715  17.011  0.3108  0.2459 -1.0178
 4606TIP3    H238014   5.154   7.728  16.870  1.4381  0.9706 -0.5330
 4607TIP3   OH238015   5.990   2.784  16.921  0.1973 -0.3692 -0.4139
 4607TIP3    H138016   6.061   2.840  16.954  0.4174 -0.0216 -1.4118
 4607TIP3    H238017   5.983   2.713  16.984 -0.0620  0.7634  0.8690
 4608TIP3   OH238018   0.341   1.194  15.641 -0.3399 -0.2966  0.0924
 4608TIP3    H138019   0.410   1.183  15.706  0.7252  0.9843 -0.7719
 4608TIP3    H238020   0.338   1.110  15.595  0.7143 -0.3366  0.0747
 4609TIP3   OH238021   2.058   8.092  16.665 -0.0313  0.5280 -0.0376
 4609TIP3    H138022   2.018   8.017  16.709  0.4389  0.5759  0.4985
 4609TIP3    H238023   2.141   8.105  16.712 -0.0595  1.3132 -0.1895
 4610TIP3   OH238024   5.744   0.919  16.955 -0.9148 -0.3574 -0.2486
 4610TIP3    H138025   5.674   0.853  16.952 -0.2720 -1.0953  0.4532
 4610TIP3    H238026   5.801   0.896  16.882 -0.7461 -0.5272 -0.0666
 4611TIP3   OH238027   0.186   0.717  17.274  0.0820 -0.7207 -0.2858
 4611TIP3    H138028   0.096   0.727  17.243 -0.0180 -0.0467  0.1896
 4611TIP3    H238029   0.234   0.787  17.229 -0.0331  0.1719  0.9287
 4612TIP3   OH238030   4.164   2.219  15.827 -0.1381 -0.0958 -0.1297
 4612TIP3    H138031   4.071   2.228  15.804  0.0826  1.4458 -0.5780
 4612TIP3    H238032   4.184   2.127  15.810 -1.1881 -0.1038 -1.6158
 4613TIP3   OH238033   2.889   0.985  15.574  0.5437  0.0438 -0.2612
 4613TIP3    H138034   2.864   1.061  15.522 -0.3477  0.2239  0.4155
 4613TIP3    H238035   2.845   0.911  15.531 -1.4699  0.3902  1.0673
 4614TIP3   OH238036   7.938   4.071  16.879 -0.3866  0.0513  0.2038
 4614TIP3    H138037   7.917   4.164  16.889 -1.8241  0.0263 -1.8537
 4614TIP3    H238038   7.872   4.025  16.930  0.2719  0.1368  1.1513
 4615TIP3   OH238039   2.037   3.544  15.995 -0.5101 -0.1212  0.7261
 4615TIP3    H138040   2.070   3.586  15.916 -0.4214 -0.7773  0.4079
 4615TIP3    H238041   2.000   3.616  16.046  1.5256  0.6748  1.1728
 4616TIP3   OH238042   0.116   1.759  17.300  0.2834 -0.2251  0.2811
 4616TIP3    H138043   0.125   1.701  17.225  1.4116 -0.8018  0.8373
 4616TIP3    H238044   0.116   1.701  17.376  0.3213  0.4314  0.7981
 4617TIP3   OH238045   6.470   2.229  15.681 -0.0081  0.0355 -0.3206
 4617TIP3    H138046   6.503   2.165  15.618 -0.4533  0.6914 -1.2489
 4617TIP3    H238047   6.375   2.224  15.672 -0.0425  1.1218 -0.7245
 4618TIP3   OH238048   2.621   0.191  15.974 -0.2902  0.4063 -0.4349
 4618TIP3    H138049   2.576   0.110  15.950  2.7573 -1.6316  0.1672
 4618TIP3    H238050   2.617   0.244  15.894 -0.5014 -1.2645 -1.5999
 4619TIP3   OH238051   1.348   7.155  17.823 -0.3699 -0.4816  0.5488
 4619TIP3    H138052   1.375   7.106  17.900 -1.1346  1.1048  1.8950
 4619TIP3    H238053   1.389   7.241  17.833 -3.0091  0.8470  0.8994
 4620TIP3   OH238054   7.746   6.976  16.253 -0.2810 -0.2885 -0.0064
 4620TIP3    H138055   7.701   6.976  16.337 -0.6646  0.4836 -0.2031
 4620TIP3    H238056   7.702   6.909  16.202 -1.8956  1.1208 -0.5407
 4621TIP3   OH238057   4.014   6.919  15.899  0.3116  0.5196 -0.5165
 4621TIP3    H138058   4.082   6.857  15.926  0.8705 -0.2051 -3.2795
 4621TIP3    H238059   4.062   6.998  15.873 -0.1659  1.0385  0.1146
 4622TIP3   OH238060   1.786   4.544  16.552  0.3290 -0.2307 -0.2538
 4622TIP3    H138061   1.709   4.546  16.495 -0.9136  2.7666  1.2734
 4622TIP3    H238062   1.847   4.605  16.512 -0.7088  2.2030  1.6219
 4623TIP3   OH238063   7.157   5.071  16.099 -0.6024  0.0088 -0.1688
 4623TIP3    H138064   7.076   5.113  16.128 -1.3445 -0.3116 -1.6699
 4623TIP3    H238065   7.198   5.135  16.040  0.7987  0.5913  1.3698
 4624TIP3   OH238066   5.453   1.963  16.244  0.7053 -0.0309 -0.0145
 4624TIP3    H138067   5.435   2.056  16.230  1.0180  0.2319  1.2281
 4624TIP3    H238068   5.370   1.920  16.225  0.6959  0.4207 -1.1263
 4625TIP3   OH238069   4.058   7.841  15.967 -0.3293  0.1404  0.0491
 4625TIP3    H138070   4.000   7.880  15.902 -0.5255 -0.4328 -0.1250
 4625TIP3    H238071   4.003   7.781  16.016  0.0851 -0.3141 -0.0326
 4626TIP3   OH238072   1.393   2.470  15.175 -0.3404  0.1859  0.0032
 4626TIP3    H138073   1.454   2.435  15.112 -1.4612 -0.2988 -0.8473
 4626TIP3    H238074   1.339   2.395  15.201 -0.6424  0.6151  0.6473
 4627TIP3   OH238075   4.705   2.375  17.638  0.3825  0.4523 -0.6567
 4627TIP3    H138076   4.614   2.362  17.664  0.4419  2.4444  0.8245
 4627TIP3    H238077   4.711   2.468  17.618  2.3317  0.5903  0.3423
 4628TIP3   OH238078   0.298   1.955  15.967  0.3204  0.0761  0.5918
 4628TIP3    H138079   0.271   2.045  15.947  0.4022  0.1511  0.8198
 4628TIP3    H238080   0.382   1.965  16.012  0.0770 -0.0866  1.0861
 4629TIP3   OH238081   2.720   6.667  17.069 -0.4871  0.5195 -0.1350
 4629TIP3    H138082   2.645   6.686  17.011 -0.2528  0.3082 -0.5133
 4629TIP3    H238083   2.793   6.652  17.009 -0.6777 -1.7539  0.1153
 4630TIP3   OH238084   5.117   2.879  15.569 -0.4462  0.6822 -0.3246
 4630TIP3    H138085   5.128   2.800  15.622  0.1172  2.2901  2.1311
 4630TIP3    H238086   5.205   2.901  15.540 -0.7690 -0.2710 -2.1915
 4631TIP3   OH238087   0.540   7.358  16.774  0.3909  0.0226 -0.1385
 4631TIP3    H138088   0.476   7.287  16.772  0.8352 -0.3763 -0.2247
 4631TIP3    H238089   0.616   7.322  16.820  0.5912  0.4589 -0.1215
 4632TIP3   OH238090   4.664   0.846  17.391 -0.0182  0.2942 -0.1203
 4632TIP3    H138091   4.615   0.791  17.452 -0.2478  1.7823  1.1126
 4632TIP3    H238092   4.699   0.785  17.326 -1.7026 -1.0713  0.1831
 4633TIP3   OH238093   1.734   5.250  17.249 -0.8087  0.3318 -0.0013
 4633TIP3    H138094   1.721   5.286  17.161 -0.0768 -0.3764 -0.4110
 4633TIP3    H238095   1.721   5.325  17.308 -0.1968  1.0564 -0.7702
 4634TIP3   OH238096   6.412   6.059  17.682  0.2175  0.3332  0.1998
 4634TIP3    H138097   6.500   6.062  17.721  0.3428  1.6689 -0.1245
 4634TIP3    H238098   6.423   6.103  17.597 -0.6941  0.1982  0.0075
 4635TIP3   OH238099   4.395   7.525  16.130  0.8302  0.0098 -0.6183
 4635TIP3    H138100   4.370   7.600  16.185  0.7109  1.2800 -2.3452
 4635TIP3    H238101   4.483   7.502  16.161 -0.2456 -1.1286  1.9447
 4636TIP3   OH238102   7.831   3.985  17.526  0.4935 -0.2114 -0.2387
 4636TIP3    H138103   7.799   3.919  17.464  1.4494 -1.7062  0.7952
 4636TIP3    H238104   7.766   4.055  17.522 -0.9896 -1.5692 -0.7800
 4637TIP3   OH238105   6.451   5.428  17.437 -1.1471  0.1703 -0.1166
 4637TIP3    H138106   6.433   5.505  17.492  0.1243  0.0694  0.4732
 4637TIP3    H238107   6.382   5.366  17.459 -0.5682  0.0623  1.5334
 4638TIP3   OH238108   0.955   6.357  17.775 -0.4989  0.1583 -0.0005
 4638TIP3    H138109   0.977   6.265  17.788 -1.1644 -0.0065 -0.0271
 4638TIP3    H238110   0.859   6.359  17.769 -0.4829  0.8305 -0.1551
 4639TIP3   OH238111   2.525   2.639  17.561  0.1759  0.4576  0.2213
 4639TIP3    H138112   2.592   2.701  17.531 -0.6779  1.0817 -0.4363
 4639TIP3    H238113   2.476   2.616  17.482  0.5039 -1.1173  0.4384
 4640TIP3   OH238114   1.405   6.742  15.933 -0.0872 -0.0001  0.3609
 4640TIP3    H138115   1.449   6.826  15.921 -0.5117 -0.0809 -2.3910
 4640TIP3    H238116   1.473   6.683  15.964  0.2968  1.2363  1.9804
 4641TIP3   OH238117   0.817   6.742  17.596 -0.1260  0.0939  0.3553
 4641TIP3    H138118   0.790   6.678  17.531  0.9775 -0.9074  0.8582
 4641TIP3    H238119   0.828   6.824  17.547 -1.4397 -0.1053 -0.3077
 4642TIP3   OH238120   2.733   5.855  17.544 -0.0317 -0.4254  0.3487
 4642TIP3    H138121   2.800   5.874  17.610  0.6329  0.6861 -0.6200
 4642TIP3    H238122   2.661   5.915  17.565 -0.1816 -0.6716  0.5578
 4643TIP3   OH238123   6.461   4.342  16.557 -0.1243 -0.0650 -0.0823
 4643TIP3    H138124   6.502   4.395  16.625 -2.6019  1.4989  0.2990
 4643TIP3    H238125   6.509   4.363  16.477  0.6196  0.7259  0.5563
 4644TIP3   OH238126   6.641   4.150  16.004  0.0513 -0.3953 -0.5465
 4644TIP3    H138127   6.713   4.204  15.971  1.9601 -1.9852  0.7830
 4644TIP3    H238128   6.615   4.192  16.086 -2.6575  1.8346 -2.3443
 4645TIP3   OH238129   0.519   4.821  17.485 -0.2175  0.6732  0.2425
 4645TIP3    H138130   0.523   4.912  17.514 -1.6516  1.1830 -1.0062
 4645TIP3    H238131   0.488   4.826  17.394 -2.2852 -1.1127  0.7616
 4646TIP3   OH238132   2.354   6.013  17.061 -0.3742 -0.2119 -0.4562
 4646TIP3    H138133   2.266   6.031  17.094 -0.4435 -0.6279 -0.4206
 4646TIP3    H238134   2.350   5.925  17.026  0.3412 -0.7015  0.6220
 4647TIP3   OH238135   4.687   2.272  15.712 -0.2223  0.1546 -0.0574
 4647TIP3    H138136   4.616   2.217  15.680  0.0716 -0.7302  0.7883
 4647TIP3    H238137   4.758   2.211  15.732  1.1704  1.0815 -1.7973
 4648TIP3   OH238138   6.977   6.154  17.793 -0.3660  0.3481 -0.0707
 4648TIP3    H138139   7.047   6.092  17.812  0.7023  1.2425 -0.9812
 4648TIP3    H238140   6.948   6.132  17.705 -0.8965  0.3079  0.1093
 4649TIP3   OH238141   4.075   8.229  16.842  0.1411 -0.4371 -0.0790
 4649TIP3    H138142   4.159   8.190  16.817  1.4235  1.6961  0.6321
 4649TIP3    H238143   4.023   8.226  16.761  1.3687 -0.6390 -0.8916
 4650TIP3   OH238144   3.187   4.556  17.440  0.3717  0.0466  0.4196
 4650TIP3    H138145   3.270   4.549  17.393  1.0006 -0.9204  1.6015
 4650TIP3    H238146   3.151   4.640  17.413  0.4924 -0.6304 -2.0652
 4651TIP3   OH238147   3.713   6.318  15.888  0.7578  0.6367 -0.6594
 4651TIP3    H138148   3.668   6.402  15.878 -1.1826  0.0376  1.9765
 4651TIP3    H238149   3.768   6.311  15.811  0.3761  3.9501 -1.3764
 4652TIP3   OH238150   7.288   1.269  16.605  0.4589  0.3053  0.6825
 4652TIP3    H138151   7.224   1.212  16.649 -0.3019  0.9845  0.5005
 4652TIP3    H238152   7.264   1.266  16.513 -0.0395  1.4435  0.7573
 4653TIP3   OH238153   2.213   1.802  16.762  0.2734  0.6017  0.0289
 4653TIP3    H138154   2.165   1.874  16.803  0.9903  1.4160 -0.5329
 4653TIP3    H238155   2.247   1.751  16.836 -0.5132  0.6365  0.4301
 4654TIP3   OH238156   8.205   2.254  16.390 -0.1560  0.4862  0.2996
 4654TIP3    H138157   8.112   2.231  16.395 -0.4276  1.7889  2.4029
 4654TIP3    H238158   8.250   2.181  16.434 -0.2729  0.3189  0.1439
 4655TIP3   OH238159   2.204   2.880  16.513  0.8770 -0.0411  0.0274
 4655TIP3    H138160   2.136   2.943  16.490  1.0320 -0.2630 -1.0765
 4655TIP3    H238161   2.156   2.802  16.541  0.6726 -0.0476 -0.3311
 4656TIP3   OH238162   2.667   3.878  17.740  0.0463  0.1377 -0.5948
 4656TIP3    H138163   2.697   3.809  17.799  0.1603  0.1817 -0.6016
 4656TIP3    H238164   2.702   3.853  17.655  2.4204  1.6081 -0.1358
 4657TIP3   OH238165   4.781   3.418  16.171  0.0824  0.7655  0.1886
 4657TIP3    H138166   4.728   3.467  16.235  0.3630  1.7971 -0.3495
 4657TIP3    H238167   4.852   3.478  16.149  1.4513 -0.5819  0.8501
 4658TIP3   OH238168   6.023   1.011  16.484  0.0301  0.2742  0.1190
 4658TIP3    H138169   5.961   1.063  16.535 -0.7609 -1.3839  0.9205
 4658TIP3    H238170   6.043   1.065  16.408 -0.8762  1.6725  0.8375
 4659TIP3   OH238171   6.667   4.752  16.974  0.1374  0.2781 -0.5746
 4659TIP3    H138172   6.744   4.776  17.024  0.8955  0.6419 -1.8560
 4659TIP3    H238173   6.674   4.658  16.963  0.1006  0.2330 -0.2222
 4660TIP3   OH238174   3.055   8.078  15.862  0.0137  0.1011  0.6175
 4660TIP3    H138175   3.079   8.115  15.777 -0.8196  0.3542  0.4823
 4660TIP3    H238176   3.104   7.996  15.867 -0.9355 -0.5752 -0.6936
 4661TIP3   OH238177   0.017   1.662  15.483  0.3064  0.4939 -0.2296
 4661TIP3    H138178  -0.015   1.627  15.566  0.2735  1.4475  0.1715
 4661TIP3    H238179  -0.046   1.730  15.459  0.1805  0.0619 -1.1657
 4662TIP3   OH238180   6.666   8.360  16.777  0.4248  0.2880 -0.1893
 4662TIP3    H138181   6.681   8.318  16.692 -0.8145 -1.8161  0.5465
 4662TIP3    H238182   6.738   8.331  16.832  0.4142  0.4288 -0.0993
 4663TIP3   OH238183   3.992   0.085  17.342 -0.1295 -0.0464  0.2621
 4663TIP3    H138184   4.025   0.171  17.316 -1.9831  0.3743 -0.8616
 4663TIP3    H238185   4.014   0.028  17.268 -0.8188 -0.0301  0.0381
 4664TIP3   OH238186   4.364   3.640  15.749  0.2042  0.1280 -0.7711
 4664TIP3    H138187   4.305   3.568  15.774 -1.6047  2.0094  0.7168
 4664TIP3    H238188   4.430   3.598  15.694 -0.8526 -2.6377 -0.1191
 4665TIP3   OH238189   3.754   2.080  17.188  0.5178 -0.1670 -0.1601
 4665TIP3    H138190   3.800   2.164  17.180 -2.0896  1.2423 -2.3062
 4665TIP3    H238191   3.719   2.080  17.277 -1.0123  2.0282 -0.6741
 4666TIP3   OH238192   0.733   0.518  17.305 -0.1155  0.5920  0.4648
 4666TIP3    H138193   0.659   0.461  17.287  0.3600  0.5384 -1.6226
 4666TIP3    H238194   0.759   0.551  17.219  0.5590  2.7998  1.4430
 4667TIP3   OH238195   1.667   3.667  16.132 -0.5901 -0.0747  0.0113
 4667TIP3    H138196   1.575   3.676  16.104 -1.3258 -1.1835  1.9083
 4667TIP3    H238197   1.692   3.579  16.104  0.2549  0.5684 -1.3592
 4668TIP3   OH238198   3.818   2.376  17.170 -0.4662  0.3337  0.6418
 4668TIP3    H138199   3.807   2.355  17.078  0.8447 -1.5223  0.8556
 4668TIP3    H238200   3.862   2.461  17.170  0.2703 -0.0213 -0.4763
 4669TIP3   OH238201   2.080   3.617  17.513 -1.2006 -0.5090  0.0612
 4669TIP3    H138202   2.101   3.560  17.587 -0.6927  0.1746  0.4566
 4669TIP3    H238203   2.123   3.700  17.534  0.2581 -0.7583 -1.6977
 4670TIP3   OH238204   3.173   1.892  16.278  0.6533 -0.0934  0.0730
 4670TIP3    H138205   3.217   1.958  16.331 -1.3393  1.5436 -0.1516
 4670TIP3    H238206   3.243   1.834  16.248  2.0709 -0.0032  2.9256
 4671TIP3   OH238207   3.854   0.980  15.576  0.7861 -0.4096 -0.6045
 4671TIP3    H138208   3.888   1.019  15.496  2.1316  2.0718  1.0394
 4671TIP3    H238209   3.769   1.021  15.589  1.0133 -0.0360 -0.2661
 4672TIP3   OH238210   7.526   6.382  17.399 -0.4886 -0.5082  0.3923
 4672TIP3    H138211   7.576   6.440  17.342 -0.4893  0.6609  1.5284
 4672TIP3    H238212   7.448   6.358  17.348  0.3926 -0.9841 -0.7588
 4673TIP3   OH238213   4.737   7.356  16.901  0.5822  0.1183  0.1733
 4673TIP3    H138214   4.688   7.292  16.953  1.7525 -1.2036 -0.3004
 4673TIP3    H238215   4.800   7.393  16.962  1.0406 -0.4321  0.0366
 4674TIP3   OH238216   5.106   6.331  17.410  0.0702  0.0864  0.0692
 4674TIP3    H138217   5.083   6.360  17.499  0.4244 -0.6958  0.4263
 4674TIP3    H238218   5.200   6.348  17.403  0.0950 -0.0980 -0.0581
 4675TIP3   OH238219   2.138   7.488  17.545  0.1366 -0.2301 -0.1203
 4675TIP3    H138220   2.141   7.418  17.480 -3.0973 -0.8009  0.2156
 4675TIP3    H238221   2.217   7.473  17.598  1.1186 -1.7291 -1.8544
 4676TIP3   OH238222   3.879   2.534  16.095  0.5505  0.3688  0.6635
 4676TIP3    H138223   3.847   2.450  16.126  1.2097  0.2418  1.0268
 4676TIP3    H238224   3.880   2.526  16.000 -2.1955  1.0221  0.4924
 4677TIP3   OH238225   6.732   0.457  15.904 -0.3326 -0.7497 -0.0778
 4677TIP3    H138226   6.685   0.462  15.987 -0.1089  0.3382  0.0004
 4677TIP3    H238227   6.789   0.381  15.913 -0.9279 -1.1441  0.4269
 4678TIP3   OH238228   7.342   3.461  16.048 -0.4218 -0.0964  0.7854
 4678TIP3    H138229   7.367   3.550  16.074  0.6559 -0.1191 -0.0808
 4678TIP3    H238230   7.422   3.424  16.010 -0.8422 -1.4616  1.1861
 4679TIP3   OH238231   0.142   8.352  16.292  0.0314 -0.3815  0.1681
 4679TIP3    H138232   0.120   8.383  16.380  0.5273 -0.8418  0.4633
 4679TIP3    H238233   0.198   8.420  16.256 -1.0617  0.3270 -0.2143
 4680TIP3   OH238234   1.658   4.037  17.086 -0.2092  0.3562  0.0488
 4680TIP3    H138235   1.750   4.039  17.057  0.1818  0.9210  1.2488
 4680TIP3    H238236   1.628   3.949  17.064 -0.0277  0.8229 -2.2519
 4681TIP3   OH238237   2.926   3.185  16.587  0.8259  0.2381  0.0439
 4681TIP3    H138238   2.951   3.204  16.677  1.1285  0.4018 -0.0709
 4681TIP3    H238239   2.842   3.228  16.575 -0.2927 -1.5831  0.9033
 4682TIP3   OH238240   5.506   8.146  16.595  0.1735  0.1136  0.2060
 4682TIP3    H138241   5.441   8.206  16.633  0.2539  0.3675 -0.0509
 4682TIP3    H238242   5.469   8.123  16.510  0.8233  0.9537 -0.3218
 4683TIP3   OH238243   1.598   2.208  15.767  0.7794 -0.5766  0.4983
 4683TIP3    H138244   1.649   2.203  15.848 -0.0565  0.5215  1.1127
 4683TIP3    H238245   1.526   2.146  15.779  0.1627  0.2113  0.9783
 4684TIP3   OH238246   0.647   2.460  15.273  0.6953 -0.1645  0.4612
 4684TIP3    H138247   0.689   2.545  15.256  1.6381 -1.0909 -2.3726
 4684TIP3    H238248   0.720   2.397  15.271 -0.3885 -1.4507 -1.4127
 4685TIP3   OH238249   7.924   3.601  17.650  0.1037 -0.1053 -0.0286
 4685TIP3    H138250   7.918   3.533  17.718 -0.6156 -0.8246 -0.7792
 4685TIP3    H238251   7.847   3.656  17.665  0.8832  0.7763  0.8071
 4686TIP3   OH238252   5.928   7.086  16.955 -0.0464 -0.2636  0.0505
 4686TIP3    H138253   5.982   7.137  17.015  0.6558 -2.5235  1.4570
 4686TIP3    H238254   5.838   7.103  16.984 -0.1081  2.2928 -1.3213
 4687TIP3   OH238255   6.714   4.452  16.972 -0.1679  0.3810  0.0663
 4687TIP3    H138256   6.747   4.383  17.030  0.9428  0.1438 -0.8363
 4687TIP3    H238257   6.623   4.425  16.954 -0.1812 -0.1207  0.8013
 4688TIP3   OH238258   6.777   6.333  16.656  0.3793 -0.6220  0.0315
 4688TIP3    H138259   6.786   6.415  16.705 -0.8906 -0.8054  0.6175
 4688TIP3    H238260   6.685   6.309  16.667  0.8185 -2.3554  0.2263
 4689TIP3   OH238261   5.762   7.904  15.994 -0.7874 -0.2536  0.7546
 4689TIP3    H138262   5.790   7.995  15.995 -0.3131 -0.3991  0.5446
 4689TIP3    H238263   5.832   7.856  15.950 -2.0130 -0.4108 -1.1064
 4690TIP3   OH238264   7.851   2.795  16.943  0.4466  0.0555 -0.3354
 4690TIP3    H138265   7.905   2.787  17.022 -0.2363 -0.5539  0.0744
 4690TIP3    H238266   7.864   2.886  16.915  0.5004  0.3526  0.6139
 4691TIP3   OH238267   6.868   7.235  16.492  0.3839 -0.0759  0.5060
 4691TIP3    H138268   6.866   7.164  16.428 -2.5150  1.0537 -0.8076
 4691TIP3    H238269   6.823   7.201  16.569 -0.0721 -0.0100  0.2707
 4692TIP3   OH238270   4.050   6.214  17.715  0.4022 -0.1542  0.7349
 4692TIP3    H138271   4.086   6.297  17.748 -2.2003  0.6362  1.8177
 4692TIP3    H238272   4.039   6.229  17.621 -0.1774  0.8302  0.9397
 4693TIP3   OH238273   3.337   3.548  16.872 -0.0386  0.2822  0.2925
 4693TIP3    H138274   3.295   3.630  16.897 -2.6559 -1.4080  2.0759
 4693TIP3    H238275   3.270   3.501  16.821  0.9251 -1.1704  0.2930
 4694TIP3   OH238276   4.230   0.855  16.874 -0.1196 -0.1443  0.5459
 4694TIP3    H138277   4.251   0.840  16.782  0.9359 -1.3457  0.9549
 4694TIP3    H238278   4.288   0.796  16.922 -2.0948 -1.0735  1.9143
 4695TIP3   OH238279   6.045   5.421  16.154  0.3571  0.0831  0.1379
 4695TIP3    H138280   5.983   5.348  16.157 -0.3197  0.4906 -1.9421
 4695TIP3    H238281   6.131   5.379  16.157  0.0447 -0.5170  2.5966
 4696TIP3   OH238282   1.881   6.546  16.784 -0.2781 -0.0114  0.1791
 4696TIP3    H138283   1.911   6.624  16.831  0.1612  0.5636 -1.0093
 4696TIP3    H238284   1.961   6.495  16.769 -0.4139 -0.1881  0.0553
 4697TIP3   OH238285   3.757   0.014  17.439  0.4594  0.2781 -0.7121
 4697TIP3    H138286   3.755  -0.064  17.495  0.9756 -0.0625 -1.1612
 4697TIP3    H238287   3.850   0.036  17.432  0.3591  0.6142 -1.0277
 4698TIP3   OH238288   7.027   1.705  16.251 -0.2159  0.1151  0.0595
 4698TIP3    H138289   7.027   1.767  16.177  0.7173  1.2143  0.9407
 4698TIP3    H238290   7.051   1.621  16.211  1.5008  0.9235 -0.7620
 4699TIP3   OH238291   3.679   8.168  16.884 -0.3396  0.0293  0.4652
 4699TIP3    H138292   3.734   8.246  16.880 -0.6180  0.1952 -0.2358
 4699TIP3    H238293   3.629   8.169  16.802 -2.7902  0.9230  1.8824
 4700TIP3   OH238294   5.058   0.479  16.790  0.0229 -0.7734 -0.3926
 4700TIP3    H138295   4.964   0.474  16.806 -0.5678  3.3925 -1.2995
 4700TIP3    H238296   5.098   0.439  16.867 -2.5081 -0.6358  1.0916
 4701TIP3   OH238297   5.333   1.008  17.584 -0.1257  0.0427 -0.2302
 4701TIP3    H138298   5.323   0.936  17.646 -0.2577  0.5146  0.3012
 4701TIP3    H238299   5.417   1.047  17.606  0.1670 -0.2368 -0.8274
 4702TIP3   OH238300   2.235   5.213  16.318  0.0001  0.7199  0.0580
 4702TIP3    H138301   2.219   5.252  16.232 -1.3026 -0.0586 -0.0742
 4702TIP3    H238302   2.327   5.186  16.315 -0.3132 -0.3244 -1.5395
 4703TIP3   OH238303   6.179   7.346  16.582 -0.2508 -0.1412 -0.1778
 4703TIP3    H138304   6.171   7.374  16.490  0.5602 -0.9223 -0.4900
 4703TIP3    H238305   6.187   7.251  16.578  0.8177 -0.0937  0.6424
 4704TIP3   OH238306   3.773   4.069  17.824  0.3207 -0.1675 -0.5878
 4704TIP3    H138307   3.710   4.129  17.864 -2.4061 -2.5734 -0.9475
 4704TIP3    H238308   3.817   4.027  17.898 -0.2008 -0.1662 -0.2748
 4705TIP3   OH238309   1.960   3.509  16.511  0.3070  0.0408  0.8664
 4705TIP3    H138310   1.874   3.536  16.541 -0.4433 -1.0972 -0.1543
 4705TIP3    H238311   2.003   3.590  16.483 -0.5497  0.5774  1.0982
 4706TIP3   OH238312   5.438   5.641  15.988  0.1550  0.5683  0.0809
 4706TIP3    H138313   5.435   5.688  16.071 -1.1523  0.0218  0.3631
 4706TIP3    H238314   5.411   5.552  16.010  1.8277 -0.1511 -0.5782
 4707TIP3   OH238315   4.811   3.175  16.431  0.7716  0.6435 -0.7387
 4707TIP3    H138316   4.850   3.090  16.411 -0.8045 -0.5742  1.0235
 4707TIP3    H238317   4.817   3.183  16.526 -0.2961  1.8937 -0.7431
 4708TIP3   OH238318   0.757   2.768  17.450 -0.3542  0.3164  0.7456
 4708TIP3    H138319   0.691   2.731  17.509  0.9831 -1.0296  1.4711
 4708TIP3    H238320   0.766   2.859  17.478 -0.9020  0.1353  1.5342
 4709TIP3   OH238321   6.664   3.784  17.245 -0.0392 -0.0040 -0.2869
 4709TIP3    H138322   6.709   3.699  17.247  2.2573  1.1224  0.6756
 4709TIP3    H238323   6.583   3.767  17.197 -0.2177 -2.9634  0.8310
 4710TIP3   OH238324   4.845   0.516  15.956  0.2725  0.0237 -0.0515
 4710TIP3    H138325   4.778   0.572  15.918  1.2306  0.1538 -1.6323
 4710TIP3    H238326   4.927   0.565  15.946  0.8470 -0.8234  0.3255
 4711TIP3   OH238327   2.109   7.275  17.334 -0.1314 -0.3201  0.4362
 4711TIP3    H138328   2.183   7.214  17.330 -0.1900 -0.5169  1.9107
 4711TIP3    H238329   2.032   7.220  17.342 -0.4469 -0.1076 -0.9261
 4712TIP3   OH238330   3.605   5.072  17.010 -0.2923 -0.0811 -0.3450
 4712TIP3    H138331   3.631   5.096  17.099 -0.0063 -1.2891 -0.0864
 4712TIP3    H238332   3.687   5.071  16.960 -0.2098 -1.0539 -0.2105
 4713TIP3   OH238333   0.699   3.828  17.664  0.1101  0.1044  0.1333
 4713TIP3    H138334   0.665   3.917  17.654  0.2578  0.0368 -1.1015
 4713TIP3    H238335   0.629   3.782  17.710  0.4557  1.0917  1.7357
 4714TIP3   OH238336   3.643   5.128  15.595  0.3013  0.5151 -0.0348
 4714TIP3    H138337   3.624   5.196  15.530 -1.6265 -1.6170 -1.8965
 4714TIP3    H238338   3.557   5.106  15.632  0.9988 -0.3422  1.1154
 4715TIP3   OH238339   1.660   1.131  17.404  0.1482  0.1878  0.1941
 4715TIP3    H138340   1.729   1.080  17.446 -1.7619 -1.2629  1.8307
 4715TIP3    H238341   1.666   1.218  17.442  1.0888  0.0876  0.2774
 4716TIP3   OH238342   7.692   4.010  15.906  0.0826  0.0672  0.1353
 4716TIP3    H138343   7.725   4.067  15.975  2.0107 -0.6985 -0.1067
 4716TIP3    H238344   7.723   3.923  15.929 -0.3694 -0.4165 -1.0071
 4717TIP3   OH238345   4.527   3.340  17.120 -0.6618 -0.0356  0.0567
 4717TIP3    H138346   4.499   3.431  17.130 -0.4350  0.0992 -0.4696
 4717TIP3    H238347   4.616   3.338  17.155 -0.3369  0.1514 -0.7371
 4718TIP3   OH238348   3.676   0.672  16.102  0.6012  0.3129 -0.3107
 4718TIP3    H138349   3.679   0.642  16.193 -0.4818  1.0710 -0.0027
 4718TIP3    H238350   3.621   0.607  16.057  2.4686 -0.9915 -0.8383
 4719TIP3   OH238351   5.672   1.174  16.346  0.5278 -0.3320 -0.2983
 4719TIP3    H138352   5.599   1.196  16.289  0.9616  1.0266 -0.3537
 4719TIP3    H238353   5.750   1.191  16.293  0.9075 -0.3050  0.2638
 4720TIP3   OH238354   5.178   5.790  17.036 -0.1892 -0.8419  0.2070
 4720TIP3    H138355   5.220   5.858  16.983 -0.3399 -0.3409  0.7220
 4720TIP3    H238356   5.229   5.711  17.019 -0.6518 -0.8674 -1.2341
 4721TIP3   OH238357   0.132   3.677  16.933 -0.1707  0.0912 -0.1632
 4721TIP3    H138358   0.056   3.672  16.990  0.4396 -0.5686  0.6153
 4721TIP3    H238359   0.188   3.745  16.972 -0.6054  1.0185 -1.0741
 4722TIP3   OH238360   3.404   7.880  16.838  0.0214 -0.3507  0.3924
 4722TIP3    H138361   3.488   7.873  16.792 -0.2938  1.3668 -0.5163
 4722TIP3    H238362   3.395   7.796  16.884  1.7477 -0.9614 -0.3014
 4723TIP3   OH238363   2.606   8.315  16.847  0.1696 -0.0019 -0.0136
 4723TIP3    H138364   2.530   8.262  16.825  1.0167 -1.1248 -0.3000
 4723TIP3    H238365   2.596   8.395  16.796 -1.3897  0.3700  0.8191
 4724TIP3   OH238366   2.207   4.676  17.161 -0.3030  0.0137 -0.3736
 4724TIP3    H138367   2.120   4.691  17.197 -0.6858 -0.5252 -1.0432
 4724TIP3    H238368   2.266   4.683  17.236 -0.9771 -0.1610  0.1830
 4725TIP3   OH238369   1.844   1.417  16.589  0.7361  0.0840 -0.4165
 4725TIP3    H138370   1.903   1.413  16.513 -0.1594 -1.2161 -1.0732
 4725TIP3    H238371   1.816   1.327  16.604 -2.9577  0.8143 -1.6789
 4726TIP3   OH238372   2.798   2.161  17.467  0.3211 -0.3642 -0.8630
 4726TIP3    H138373   2.735   2.135  17.399 -1.3878  0.4690  0.3417
 4726TIP3    H238374   2.838   2.241  17.433  0.8006 -0.9181 -1.6530
 4727TIP3   OH238375   7.468   3.704  18.247  0.6115  0.3275 -0.2160
 4727TIP3    H138376   7.493   3.689  18.338  0.0833  1.0315  0.0578
 4727TIP3    H238377   7.543   3.675  18.195  1.2525  0.7101  0.4891
 4728TIP3   OH238378   2.616   6.973  15.773  0.4000 -0.2347 -0.2824
 4728TIP3    H138379   2.708   6.997  15.763  0.0370  0.8272 -1.2624
 4728TIP3    H238380   2.568   7.038  15.721 -0.8467 -1.3088 -0.5252
 4729TIP3   OH238381   0.283   3.737  17.150 -0.0663 -0.5829  0.3729
 4729TIP3    H138382   0.321   3.662  17.105 -0.8175 -1.2876  0.8850
 4729TIP3    H238383   0.271   3.707  17.241  0.9468  0.6353  0.9509
 4730TIP3   OH238384   3.362   8.060  15.513  0.1336 -0.5913 -0.4729
 4730TIP3    H138385   3.295   8.029  15.452  0.0440 -0.3934 -0.4769
 4730TIP3    H238386   3.444   8.023  15.480 -0.2756 -3.0559  1.0017
 4731TIP3   OH238387   6.705   7.615  16.089  0.0190 -0.1294  0.1780
 4731TIP3    H138388   6.720   7.563  16.169  0.8990 -2.5643 -1.4354
 4731TIP3    H238389   6.632   7.571  16.046 -0.4386  1.1480 -0.3851
 4732TIP3   OH238390   2.258   6.773  17.604 -0.0094  0.7182  0.2661
 4732TIP3    H138391   2.209   6.744  17.681 -0.7783  3.3716  0.8995
 4732TIP3    H238392   2.348   6.780  17.634 -0.1287  0.7075  0.6378
 4733TIP3   OH238393   6.333   6.561  16.813 -0.7511  0.2483  0.0857
 4733TIP3    H138394   6.356   6.577  16.904 -2.1955 -1.6725  0.8636
 4733TIP3    H238395   6.288   6.476  16.814  0.3041 -0.4552 -2.5977
 4734TIP3   OH238396   4.110   3.798  17.438  0.2245  0.0700  0.2610
 4734TIP3    H138397   4.071   3.794  17.525 -0.2044  0.5011  0.0902
 4734TIP3    H238398   4.144   3.886  17.430  1.8447 -0.4942  0.6557
 4735TIP3   OH238399   4.856   1.370  16.864 -0.4125  0.1374  0.3776
 4735TIP3    H138400   4.763   1.393  16.868 -0.5771 -0.4039 -0.2127
 4735TIP3    H238401   4.867   1.326  16.780  0.2329 -0.4461  0.7486
 4736TIP3   OH238402   2.918   0.305  16.194 -0.0995 -0.2021 -0.2649
 4736TIP3    H138403   2.913   0.217  16.156 -1.2650 -0.0116 -0.5854
 4736TIP3    H238404   3.000   0.341  16.160  0.5014 -1.2281  0.0320
 4737TIP3   OH238405   3.177   3.875  15.871  0.2578  0.3081  0.0425
 4737TIP3    H138406   3.244   3.939  15.847 -0.5643  1.1749  0.0417
 4737TIP3    H238407   3.204   3.795  15.825  1.0908  0.7402 -0.2510
 4738TIP3   OH238408   4.500   6.085  16.953  0.1890 -0.0728 -0.0942
 4738TIP3    H138409   4.559   6.050  16.887  1.0002  1.3475 -0.1670
 4738TIP3    H238410   4.501   6.021  17.023  4.5242  1.3114  1.4548
 4739TIP3   OH238411   6.370   1.930  16.694 -0.1334  0.4877 -0.0471
 4739TIP3    H138412   6.437   1.862  16.690 -1.5813 -0.9305 -1.0808
 4739TIP3    H238413   6.379   1.977  16.611 -0.2665  0.4582 -0.0774
 4740TIP3   OH238414   6.244   7.776  17.603 -0.5769  0.0185 -0.3200
 4740TIP3    H138415   6.288   7.852  17.563 -1.3354  0.9521  0.5619
 4740TIP3    H238416   6.189   7.814  17.672 -1.0259 -1.3398  0.0967
 4741TIP3   OH238417   6.153   2.994  16.987  0.1517 -0.0482  0.0418
 4741TIP3    H138418   6.084   2.990  17.053 -0.3797 -0.8707 -0.5339
 4741TIP3    H238419   6.125   3.063  16.927  1.4905  1.9334  1.5419
 4742TIP3   OH238420   4.647   4.808  17.051  0.3006  0.1771 -0.0025
 4742TIP3    H138421   4.604   4.892  17.065 -0.3047 -0.1535  0.1604
 4742TIP3    H238422   4.594   4.765  16.984 -1.6155 -1.5890  2.4796
 4743TIP3   OH238423   7.595   6.879  16.470 -0.1098  0.2830 -0.1810
 4743TIP3    H138424   7.545   6.800  16.487  1.1628 -0.4885  0.1081
 4743TIP3    H238425   7.552   6.947  16.522 -1.1159 -0.2441 -0.3098
 4744TIP3   OH238426   3.098   5.962  16.742  0.7480 -0.4567  0.4796
 4744TIP3    H138427   3.068   6.013  16.817  0.1228 -1.0090  0.6091
 4744TIP3    H238428   3.024   5.907  16.718  0.0586  1.3568 -2.0270
 4745TIP3   OH238429   0.900   5.337  17.960 -0.0376  0.1308  0.6829
 4745TIP3    H138430   0.930   5.254  17.996  1.0285  0.5657  0.8229
 4745TIP3    H238431   0.923   5.402  18.027 -0.1680  0.6461  0.2354
 4746TIP3   OH238432   1.765   1.662  15.277  0.3466 -0.3262  0.1607
 4746TIP3    H138433   1.856   1.689  15.267  1.2006 -2.7013  0.8460
 4746TIP3    H238434   1.764   1.571  15.248 -1.6998 -0.5230  0.7040
 4747TIP3   OH238435   7.309   4.832  16.401 -0.4983  0.0551  0.1153
 4747TIP3    H138436   7.343   4.893  16.335  1.4118  1.4856  2.2354
 4747TIP3    H238437   7.362   4.753  16.391  0.3959  0.5961  0.4682
 4748TIP3   OH238438   8.157   6.124  17.636  0.6140 -0.2224 -0.3949
 4748TIP3    H138439   8.070   6.084  17.635  1.2642 -1.8968  1.7417
 4748TIP3    H238440   8.218   6.050  17.633  1.9011  0.6168  1.8575
 4749TIP3   OH238441   5.486   6.980  17.396  0.1618  0.2625  0.2197
 4749TIP3    H138442   5.561   7.036  17.379 -1.8249  3.8150  2.0779
 4749TIP3    H238443   5.482   6.973  17.492 -1.8350  0.1780  0.1729
 4750TIP3   OH238444   1.366   2.171  15.439  0.3510  0.1370  0.9844
 4750TIP3    H138445   1.353   2.076  15.444  2.1604 -0.2293 -0.2343
 4750TIP3    H238446   1.443   2.182  15.383 -0.4867  2.3788  0.1250
 4751TIP3   OH238447   8.257   4.218  16.984  0.3766 -0.0286 -0.6974
 4751TIP3    H138448   8.218   4.231  17.071  0.1911 -1.5638 -0.5307
 4751TIP3    H238449   8.201   4.270  16.926  1.1020  1.8521  0.1953
 4752TIP3   OH238450   6.792   8.008  16.824 -0.4245  0.1908 -0.2170
 4752TIP3    H138451   6.869   7.998  16.768 -0.5839 -0.9505 -0.2527
 4752TIP3    H238452   6.777   7.921  16.861 -2.3346  0.0963 -1.0619
 4753TIP3   OH238453   7.358   3.348  16.350 -0.1840  0.5639  0.0050
 4753TIP3    H138454   7.345   3.376  16.259 -1.0510 -2.2653 -0.8541
 4753TIP3    H238455   7.421   3.411  16.385  0.3577  1.6475 -2.6179
 4754TIP3   OH238456   1.586   7.813  17.373  0.3457  0.2111 -0.0232
 4754TIP3    H138457   1.526   7.790  17.444  1.1889 -1.9786  0.0652
 4754TIP3    H238458   1.531   7.815  17.295 -0.0008 -1.1380  0.1537
 4755TIP3   OH238459   3.574   1.691  16.429  0.1707 -0.0848 -0.7793
 4755TIP3    H138460   3.556   1.766  16.485  0.2224  0.1288 -1.0490
 4755TIP3    H238461   3.669   1.679  16.435  0.0960 -0.4728 -0.3007
 4756TIP3   OH238462   1.590   2.181  15.204  0.1546 -0.8088 -0.1586
 4756TIP3    H138463   1.640   2.105  15.234  0.2475 -0.2141  1.2792
 4756TIP3    H238464   1.627   2.255  15.251 -0.9178 -0.0878 -0.3974
 4757TIP3   OH238465   4.887   0.414  17.929  0.0290  0.4087  0.0301
 4757TIP3    H138466   4.810   0.413  17.984  0.0726 -0.5938  0.0976
 4757TIP3    H238467   4.960   0.424  17.989  0.2361 -2.6219  0.4518
 4758TIP3   OH238468   1.216   2.925  16.640  0.2773  0.3309  0.2819
 4758TIP3    H138469   1.141   2.872  16.614  0.3525  0.6737 -0.6562
 4758TIP3    H238470   1.267   2.867  16.698  1.6556 -1.5815 -2.6146
 4759TIP3   OH238471   5.148   2.910  17.635 -0.2031 -0.5909  0.6526
 4759TIP3    H138472   5.207   2.983  17.654  0.3829 -0.5768 -1.0502
 4759TIP3    H238473   5.193   2.833  17.670  1.0303 -0.6266 -0.8902
 4760TIP3   OH238474   5.972   6.385  15.866  0.2873 -0.2319  0.0291
 4760TIP3    H138475   5.939   6.375  15.777  1.2135 -0.1068 -0.3383
 4760TIP3    H238476   6.051   6.332  15.869 -0.3555 -1.1698  1.1330
 4761TIP3   OH238477   2.616   1.938  16.857  0.1817 -0.0015  0.5144
 4761TIP3    H138478   2.700   1.909  16.894 -0.5015 -0.2186  1.9760
 4761TIP3    H238479   2.554   1.870  16.883 -0.6731  0.7423  0.4559
 4762TIP3   OH238480   4.340   0.032  16.750  0.3099 -0.2827 -0.3809
 4762TIP3    H138481   4.392   0.112  16.738  1.9605 -1.3479 -0.5551
 4762TIP3    H238482   4.265   0.044  16.691 -0.2684  1.7418  0.6476
 4763TIP3   OH238483   0.852   0.592  16.645  0.4286  0.8697  0.7981
 4763TIP3    H138484   0.862   0.515  16.701  0.3565 -1.5471 -2.2206
 4763TIP3    H238485   0.934   0.596  16.595 -0.6949  0.8754 -1.1683
 4764TIP3   OH238486   7.819   3.760  16.831  0.0700 -0.2556  0.0673
 4764TIP3    H138487   7.903   3.805  16.845  0.5098 -1.5179  1.7360
 4764TIP3    H238488   7.839   3.694  16.765  0.1253  0.1100 -0.2883
 4765TIP3   OH238489   3.251   3.625  15.777 -0.7633  0.3575  0.0295
 4765TIP3    H138490   3.181   3.560  15.772 -1.4674  1.1612 -0.9339
 4765TIP3    H238491   3.328   3.576  15.806 -1.4396 -0.7679 -0.0474
 4766TIP3   OH238492   2.936   7.564  16.357 -0.4983  0.3231  0.1173
 4766TIP3    H138493   2.980   7.494  16.405  0.6583  1.2995  0.5140
 4766TIP3    H238494   2.947   7.540  16.265 -0.7127 -0.3589  0.2625
 4767TIP3   OH238495   3.643   1.704  16.920 -0.0124  0.1330 -0.2419
 4767TIP3    H138496   3.700   1.657  16.859  0.1864 -0.7993  0.6196
 4767TIP3    H238497   3.616   1.637  16.983 -0.8506  0.8941  0.2326
 4768TIP3   OH238498   2.025   1.520  17.453  0.3920 -0.4889  0.2400
 4768TIP3    H138499   1.974   1.440  17.439 -1.8630  0.9352 -0.1990
 4768TIP3    H238500   1.975   1.588  17.407  2.4145  1.1272  0.3131
 4769TIP3   OH238501   6.017   0.721  17.474 -0.6040 -0.0651  0.2458
 4769TIP3    H138502   5.930   0.726  17.434 -0.3554  0.0037 -0.2992
 4769TIP3    H238503   6.070   0.783  17.424 -0.0814 -0.5739  0.1567
 4770TIP3   OH238504   7.590   3.914  16.363 -0.1518  0.3467 -0.2122
 4770TIP3    H138505   7.539   3.891  16.440 -1.8174  0.5679 -1.2158
 4770TIP3    H238506   7.631   3.832  16.336  1.7367  0.5372  1.7389
 4771TIP3   OH238507   4.411   2.557  17.732  0.2974  0.2683 -0.5822
 4771TIP3    H138508   4.503   2.577  17.749  0.1289  0.5233  0.0515
 4771TIP3    H238509   4.404   2.463  17.746  0.8185 -0.0640 -2.3211
 4772TIP3   OH238510   0.628   5.832  17.746  0.0149 -0.1660  0.1030
 4772TIP3    H138511   0.552   5.774  17.756 -0.1667  0.3251  2.1965
 4772TIP3    H238512   0.591   5.916  17.720 -0.2323  0.1264  1.3135
 4773TIP3   OH238513   1.579   1.055  15.910 -0.6198  0.0973 -0.1569
 4773TIP3    H138514   1.534   1.123  15.859  1.1835  0.0119 -1.9892
 4773TIP3    H238515   1.654   1.101  15.949 -1.5071 -0.0316  1.8677
 4774TIP3   OH238516   4.599   5.665  16.848 -0.0216  1.1282  0.6489
 4774TIP3    H138517   4.549   5.646  16.928 -1.6719  1.2455 -0.2994
 4774TIP3    H238518   4.539   5.641  16.777  1.3868  1.0656 -0.5625
 4775TIP3   OH238519   6.085   6.842  16.941  0.2915  0.3855  0.5728
 4775TIP3    H138520   6.086   6.821  16.847 -0.0564 -0.0023  0.6528
 4775TIP3    H238521   6.027   6.919  16.947 -1.1826 -0.6836  0.6753
 4776TIP3   OH238522   3.307   5.306  15.609 -0.7620  0.3923  0.0787
 4776TIP3    H138523   3.305   5.400  15.594  0.8981  0.3363 -0.7279
 4776TIP3    H238524   3.319   5.268  15.522  1.9723 -0.3437  0.6834
 4777TIP3   OH238525   6.127   8.295  16.269 -0.5736 -0.2465  0.0263
 4777TIP3    H138526   6.084   8.375  16.238 -1.1398 -0.5733 -0.0449
 4777TIP3    H238527   6.211   8.326  16.305 -1.3718  0.5798  1.2993
 4778TIP3   OH238528   1.671   5.924  15.965  0.0740 -0.1081  0.1249
 4778TIP3    H138529   1.708   5.854  16.019  1.6570 -0.1178 -0.8999
 4778TIP3    H238530   1.708   6.004  16.001 -2.7161  0.4541  2.1126
 4779TIP3   OH238531   5.859   6.525  17.373 -0.0231  0.0542  0.1470
 4779TIP3    H138532   5.818   6.607  17.401  0.8489  0.4953  0.1508
 4779TIP3    H238533   5.953   6.541  17.380  0.1577 -1.0752  0.5019
 4780TIP3   OH238534   3.013   8.290  17.316  0.3394 -0.7703  0.0423
 4780TIP3    H138535   2.940   8.230  17.302 -0.2094  0.2536 -1.8673
 4780TIP3    H238536   3.065   8.283  17.236  1.0792  0.1942  0.4206
 4781TIP3   OH238537   4.859   7.011  15.730 -0.0350  0.2210  0.6661
 4781TIP3    H138538   4.771   7.010  15.691  0.0536  2.6151  0.2773
 4781TIP3    H238539   4.904   6.938  15.687 -0.8744  0.9173 -1.5424
 4782TIP3   OH238540   6.796   2.384  15.746 -0.1808  0.2095  0.3571
 4782TIP3    H138541   6.714   2.433  15.740  0.5894  1.4586 -0.2193
 4782TIP3    H238542   6.862   2.449  15.765  0.9066 -0.5686 -0.6257
 4783TIP3   OH238543   0.220   7.272  16.792  0.7884  0.0032  0.0661
 4783TIP3    H138544   0.172   7.282  16.709  2.0046  0.3893 -0.6069
 4783TIP3    H238545   0.164   7.214  16.844 -0.1177 -0.0580 -0.9234
 4784TIP3   OH238546   5.345   0.676  17.498 -0.5740 -0.3201  0.9349
 4784TIP3    H138547   5.421   0.690  17.556 -0.2726 -0.4831  0.5821
 4784TIP3    H238548   5.290   0.613  17.545  0.4762 -1.7570  0.3237
 4785TIP3   OH238549   4.154   5.443  15.834  0.3826 -0.2872  0.0417
 4785TIP3    H138550   4.124   5.534  15.840  0.6614 -0.0216 -1.8045
 4785TIP3    H238551   4.074   5.393  15.817  0.5431  0.0345 -1.8914
 4786TIP3   OH238552   5.284   6.680  17.707 -0.0174 -0.0251  0.2592
 4786TIP3    H138553   5.371   6.709  17.734  0.6421 -0.2728 -1.4783
 4786TIP3    H238554   5.235   6.761  17.692 -0.4669  0.1159  2.2951
 4787TIP3   OH238555   3.122   0.008  16.943  0.3625 -0.3057 -0.0226
 4787TIP3    H138556   3.151   0.050  17.024 -1.8352  2.2214 -0.4146
 4787TIP3    H238557   3.116  -0.085  16.965  1.4193  0.0793  2.1713
 4788TIP3   OH238558   2.245   4.240  17.384 -0.0364  0.0770 -0.6075
 4788TIP3    H138559   2.192   4.301  17.436 -1.9452 -1.7535 -0.2241
 4788TIP3    H238560   2.301   4.196  17.448 -1.9018 -1.6898 -0.0605
 4789TIP3   OH238561   4.404   4.284  17.678 -0.0388  0.3668 -0.6485
 4789TIP3    H138562   4.448   4.306  17.759 -0.4019 -0.3720 -0.2394
 4789TIP3    H238563   4.348   4.360  17.659  1.1302  1.1653 -1.0001
 4790TIP3   OH238564   2.206   2.411  16.708 -0.2296  0.3069  0.0858
 4790TIP3    H138565   2.194   2.449  16.795 -4.2870  0.4247 -0.3260
 4790TIP3    H238566   2.232   2.320  16.725  0.9215  0.8376  1.3143
 4791TIP3   OH238567   8.223   6.214  16.183  0.5003 -0.2847  0.2773
 4791TIP3    H138568   8.312   6.237  16.156  0.1526  2.4385  1.1716
 4791TIP3    H238569   8.174   6.296  16.178 -2.2667 -1.8859 -1.1341
 4792TIP3   OH238570   3.603   0.711  17.564  0.4636  0.0065  0.3836
 4792TIP3    H138571   3.649   0.778  17.616 -0.3455  0.0166  1.1085
 4792TIP3    H238572   3.514   0.743  17.555  0.6652  0.1759 -1.3649
 4793TIP3   OH238573   1.586   7.684  16.904 -0.1260  0.3669 -0.5473
 4793TIP3    H138574   1.609   7.601  16.944 -0.4107  1.1196  1.2659
 4793TIP3    H238575   1.620   7.678  16.815 -1.6696 -2.3361 -1.0393
 4794TIP3   OH238576   4.359   0.832  16.584 -0.4506 -0.1589  0.4243
 4794TIP3    H138577   4.305   0.798  16.512  1.7496 -0.1477 -1.3343
 4794TIP3    H238578   4.394   0.914  16.551  0.2688  0.0689  1.7056
 4795TIP3   OH238579   4.491   2.075  15.664  0.2005  0.0354  0.2174
 4795TIP3    H138580   4.500   2.064  15.569  0.2586 -0.4348  0.2770
 4795TIP3    H238581   4.400   2.051  15.682  0.7244 -1.8127  0.5482
 4796TIP3   OH238582   2.337   4.636  17.383  0.2515 -0.6638  0.0305
 4796TIP3    H138583   2.255   4.665  17.423  0.6223 -1.8903  1.8134
 4796TIP3    H238584   2.404   4.651  17.450  1.2215 -1.1380 -0.7904
 4797TIP3   OH238585   1.570   2.840  17.754 -0.0904  0.2379  0.0423
 4797TIP3    H138586   1.665   2.846  17.751 -0.1352  0.9636 -0.0180
 4797TIP3    H238587   1.540   2.884  17.674 -0.5090  1.0576  0.6344
 4798TIP3   OH238588   1.472   7.822  17.102 -0.0071 -0.9570  0.5949
 4798TIP3    H138589   1.397   7.765  17.118 -1.2030 -0.2878 -2.0729
 4798TIP3    H238590   1.514   7.785  17.024  0.6014  0.4215  0.2353
 4799TIP3   OH238591   7.815   7.262  16.405  0.5647 -0.2404  0.0882
 4799TIP3    H138592   7.751   7.299  16.345  1.3492  2.1871  0.6445
 4799TIP3    H238593   7.762   7.215  16.471 -0.7586  2.2023  0.8811
 4800TIP3   OH238594   4.502   1.468  17.870  0.3873 -0.0054  0.0581
 4800TIP3    H138595   4.555   1.481  17.791 -3.5475 -2.8530 -3.5829
 4800TIP3    H238596   4.521   1.378  17.896 -1.5433 -0.6691 -0.6111
 4801TIP3   OH238597   6.865   2.503  17.002  0.5907  0.1207 -0.1822
 4801TIP3    H138598   6.816   2.440  17.054  0.7408  0.5290  0.4663
 4801TIP3    H238599   6.798   2.560  16.964  0.5220  0.2642  0.1535
 4802TIP3   OH238600   7.556   8.192  16.801  0.4555  0.0268  0.2013
 4802TIP3    H138601   7.543   8.274  16.753  0.8598 -0.0255 -0.0052
 4802TIP3    H238602   7.533   8.213  16.891  0.0887  0.2367  0.0631
 4803TIP3   OH238603   3.066   0.358  17.296 -0.2471 -0.2623  0.2959
 4803TIP3    H138604   3.066   0.307  17.376 -1.6438 -0.2600  0.3124
 4803TIP3    H238605   2.978   0.348  17.260 -0.4011  1.6489  0.0101
 4804TIP3   OH238606   7.951   2.162  16.376  0.3586  0.3248 -0.2034
 4804TIP3    H138607   7.868   2.119  16.396 -1.1494  2.2359 -1.9287
 4804TIP3    H238608   7.962   2.149  16.282  0.9122  1.9186 -0.3814
 4805TIP3   OH238609   0.758   3.416  16.417  0.3081  0.7905  0.2055
 4805TIP3    H138610   0.682   3.444  16.468  0.2297 -1.6064  1.5310
 4805TIP3    H238611   0.812   3.367  16.479  0.0918 -2.5131 -1.9736
 4806TIP3   OH238612   5.235   8.216  17.000 -0.5841 -0.2496  0.5471
 4806TIP3    H138613   5.263   8.289  17.055 -3.3345  1.8578 -0.6145
 4806TIP3    H238614   5.147   8.239  16.972 -0.3113 -2.4225 -2.6689
 4807TIP3   OH238615   0.141   4.356  16.324  0.1744  0.1950  0.4300
 4807TIP3    H138616   0.067   4.370  16.264  0.5522 -0.4823 -0.2134
 4807TIP3    H238617   0.148   4.438  16.372 -1.6614 -0.0767  1.2657
 4808TIP3   OH238618   4.711   7.355  17.263  0.1309 -0.8073  0.0486
 4808TIP3    H138619   4.652   7.365  17.188 -1.4060  0.7994  1.3748
 4808TIP3    H238620   4.792   7.399  17.236 -1.0287  1.3942 -0.0894
 4809TIP3   OH238621   7.356   5.323  17.616 -0.1599  0.7328 -0.8624
 4809TIP3    H138622   7.303   5.308  17.537  0.0461 -0.3478 -0.8148
 4809TIP3    H238623   7.412   5.397  17.594  0.1578  0.2042 -1.8738
 4810TIP3   OH238624   5.513   1.371  16.681 -0.0237 -0.5107 -0.2045
 4810TIP3    H138625   5.457   1.303  16.642  1.7650 -1.8618 -0.5677
 4810TIP3    H238626   5.565   1.324  16.746 -0.2276  0.9721  1.0940
 4811TIP3   OH238627   4.423   4.782  17.503  0.0783  0.0979  0.0908
 4811TIP3    H138628   4.431   4.877  17.489  0.1603  0.0960  0.1242
 4811TIP3    H238629   4.471   4.744  17.430  0.6352  0.0878  0.4632
 4812TIP3   OH238630   4.879   5.827  17.510 -0.4344 -0.0457 -0.2731
 4812TIP3    H138631   4.911   5.899  17.455  0.4701 -0.0118  0.2865
 4812TIP3    H238632   4.908   5.748  17.466  0.9484 -0.0073  0.5188
 4813TIP3   OH238633   0.188   4.331  15.810  0.4489 -0.2212  0.3833
 4813TIP3    H138634   0.154   4.242  15.810 -0.7947  0.2222 -0.1449
 4813TIP3    H238635   0.210   4.349  15.901 -2.7338  0.1369  1.2072
 4814TIP3   OH238636   6.340   7.237  16.935 -0.3060  0.3522 -0.2315
 4814TIP3    H138637   6.420   7.230  16.883  0.5297  0.3996  0.9965
 4814TIP3    H238638   6.274   7.190  16.885  0.9952 -1.4804 -0.3098
 4815TIP3   OH238639   4.745   4.518  16.676  0.0992  0.5529  0.4484
 4815TIP3    H138640   4.652   4.493  16.684 -0.4452  1.7701 -1.4077
 4815TIP3    H238641   4.743   4.612  16.660  1.8624  1.0992  2.9818
 4816TIP3   OH238642   3.169   6.033  17.491 -0.3328  0.0098 -0.4962
 4816TIP3    H138643   3.108   5.989  17.432  1.5960 -2.7348 -0.6318
 4816TIP3    H238644   3.246   6.052  17.437 -0.1187  1.2820  0.2021
 4817TIP3   OH238645   6.540   7.295  16.242 -0.3766  0.0093  0.3588
 4817TIP3    H138646   6.615   7.276  16.187 -0.6399  0.9004 -0.3316
 4817TIP3    H238647   6.468   7.312  16.180 -1.0154 -0.3287  0.9936
 4818TIP3   OH238648   4.546   1.454  16.865 -0.0768  0.8221  0.4184
 4818TIP3    H138649   4.472   1.473  16.808  0.1409  0.2370 -0.0736
 4818TIP3    H238650   4.558   1.534  16.916  0.8020  2.0084 -1.5446
 4819TIP3   OH238651   5.428   0.335  17.204 -0.0989 -0.6773 -0.2771
 4819TIP3    H138652   5.492   0.264  17.209 -0.0907 -0.8147 -1.8395
 4819TIP3    H238653   5.413   0.360  17.295  0.7206 -1.9414  0.2350
 4820TIP3   OH238654   1.218   4.798  16.444 -0.3266  0.3169 -0.1852
 4820TIP3    H138655   1.299   4.848  16.429 -0.2413  0.6492  1.2310
 4820TIP3    H238656   1.154   4.864  16.472 -0.7550 -0.1089 -0.1456
 4821TIP3   OH238657   7.336   0.413  15.702  0.3920 -0.3495 -0.3331
 4821TIP3    H138658   7.345   0.356  15.778  1.1867  0.2625  0.0511
 4821TIP3    H238659   7.409   0.474  15.709 -0.3172  0.5910 -0.8434
 4822TIP3   OH238660   5.602   7.962  17.073  0.3841 -0.0265 -0.2626
 4822TIP3    H138661   5.602   7.929  16.984 -1.0175  0.3134 -0.4010
 4822TIP3    H238662   5.669   7.910  17.118  0.1036 -1.1844 -1.1389
 4823TIP3   OH238663   4.465   0.154  17.923  0.0710  0.2833 -0.0232
 4823TIP3    H138664   4.548   0.140  17.877 -0.6461  0.8126 -1.5140
 4823TIP3    H238665   4.403   0.097  17.879 -0.5247  0.3841  0.6644
 4824TIP3   OH238666   0.784   4.346  17.044  0.2406 -0.2629  0.5374
 4824TIP3    H138667   0.815   4.368  16.956  1.1910 -0.3023  0.8454
 4824TIP3    H238668   0.702   4.299  17.029 -1.3611  2.5216 -0.1852
 4825TIP3   OH238669   5.774   6.567  16.240 -0.1591 -0.1965 -0.1816
 4825TIP3    H138670   5.791   6.652  16.198 -2.5256 -0.0009 -0.8786
 4825TIP3    H238671   5.861   6.530  16.253  1.0347  2.6214  0.8332
 4826TIP3   OH238672   8.243   7.972  17.186  0.2304  0.2514  0.6960
 4826TIP3    H138673   8.274   7.925  17.108 -1.8697 -0.3460  0.1570
 4826TIP3    H238674   8.260   7.911  17.259 -0.4102 -0.4342  0.2918
 4827TIP3   OH238675   1.366   2.547  16.360 -0.6846 -0.0078 -0.5852
 4827TIP3    H138676   1.440   2.537  16.300 -1.4261  0.8644 -1.6746
 4827TIP3    H238677   1.309   2.473  16.340 -0.5425 -0.1785 -0.3681
 4828TIP3   OH238678   0.288   5.505  15.932  0.0668 -0.2601  0.3017
 4828TIP3    H138679   0.373   5.485  15.969  0.4258  0.3841 -0.1454
 4828TIP3    H238680   0.282   5.450  15.854 -0.7377 -1.7026  1.3371
 4829TIP3   OH238681   0.391   0.771  16.409  0.1075 -0.4324  0.7210
 4829TIP3    H138682   0.471   0.741  16.451 -0.5943 -2.3150  0.8174
 4829TIP3    H238683   0.380   0.711  16.335 -0.5346  0.6228 -0.0572
 4830TIP3   OH238684   0.261   1.008  15.932  0.4554 -0.5264  0.0335
 4830TIP3    H138685   0.223   1.074  15.991 -0.3279 -1.4240  0.5598
 4830TIP3    H238686   0.190   0.987  15.871 -0.3354 -2.9334  1.6237
 4831TIP3   OH238687   7.950   2.665  16.270 -0.3792  0.0890  0.5952
 4831TIP3    H138688   7.869   2.715  16.264 -1.4414 -1.4346  1.4586
 4831TIP3    H238689   7.937   2.607  16.346  0.6140 -1.7350 -0.5444
 4832TIP3   OH238690   5.230   6.174  17.789  0.0705  0.0025  0.5326
 4832TIP3    H138691   5.223   6.265  17.759 -1.2612  0.1166  1.1230
 4832TIP3    H238692   5.164   6.127  17.738 -0.0173 -0.4053  1.0193
 4833TIP3   OH238693   5.574   5.244  16.356 -0.4568  0.0963  0.1379
 4833TIP3    H138694   5.503   5.188  16.388 -1.2788  1.6369  1.0906
 4833TIP3    H238695   5.653   5.199  16.384 -1.0800 -0.9029  0.3564
 4834TIP3   OH238696   0.437   3.123  15.686 -0.3173 -0.0141  0.0918
 4834TIP3    H138697   0.365   3.080  15.640  1.8769 -2.6524 -1.1759
 4834TIP3    H238698   0.482   3.175  15.619 -0.2681  0.5415  0.5481
 4835TIP3   OH238699   7.099   0.977  16.458 -0.2851  0.0645 -0.1213
 4835TIP3    H138700   7.122   0.908  16.396 -0.8452  0.4223 -0.7466
 4835TIP3    H238701   7.025   0.942  16.507  0.1791 -0.2319  0.3760
 4836TIP3   OH238702   1.055   6.520  18.055 -0.3215  0.1072 -0.0279
 4836TIP3    H138703   0.960   6.511  18.046 -0.2704  0.4865 -1.1019
 4836TIP3    H238704   1.088   6.518  17.965  0.6041  0.8156  0.2777
 4837TIP3   OH238705   7.749   3.138  16.428  0.0164 -0.0192  0.2563
 4837TIP3    H138706   7.662   3.099  16.421  0.3356 -0.4783 -1.5509
 4837TIP3    H238707   7.808   3.063  16.435  0.3220  0.2802  1.0205
 4838TIP3   OH238708   2.037   3.074  17.649  0.3349  0.0204  0.6280
 4838TIP3    H138709   2.084   3.116  17.577 -0.5949  0.3125  0.1787
 4838TIP3    H238710   2.105   3.052  17.712  1.0023  1.0865  0.3150
 4839TIP3   OH238711   7.232   1.532  16.106  0.0069  0.3822  0.2998
 4839TIP3    H138712   7.226   1.474  16.030  0.2242  0.0612  0.5242
 4839TIP3    H238713   7.278   1.609  16.074 -1.2441  0.9186 -0.2853
 4840TIP3   OH238714   7.147   3.616  17.758 -0.4153  0.2420 -0.0351
 4840TIP3    H138715   7.163   3.634  17.851  1.1214 -2.0070  0.2207
 4840TIP3    H238716   7.194   3.686  17.712  0.8632  0.0398  0.8920
 4841TIP3   OH238717   6.538   2.599  17.143 -0.6644 -0.2729  0.1404
 4841TIP3    H138718   6.572   2.549  17.069 -0.5638 -0.3755  0.2559
 4841TIP3    H238719   6.502   2.533  17.202  1.1026 -0.3833  1.1541
 4842TIP3   OH238720   6.728   2.642  16.168 -0.1903 -0.5896  0.2228
 4842TIP3    H138721   6.641   2.656  16.205  0.0456  0.3912  0.4250
 4842TIP3    H238722   6.733   2.702  16.094  0.7877  0.3554  1.0161
 4843TIP3   OH238723   4.772   5.151  17.255  0.2217  0.4598 -0.0876
 4843TIP3    H138724   4.850   5.160  17.200 -0.4532  1.0709 -0.9823
 4843TIP3    H238725   4.795   5.083  17.318  1.3130  0.3104 -0.6103
 4844TIP3   OH238726   2.698   3.173  17.098  0.1234 -0.1335  0.4461
 4844TIP3    H138727   2.659   3.150  17.014  0.5526 -1.9438  0.7019
 4844TIP3    H238728   2.751   3.097  17.121  1.0290  0.8545  1.7576
 4845TIP3   OH238729   3.583   3.607  16.706 -0.3860  0.1510 -0.6497
 4845TIP3    H138730   3.664   3.578  16.749 -0.0259  2.1233  0.1507
 4845TIP3    H238731   3.518   3.542  16.731  0.1659  0.4159  1.7460
 4846TIP3   OH238732   7.248   7.254  17.898 -0.5372 -0.1262 -0.5400
 4846TIP3    H138733   7.318   7.317  17.915 -0.1524 -0.3565 -1.2417
 4846TIP3    H238734   7.203   7.245  17.982  0.8168 -0.6359  0.1573
 4847TIP3   OH238735   6.791   3.672  16.402 -0.5022  0.7030  0.4095
 4847TIP3    H138736   6.753   3.707  16.483  0.6307  0.8557  0.9011
 4847TIP3    H238737   6.882   3.701  16.405  0.1689 -1.2920  0.2434
 4848TIP3   OH238738   1.075   3.191  15.165 -0.1421  0.0046 -0.7452
 4848TIP3    H138739   1.116   3.271  15.130  1.3044 -0.3807 -0.0080
 4848TIP3    H238740   1.102   3.122  15.104 -1.3236  0.0336 -1.3353
 4849TIP3   OH238741   4.007   2.903  16.523 -0.0475  0.5111 -0.2988
 4849TIP3    H138742   4.064   2.870  16.454  0.6326  1.4125 -0.1786
 4849TIP3    H238743   3.919   2.877  16.495  0.3073  0.0623 -1.0299
 4850TIP3   OH238744   5.954   0.547  18.131 -0.1632  0.5889 -0.5418
 4850TIP3    H138745   5.925   0.463  18.167 -0.4881  0.7737 -0.3672
 4850TIP3    H238746   5.912   0.552  18.045 -1.5558  1.3438  0.1519
 4851TIP3   OH238747   6.820   4.100  16.338  0.2179  0.5112 -0.5258
 4851TIP3    H138748   6.822   4.027  16.276  2.0282 -0.2289  0.3067
 4851TIP3    H238749   6.826   4.058  16.424 -1.5712  1.5383  0.1489
 4852TIP3   OH238750   0.427   4.440  15.706 -0.0188  0.2190 -0.0228
 4852TIP3    H138751   0.455   4.359  15.747  0.4072 -0.5415 -1.7157
 4852TIP3    H238752   0.339   4.421  15.672  1.2961 -0.7530 -3.3038
 4853TIP3   OH238753   2.188   4.728  16.230 -0.3391  0.1834 -0.2833
 4853TIP3    H138754   2.153   4.774  16.154  1.3433 -2.0026 -2.5627
 4853TIP3    H238755   2.167   4.636  16.215  0.1475 -0.3506  1.8807
 4854TIP3   OH238756   2.145   6.116  15.994  0.1862  0.0100  0.0324
 4854TIP3    H138757   2.095   6.196  15.977  1.2693  0.4523 -1.2135
 4854TIP3    H238758   2.100   6.048  15.944  0.2125  0.1789 -0.2202
 4855TIP3   OH238759   3.753   1.236  17.570 -0.6385 -0.5176  0.2094
 4855TIP3    H138760   3.818   1.221  17.500 -0.1345 -1.0814  0.7852
 4855TIP3    H238761   3.669   1.223  17.527 -0.3427 -0.5348 -0.3773
 4856TIP3   OH238762   6.099   4.779  17.622  0.3979 -0.5235  0.2477
 4856TIP3    H138763   6.037   4.712  17.592  1.0190 -1.6038  1.2582
 4856TIP3    H238764   6.169   4.777  17.557 -0.6494  0.8061 -0.9791
 4857TIP3   OH238765   1.449   1.231  15.743  1.0092 -0.4850  0.5132
 4857TIP3    H138766   1.504   1.284  15.684 -0.1119 -0.0135 -0.1476
 4857TIP3    H238767   1.403   1.171  15.684 -0.4116  0.2430  0.8440
 4858TIP3   OH238768   7.603   3.521  16.564 -0.3648  0.0390  0.1394
 4858TIP3    H138769   7.637   3.546  16.478 -1.0584  3.1327  0.6422
 4858TIP3    H238770   7.663   3.453  16.595  2.7864  2.1451 -0.8642
 4859TIP3   OH238771   4.831   5.442  16.878  0.7987  0.2914  0.6563
 4859TIP3    H138772   4.894   5.416  16.810  0.4127 -1.4198  0.8913
 4859TIP3    H238773   4.823   5.537  16.868  0.5501  0.0953 -1.8752
 4860TIP3   OH238774   1.821   4.532  15.597 -0.5987 -0.4886  0.3359
 4860TIP3    H138775   1.817   4.626  15.613  1.0246 -0.6097  1.6277
 4860TIP3    H238776   1.760   4.518  15.524 -1.0619  1.5033  0.2836
 4861TIP3   OH238777   1.506   3.809  15.549  0.0886  0.0273 -0.0069
 4861TIP3    H138778   1.579   3.792  15.490 -0.1450 -1.2591  0.0414
 4861TIP3    H238779   1.494   3.727  15.596  1.5949  1.5063  3.3704
 4862TIP3   OH238780   1.009   7.691  17.199 -0.6964  0.2068  0.3467
 4862TIP3    H138781   0.943   7.641  17.151  0.0752  0.0495 -0.5821
 4862TIP3    H238782   1.034   7.635  17.272 -1.3737  0.1441  0.5342
 4863TIP3   OH238783   2.493   2.476  17.767 -0.7707 -0.3221  0.2352
 4863TIP3    H138784   2.576   2.448  17.806 -0.8255  1.3473  1.6516
 4863TIP3    H238785   2.518   2.546  17.706 -1.2012  1.2503  1.7772
 4864TIP3   OH238786   0.039   0.503  17.805 -0.3934 -0.6421  0.1715
 4864TIP3    H138787  -0.012   0.533  17.730  1.8554 -0.5578 -1.4434
 4864TIP3    H238788   0.049   0.408  17.790  0.7495 -0.4914 -0.1270
 4865TIP3   OH238789   0.686   6.231  17.106 -0.5079  0.1123 -0.3595
 4865TIP3    H138790   0.619   6.300  17.109 -0.3260  0.2662  0.6241
 4865TIP3    H238791   0.726   6.233  17.193 -0.1436 -0.8958 -0.4943
 4866TIP3   OH238792   6.689   6.455  17.122  0.4327  0.6655  0.6315
 4866TIP3    H138793   6.716   6.525  17.182  1.7070 -0.5382  1.5227
 4866TIP3    H238794   6.747   6.464  17.047  0.6728  0.4993  0.7958
 4867TIP3   OH238795   6.592   7.049  17.015 -0.2593 -0.1220 -0.0468
 4867TIP3    H138796   6.647   6.982  16.975  0.2325  0.5152 -0.4685
 4867TIP3    H238797   6.502   7.022  16.996 -0.1030 -1.2510  0.7742
 4868TIP3   OH238798   6.647   2.236  16.546  0.1754 -0.1640 -0.7899
 4868TIP3    H138799   6.703   2.228  16.469 -0.4557  0.8893 -1.3924
 4868TIP3    H238800   6.566   2.190  16.523  0.5235 -1.1096 -0.1791
 4869TIP3   OH238801   7.155   0.410  15.336 -0.4065 -0.3457  0.3487
 4869TIP3    H138802   7.242   0.451  15.332  0.2499 -1.7520 -0.6765
 4869TIP3    H238803   7.123   0.413  15.246 -0.9993 -0.6954  0.5456
 4870TIP3   OH238804   7.892   1.164  15.548  0.0497 -0.4724  0.9378
 4870TIP3    H138805   7.863   1.252  15.573  2.9746  0.4364  1.4814
 4870TIP3    H238806   7.984   1.175  15.525 -0.0617 -3.0270 -1.1738
 4871TIP3   OH238807   2.790   7.305  16.174  0.5827  0.4887  0.0253
 4871TIP3    H138808   2.871   7.348  16.145  1.6653 -2.2641 -1.4218
 4871TIP3    H238809   2.746   7.280  16.094  1.1308 -2.8956  0.6409
 4872TIP3   OH238810   0.812   8.044  17.135  0.2474  0.3675 -0.0590
 4872TIP3    H138811   0.757   8.063  17.211 -0.7732 -1.9435 -0.1422
 4872TIP3    H238812   0.765   7.975  17.088  1.1766  1.2872 -2.4536
 4873TIP3   OH238813   7.390   2.472  15.814 -0.3585 -0.0597 -0.4788
 4873TIP3    H138814   7.318   2.535  15.809  0.7579  1.3397  0.0233
 4873TIP3    H238815   7.455   2.506  15.751  0.2635 -0.7072 -0.1957
 4874TIP3   OH238816   5.770   4.558  16.575 -0.6913 -0.1785 -0.5764
 4874TIP3    H138817   5.715   4.632  16.551  0.1306 -0.1226 -2.4842
 4874TIP3    H238818   5.709   4.485  16.584 -1.3908  0.4876  0.2972
 4875TIP3   OH238819   7.095   4.812  16.158 -0.0078 -0.2978  0.4047
 4875TIP3    H138820   7.056   4.841  16.241 -3.6685  1.3940 -1.6756
 4875TIP3    H238821   7.118   4.894  16.113 -3.6077 -0.6469 -2.5275
 4876TIP3   OH238822   0.130   1.456  15.335  0.4837 -0.3568  0.3976
 4876TIP3    H138823   0.123   1.508  15.415  1.0244 -0.6048  0.6147
 4876TIP3    H238824   0.084   1.507  15.269 -2.3852 -1.3780  1.4494
 4877TIP3   OH238825   5.020   4.713  17.515 -0.7472  0.7336 -0.3169
 4877TIP3    H138826   5.013   4.797  17.471 -0.1784  0.6131 -0.6489
 4877TIP3    H238827   5.083   4.728  17.586  1.2704  0.0173 -1.8488
 4878TIP3   OH238828   4.545   4.674  17.275  0.9512 -0.4068 -0.0959
 4878TIP3    H138829   4.560   4.585  17.240  0.1699 -0.0640 -1.3797
 4878TIP3    H238830   4.606   4.728  17.225 -1.2982  0.3448 -2.2553
 4879TIP3   OH238831   3.330   0.343  16.817 -0.8351 -0.1472  0.2742
 4879TIP3    H138832   3.315   0.402  16.891 -0.9695 -1.6725  1.5166
 4879TIP3    H238833   3.396   0.280  16.849 -2.8550 -2.4896  0.1289
 4880TIP3   OH238834   4.759   2.153  17.290 -0.5370 -0.0295  0.1328
 4880TIP3    H138835   4.692   2.218  17.269  1.5220  2.5900  1.0558
 4880TIP3    H238836   4.774   2.164  17.384  0.2359 -1.5469  0.2160
 4881TIP3   OH238837   3.903   3.459  16.476  0.1805  0.2011 -0.5176
 4881TIP3    H138838   3.988   3.490  16.447  0.7312 -0.5996  0.1945
 4881TIP3    H238839   3.898   3.368  16.447 -0.7341  0.4449 -1.1685
 4882TIP3   OH238840   2.497   7.489  15.775 -0.5545  0.4720 -0.6072
 4882TIP3    H138841   2.549   7.569  15.780 -0.1522  0.1283  2.3959
 4882TIP3    H238842   2.406   7.520  15.772 -0.7030  1.3238  4.2310
 4883TIP3   OH238843   5.552   0.064  15.707 -0.1399  0.2264 -0.2023
 4883TIP3    H138844   5.537   0.012  15.628 -1.6451 -0.2397  0.3625
 4883TIP3    H238845   5.481   0.127  15.709 -1.4867 -1.2200  1.9070
 4884TIP3   OH238846   4.718   2.079  16.896  0.1698 -0.3149  0.3673
 4884TIP3    H138847   4.743   2.136  16.824 -2.6254 -1.4411 -1.6902
 4884TIP3    H238848   4.645   2.125  16.939  2.7101  1.0674  3.6523
 4885TIP3   OH238849   3.685   5.409  16.605  0.1347  0.1123  0.2544
 4885TIP3    H138850   3.735   5.442  16.530  0.6756 -0.0525  0.5331
 4885TIP3    H238851   3.658   5.488  16.652  0.4677  0.1914  0.3130
 4886TIP3   OH238852   1.689   1.024  17.059  0.1142 -0.0610  0.1873
 4886TIP3    H138853   1.745   0.956  17.098  0.8449 -0.8138 -2.0501
 4886TIP3    H238854   1.701   1.014  16.965 -1.3764  1.8594 -0.2612
 4887TIP3   OH238855   1.364   4.959  17.985 -0.3486 -0.1186 -0.5321
 4887TIP3    H138856   1.404   4.877  18.013  2.1901  0.7148 -1.3756
 4887TIP3    H238857   1.329   4.941  17.898 -0.0508 -0.4102 -0.5936
 4888TIP3   OH238858   2.118   2.501  17.526 -0.0151 -0.1733  0.0711
 4888TIP3    H138859   2.157   2.416  17.547  3.3560  1.5110  1.4244
 4888TIP3    H238860   2.132   2.553  17.605 -1.0491  1.9506 -1.0695
 4889TIP3   OH238861   3.934   1.644  17.346 -0.3732 -0.3047  0.0338
 4889TIP3    H138862   3.927   1.592  17.426 -1.4108 -3.1494 -1.7249
 4889TIP3    H238863   4.013   1.611  17.303 -0.6968  0.0259 -0.8354
 4890TIP3   OH238864   7.310   2.247  17.564 -0.5217  0.3797  0.4007
 4890TIP3    H138865   7.217   2.231  17.575 -0.4594 -0.6909 -0.4824
 4890TIP3    H238866   7.325   2.243  17.470  0.7969 -1.8899  0.6295
 4891TIP3   OH238867   6.779   4.934  17.367  0.4591  0.6465  0.2424
 4891TIP3    H138868   6.836   4.922  17.291  0.4817  2.0168  0.0118
 4891TIP3    H238869   6.818   5.008  17.414 -0.4846  0.8801  0.6863
 4892TIP3   OH238870   7.197   0.923  17.052 -0.2744 -0.0476  1.0868
 4892TIP3    H138871   7.169   1.011  17.077  2.5193  0.7016  1.9043
 4892TIP3    H238872   7.284   0.935  17.013 -0.6640 -2.2553 -0.6657
 4893TIP3   OH238873   4.560   4.215  17.236 -0.9863  0.0545  0.2996
 4893TIP3    H138874   4.494   4.249  17.296 -0.0972 -0.4326  1.5866
 4893TIP3    H238875   4.630   4.280  17.237 -0.6422 -0.3143  0.3617
 4894TIP3   OH238876   1.066   3.361  17.595 -0.0750  0.5712  0.3231
 4894TIP3    H138877   1.057   3.430  17.661 -0.7768  0.2363  0.5834
 4894TIP3    H238878   1.121   3.400  17.527  1.2934  0.6733  1.4447
 4895TIP3   OH238879   7.432   3.589  16.765 -0.9023  0.4409  0.5099
 4895TIP3    H138880   7.457   3.673  16.804 -0.2048  0.0119  1.0159
 4895TIP3    H238881   7.493   3.576  16.694 -1.1082  0.4287  0.3334
 4896TIP3   OH238882   5.530   4.737  16.423  0.2786 -0.3412  0.5082
 4896TIP3    H138883   5.459   4.673  16.418 -0.8015  0.8761 -0.5560
 4896TIP3    H238884   5.507   4.792  16.498 -0.7683  0.9652 -0.7083
 4897TIP3   OH238885   2.389   5.437  16.972  0.5513 -0.6503  0.5793
 4897TIP3    H138886   2.476   5.472  16.992  0.4374 -1.4337  2.7912
 4897TIP3    H238887   2.362   5.394  17.053 -2.1682  0.1023  0.1882
 4898TIP3   OH238888   7.622   5.319  17.250 -0.1582 -0.0117 -0.9018
 4898TIP3    H138889   7.651   5.306  17.340 -0.5017 -1.8426 -1.0106
 4898TIP3    H238890   7.702   5.323  17.198  0.0222  0.5430 -0.5885
 4899TIP3   OH238891   5.844   7.453  15.652  0.2088 -0.4174  0.6438
 4899TIP3    H138892   5.790   7.431  15.728  0.9252  0.7587  1.5305
 4899TIP3    H238893   5.817   7.541  15.627 -1.2628 -1.4428 -1.6339
 4900TIP3   OH238894   7.967   5.481  17.629  0.2132 -0.3890 -0.0600
 4900TIP3    H138895   7.980   5.408  17.689  0.0320 -0.3315  0.0509
 4900TIP3    H238896   7.970   5.442  17.542 -2.9834 -1.0875  0.0164
 4901TIP3   OH238897   1.896   5.042  17.802  0.4899  0.1695 -0.5179
 4901TIP3    H138898   1.840   4.988  17.746 -1.6491  2.4229 -0.7288
 4901TIP3    H238899   1.875   5.014  17.891 -0.5567  0.5408 -0.6275
 4902TIP3   OH238900   7.454   6.747  17.581 -0.1513 -0.1773  0.0800
 4902TIP3    H138901   7.534   6.800  17.581  0.8682 -1.6291  0.8187
 4902TIP3    H238902   7.438   6.731  17.674 -1.4621  0.2828 -0.0540
 4903TIP3   OH238903   0.834   0.645  17.068 -0.8880 -0.0892  0.0909
 4903TIP3    H138904   0.917   0.603  17.085 -2.2689 -3.4088 -0.6543
 4903TIP3    H238905   0.857   0.727  17.023  1.9264 -1.9780 -2.2435
 4904TIP3   OH238906   1.231   6.882  16.826 -0.2521  0.0321 -0.0307
 4904TIP3    H138907   1.203   6.974  16.821 -0.9567 -0.1667  0.1009
 4904TIP3    H238908   1.152   6.835  16.854  0.3652 -0.4870  0.8943
 4905TIP3   OH238909   5.289   7.231  18.053  0.4792  0.3603 -0.1461
 4905TIP3    H138910   5.298   7.288  17.977  0.5459  0.5950  0.0367
 4905TIP3    H238911   5.194   7.220  18.063  0.4850 -0.0874 -0.5699
 4906TIP3   OH238912   7.027   7.742  16.697 -0.2932  0.1872 -0.2784
 4906TIP3    H138913   7.015   7.824  16.649 -2.0219  0.2087  0.1459
 4906TIP3    H238914   6.989   7.675  16.641 -2.5196  0.2370  1.0471
 4907TIP3   OH238915   5.402   4.852  15.786  0.3787 -0.1841 -0.1720
 4907TIP3    H138916   5.433   4.920  15.726  0.6187  1.3312  1.5605
 4907TIP3    H238917   5.307   4.850  15.773  0.5903 -1.0947 -1.7680
 4908TIP3   OH238918   7.738   8.212  16.002  0.4102  0.1982  0.3136
 4908TIP3    H138919   7.747   8.283  16.066  2.5914  1.7007 -1.5271
 4908TIP3    H238920   7.826   8.175  15.995  0.8615  1.6238 -3.4252
 4909TIP3   OH238921   6.907   0.755  15.670 -0.2695 -0.4088 -0.1871
 4909TIP3    H138922   6.952   0.672  15.685  0.6561 -0.0833 -1.0265
 4909TIP3    H238923   6.941   0.786  15.586  0.3126  1.4032  0.6597
 4910TIP3   OH238924   5.481   0.867  16.433  0.1621 -0.2328  0.3295
 4910TIP3    H138925   5.497   0.897  16.343 -1.5695 -0.4492 -0.0942
 4910TIP3    H238926   5.567   0.862  16.473  1.0256 -0.7123 -1.5101
 4911TIP3   OH238927   0.301   7.592  17.262  0.5452 -0.3640 -0.1143
 4911TIP3    H138928   0.359   7.665  17.285  0.1308 -0.3978  1.0584
 4911TIP3    H238929   0.241   7.630  17.197  0.8936  0.0885 -0.1810
 4912TIP3   OH238930   5.467   0.361  16.504  0.5308 -0.5897  0.1003
 4912TIP3    H138931   5.418   0.441  16.523 -2.3738 -2.0275 -0.7444
 4912TIP3    H238932   5.532   0.387  16.439 -1.5322  0.8100 -1.5225
 4913TIP3   OH238933   5.139   1.302  16.585 -0.0830 -0.3796 -0.6225
 4913TIP3    H138934   5.173   1.346  16.507 -0.4413 -0.6914 -0.9678
 4913TIP3    H238935   5.185   1.342  16.658  2.2362 -1.9028 -1.1536
 4914TIP3   OH238936   4.203   1.086  18.015  0.0919  0.0115 -0.2055
 4914TIP3    H138937   4.110   1.095  18.035 -0.1563 -0.9220 -0.9120
 4914TIP3    H238938   4.214   1.131  17.932  0.5151  1.1248  0.4251
 4915TIP3   OH238939   2.616   4.011  17.099  0.1235  0.3254  0.2171
 4915TIP3    H138940   2.571   3.965  17.170  0.8709 -0.5241  0.1475
 4915TIP3    H238941   2.597   4.104  17.115 -0.0822  0.1088  1.2733
 4916TIP3   OH238942   8.377   0.436  17.495  0.4955 -0.0743  0.4356
 4916TIP3    H138943   8.437   0.368  17.464  0.5236  0.4356 -0.6907
 4916TIP3    H238944   8.319   0.391  17.555  0.4213 -1.1394 -0.3981
 4917TIP3   OH238945   2.063   2.722  17.297 -0.1351 -0.1583 -0.4204
 4917TIP3    H138946   1.983   2.772  17.314 -0.2420 -0.3548 -0.3400
 4917TIP3    H238947   2.130   2.767  17.348 -0.5810 -1.1066  1.0525
 4918TIP3   OH238948   5.684   0.907  16.666  0.3387  0.5690  0.2267
 4918TIP3    H138949   5.602   0.876  16.705  0.3695  1.6032  1.1606
 4918TIP3    H238950   5.746   0.836  16.682 -0.3556 -0.2284 -0.4957
 4919TIP3   OH238951   2.929   6.409  16.555 -0.4701 -0.0287 -0.0535
 4919TIP3    H138952   2.986   6.438  16.627 -2.2679  0.3713  1.2664
 4919TIP3    H238953   2.990   6.377  16.488  1.2589 -1.3890  2.0306
 4920TIP3   OH238954   6.535   3.961  16.952 -0.3137 -0.2295  0.2069
 4920TIP3    H138955   6.602   4.006  17.002  0.4096 -1.9856  0.9034
 4920TIP3    H238956   6.576   3.943  16.867 -1.2199  1.9215 -0.7562
 4921TIP3   OH238957   6.356   5.106  17.499 -0.2964 -0.0531  0.4827
 4921TIP3    H138958   6.283   5.101  17.561  0.1844 -0.4740  1.0328
 4921TIP3    H238959   6.422   5.047  17.536  0.5914  0.8432  0.3650
 4922TIP3   OH238960   0.939   2.830  16.601  0.1737  0.2726  0.0373
 4922TIP3    H138961   0.891   2.843  16.683  2.2637  0.7700  1.2727
 4922TIP3    H238962   0.912   2.903  16.546 -0.5803  0.4535  0.6269
 4923TIP3   OH238963   7.937   5.836  16.134 -0.5103  0.0787  0.4792
 4923TIP3    H138964   7.931   5.764  16.196  0.0253 -0.0250  0.4085
 4923TIP3    H238965   7.991   5.803  16.062 -0.2664  0.5451  0.4412
 4924TIP3   OH238966   5.340   0.987  16.794 -0.5417  0.4204 -0.5159
 4924TIP3    H138967   5.402   1.019  16.860  0.1899 -0.3827 -0.7894
 4924TIP3    H238968   5.372   1.024  16.712  1.0966 -1.9167 -1.0494
 4925TIP3   OH238969   5.726   8.422  16.057 -0.2515 -0.4124  0.0313
 4925TIP3    H138970   5.773   8.436  15.974 -1.3362 -0.3698 -0.5977
 4925TIP3    H238971   5.784   8.457  16.124  1.4580 -2.0627 -0.5046
 4926TIP3   OH238972   0.360   7.003  17.480  0.3863 -0.6585  0.5096
 4926TIP3    H138973   0.386   6.961  17.397  0.9543  1.6086 -0.5469
 4926TIP3    H238974   0.426   6.974  17.543  0.9841 -1.0659 -0.2777
 4927TIP3   OH238975   0.508   2.805  17.831 -0.6560  0.2181  0.4175
 4927TIP3    H138976   0.580   2.866  17.822 -1.7848  1.4533 -0.5793
 4927TIP3    H238977   0.462   2.833  17.910  0.7524 -1.5206  1.9760
 4928TIP3   OH238978   1.037   7.285  18.109  0.2866 -0.2835 -0.6914
 4928TIP3    H138979   1.072   7.256  18.024 -0.1648 -0.8304 -0.6991
 4928TIP3    H238980   1.089   7.237  18.174  0.1048 -0.4739 -0.6835
 4929TIP3   OH238981   1.124   0.170  17.224  0.5416 -0.1548  0.2444
 4929TIP3    H138982   1.119   0.226  17.301 -0.3245 -0.4412  0.4175
 4929TIP3    H238983   1.200   0.201  17.176 -1.2312  2.7742 -0.9291
 4930TIP3   OH238984   4.748   6.889  18.128  0.3408  0.0144 -0.2834
 4930TIP3    H138985   4.772   6.961  18.070  0.5790 -0.6011 -0.9716
 4930TIP3    H238986   4.672   6.849  18.085 -0.2154  0.2674  0.4507
 4931TIP3   OH238987   0.112   5.481  16.982 -0.0613  0.0481 -0.0709
 4931TIP3    H138988   0.025   5.519  16.972  0.1969  0.8700  0.6936
 4931TIP3    H238989   0.127   5.478  17.076 -0.4792 -2.9724 -0.0062
 4932TIP3   OH238990   5.052   2.252  15.753 -0.0001  0.9789  0.0086
 4932TIP3    H138991   5.008   2.184  15.805  0.7778  0.1153 -0.4135
 4932TIP3    H238992   5.015   2.334  15.785 -1.7437  0.3219 -0.1779
 4933TIP3   OH238993   3.636   4.325  17.922  0.4204 -0.0917  0.0502
 4933TIP3    H138994   3.673   4.375  17.850 -2.2046 -0.1468 -1.4330
 4933TIP3    H238995   3.578   4.387  17.967 -0.8599 -1.0596 -0.2265
 4934TIP3   OH238996   4.779   5.173  16.642  0.0834 -0.2951 -0.0338
 4934TIP3    H138997   4.727   5.213  16.571  1.5629  1.9592  0.0736
 4934TIP3    H238998   4.718   5.166  16.715 -0.1225  2.6189  0.1989
 4935TIP3   OH238999   3.373   2.196  16.136  0.1240  0.2148 -0.9465
 4935TIP3    H139000   3.401   2.286  16.156 -1.3704  0.4860  0.1072
 4935TIP3    H239001   3.452   2.143  16.145  1.0853  1.4413 -1.8248
 4936TIP3   OH239002   7.581   5.660  16.671  0.1791  0.3504  0.3367
 4936TIP3    H139003   7.637   5.651  16.594  0.5838  0.8065  0.5678
 4936TIP3    H239004   7.524   5.583  16.669 -1.2277  1.3732 -1.5226
 4937TIP3   OH239005   1.301   0.788  17.434  0.8525 -0.0495  0.0295
 4937TIP3    H139006   1.335   0.792  17.344  1.4503 -1.0838  0.1794
 4937TIP3    H239007   1.367   0.737  17.482  0.4610  0.3448  1.0184
 4938TIP3   OH239008   6.104   5.025  16.637  0.2684 -0.4330 -0.1412
 4938TIP3    H139009   6.152   5.101  16.670 -1.2016  0.4453  0.0625
 4938TIP3    H239010   6.171   4.958  16.624  1.5429  0.7617  0.0591
 4939TIP3   OH239011   1.311   3.275  17.760 -0.4097 -0.1047  0.0368
 4939TIP3    H139012   1.394   3.308  17.725 -0.3775  0.1635  0.3550
 4939TIP3    H239013   1.244   3.306  17.700 -0.5408  1.8061  1.1037
 4940TIP3   OH239014   2.423   0.295  17.166 -0.0137  0.2339  0.2884
 4940TIP3    H139015   2.473   0.256  17.094  0.7809  2.7273 -0.6162
 4940TIP3    H239016   2.453   0.249  17.244 -0.0664 -1.7619 -0.8087
 4941TIP3   OH239017   2.049   0.190  17.035  0.4396  0.4695 -0.4591
 4941TIP3    H139018   2.039   0.138  17.115  2.7449  0.9120  0.1961
 4941TIP3    H239019   1.998   0.269  17.050 -0.1016  0.0170  0.0878
 4942TIP3   OH239020   6.931   4.294  17.512  0.1275 -0.4427 -0.2024
 4942TIP3    H139021   6.928   4.386  17.485 -0.2577 -0.5871 -0.6663
 4942TIP3    H239022   7.015   4.262  17.477  0.1997 -0.3040 -0.1579
 4943TIP3   OH239023   5.342   7.075  16.848  0.1660  0.2091  0.3163
 4943TIP3    H139024   5.428   7.102  16.879  0.0691  1.0125 -0.0866
 4943TIP3    H239025   5.344   7.090  16.754 -1.0750  2.1856  0.5473
 4944TIP3   OH239026   3.326   7.319  16.019 -0.2004 -0.4351  0.4012
 4944TIP3    H139027   3.289   7.294  15.934  2.9503 -2.2330 -0.6050
 4944TIP3    H239028   3.285   7.260  16.082  0.4833 -1.9972 -0.5653
 4945TIP3   OH239029   1.350   0.538  16.784 -0.3247  0.1037  0.0191
 4945TIP3    H139030   1.347   0.456  16.735  1.3112  0.9944 -1.7528
 4945TIP3    H239031   1.292   0.525  16.858 -0.8298 -2.3065 -0.7226
 4946TIP3   OH239032   7.966   2.374  16.737 -0.2152 -0.2180  0.2170
 4946TIP3    H139033   7.918   2.324  16.672  0.4505 -0.9529  0.2760
 4946TIP3    H239034   8.058   2.365  16.711 -0.0336  0.4739  0.5782
 4947TIP3   OH239035   6.791   3.522  17.125  0.7784 -0.7394  0.2957
 4947TIP3    H139036   6.812   3.476  17.044 -1.5662  0.5923 -1.1949
 4947TIP3    H239037   6.870   3.572  17.147  0.8991  0.2989 -2.2314
 4948TIP3   OH239038   0.180   5.403  17.734  0.4090 -0.1656 -0.7722
 4948TIP3    H139039   0.141   5.396  17.821 -2.5831 -0.2310 -2.0305
 4948TIP3    H239040   0.254   5.342  17.736 -0.8378 -1.7273  1.0990
 4949TIP3   OH239041   0.190   4.785  15.840  0.2229 -0.1029  0.2913
 4949TIP3    H139042   0.102   4.801  15.873 -0.4302  1.4302 -1.9800
 4949TIP3    H239043   0.177   4.740  15.756  1.6234 -0.2205  0.1131
 4950TIP3   OH239044   5.198   4.100  17.320  0.4613  0.8132 -0.3307
 4950TIP3    H139045   5.163   4.012  17.311  0.1890  0.9333 -0.4633
 4950TIP3    H239046   5.248   4.115  17.239  0.3160  0.8640 -0.4120
 4951TIP3   OH239047   7.604   7.332  16.599  0.7273 -0.1260  0.0069
 4951TIP3    H139048   7.669   7.334  16.669  0.6784  0.4842  0.0397
 4951TIP3    H239049   7.541   7.400  16.623  0.5335 -0.1352 -0.4620
 4952TIP3   OH239050   8.049   0.653  16.913  0.0260  0.0698 -0.0837
 4952TIP3    H139051   8.092   0.695  16.839 -2.5838  2.9264 -0.1332
 4952TIP3    H239052   7.985   0.594  16.874 -1.3749  1.6027 -0.2068
 4953TIP3   OH239053   6.458   5.101  16.699  0.2913  0.4170 -0.2896
 4953TIP3    H139054   6.515   5.092  16.775  0.7165  1.3600 -0.4838
 4953TIP3    H239055   6.376   5.135  16.735  0.4271  0.6790 -0.2247
 4954TIP3   OH239056   4.226   2.184  17.845  0.4234  0.1583  0.4604
 4954TIP3    H139057   4.139   2.212  17.871  0.7772  0.9456  0.8430
 4954TIP3    H239058   4.222   2.088  17.846 -0.1353  0.1761  1.5302
 4955TIP3   OH239059   2.678   5.061  17.367  0.2650  0.4147  0.3661
 4955TIP3    H139060   2.726   5.007  17.304 -0.8999 -0.1552 -0.0614
 4955TIP3    H239061   2.704   5.027  17.452 -0.5980 -0.9957  0.1005
 4956TIP3   OH239062   6.514   4.288  17.249 -0.0242  0.5336  0.0566
 4956TIP3    H139063   6.601   4.321  17.268  0.3436  0.3525 -1.1913
 4956TIP3    H239064   6.518   4.194  17.269 -0.2052  0.6832  0.8297
 4957TIP3   OH239065   4.342   3.135  17.591 -0.6298 -0.2960  0.6627
 4957TIP3    H139066   4.307   3.177  17.670  0.7430 -1.0165  1.6885
 4957TIP3    H239067   4.324   3.042  17.605 -3.4229 -0.2235 -1.4695
 4958TIP3   OH239068   6.645   5.974  16.511 -0.4327  0.0044 -0.1427
 4958TIP3    H139069   6.574   6.028  16.476  0.1469  0.6928 -0.2551
 4958TIP3    H239070   6.681   5.929  16.435 -0.4059  0.0509 -0.1569
 4959TIP3   OH239071   5.287   3.892  17.707 -0.3102  0.1537 -0.4722
 4959TIP3    H139072   5.344   3.968  17.715 -0.6166  0.3598 -0.2577
 4959TIP3    H239073   5.313   3.834  17.779 -1.5880  1.0425  0.7352
 4960TIP3   OH239074   4.358   0.435  16.258  0.8807  0.0525  0.3621
 4960TIP3    H139075   4.315   0.441  16.172 -0.9308  1.5990  1.3028
 4960TIP3    H239076   4.443   0.395  16.239  0.5468  0.3421 -2.1440
 4961TIP3   OH239077   1.205   7.140  18.297  0.1720  0.2181 -0.2825
 4961TIP3    H139078   1.257   7.113  18.372 -0.2187 -0.9533 -0.4059
 4961TIP3    H239079   1.254   7.213  18.259  0.5942  0.5386  0.8450
 4962TIP3   OH239080   7.758   7.895  16.121 -0.3914  0.2424 -0.2538
 4962TIP3    H139081   7.838   7.865  16.079 -0.2561  0.2746 -0.0226
 4962TIP3    H239082   7.766   7.865  16.212  0.2103  1.8321  0.2437
 4963TIP3   OH239083   7.657   3.375  17.525 -0.4801 -0.4409 -0.3579
 4963TIP3    H139084   7.671   3.459  17.569 -1.4903 -1.1514  1.4266
 4963TIP3    H239085   7.718   3.315  17.569 -0.4070 -0.8478 -1.0020
 4964TIP3   OH239086   3.808   6.929  16.197  0.2764 -0.0055 -0.2124
 4964TIP3    H139087   3.861   7.006  16.215  0.6977 -0.1416 -0.8175
 4964TIP3    H239088   3.804   6.926  16.101  0.6219 -0.9736 -0.2004
 4965TIP3   OH239089   7.749   6.484  17.529 -0.3883 -0.1998  0.3647
 4965TIP3    H139090   7.668   6.435  17.538 -0.0676 -1.0340 -0.9433
 4965TIP3    H239091   7.737   6.536  17.449 -1.0367  2.5752  2.1249
 4966TIP3   OH239092   0.676   1.661  15.407  0.1216  0.1460  0.0635
 4966TIP3    H139093   0.738   1.593  15.380 -0.1083 -1.0718  2.3724
 4966TIP3    H239094   0.605   1.654  15.344  0.3799 -1.3841 -0.1130
 4967TIP3   OH239095   0.697   7.920  17.465  0.3905 -0.2000  0.0934
 4967TIP3    H139096   0.786   7.890  17.480  0.6990  1.3738  1.7198
 4967TIP3    H239097   0.675   7.972  17.542 -3.0019 -2.8061  1.1673
 4968TIP3   OH239098   3.136   3.466  16.214 -0.2077  0.5423 -0.5143
 4968TIP3    H139099   3.162   3.547  16.170 -0.8400  0.2725 -1.4322
 4968TIP3    H239100   3.166   3.396  16.155 -1.4340  0.1864 -0.7544
 4969TIP3   OH239101   6.328   2.434  15.447 -0.3734 -0.0974 -0.0754
 4969TIP3    H139102   6.282   2.386  15.516  0.8626 -0.2878  0.6276
 4969TIP3    H239103   6.320   2.526  15.473  0.1450 -0.1732  0.3622
 4970TIP3   OH239104   8.188   6.382  17.585  0.1603 -0.4579  0.4822
 4970TIP3    H139105   8.237   6.385  17.503 -0.2277  1.6723  0.2603
 4970TIP3    H239106   8.161   6.291  17.594 -0.8796 -0.5418 -2.4361
 4971TIP3   OH239107   1.823   7.701  17.325 -0.0214  0.9407 -0.0146
 4971TIP3    H139108   1.740   7.750  17.327 -0.3495  0.3675  0.6851
 4971TIP3    H239109   1.847   7.691  17.417 -0.5468 -1.1712 -0.0571
 4972TIP3   OH239110   2.581   4.305  16.584  0.5182 -0.1255 -0.1210
 4972TIP3    H139111   2.490   4.330  16.605  0.2401 -1.2184 -0.0012
 4972TIP3    H239112   2.608   4.249  16.657  0.9890 -0.5362 -0.6064
 4973TIP3   OH239113   7.722   2.790  17.580 -0.1133 -0.2368  0.5824
 4973TIP3    H139114   7.693   2.719  17.638  0.1884 -0.9933 -0.1843
 4973TIP3    H239115   7.641   2.820  17.538  0.1466 -2.7049 -1.9579
 4974TIP3   OH239116   4.302   5.027  17.114  0.0078  0.0253 -0.1475
 4974TIP3    H139117   4.309   4.968  17.189 -2.5893 -0.2966 -0.0778
 4974TIP3    H239118   4.392   5.055  17.098  0.6812  0.1402  3.1013
 4975TIP3   OH239119   5.759   2.084  17.004  0.1507 -0.6197 -0.1512
 4975TIP3    H139120   5.794   2.117  16.921  0.5881  1.1587  0.6910
 4975TIP3    H239121   5.672   2.050  16.982  1.3321 -2.8350 -1.8265
 4976TIP3   OH239122   0.185   3.553  16.366  0.3189 -0.2741  1.2057
 4976TIP3    H139123   0.190   3.495  16.442  1.7593 -0.4805  0.9811
 4976TIP3    H239124   0.169   3.494  16.292  0.4247 -0.2330  1.1503
 4977TIP3   OH239125   6.072   4.089  17.006 -0.5964  0.1531 -0.7307
 4977TIP3    H139126   6.092   4.177  16.974 -0.4289  0.5220  0.3286
 4977TIP3    H239127   5.977   4.082  17.000 -0.9095  1.4233  1.5533
 4978TIP3   OH239128   2.996   4.451  16.291  0.5303  0.1433 -0.2594
 4978TIP3    H139129   3.012   4.357  16.278 -2.2796 -0.2900 -1.0955
 4978TIP3    H239130   2.985   4.486  16.203  0.0056  0.9622  0.1264
 4979TIP3   OH239131   3.916   7.718  17.394  0.5886  0.5282 -0.1603
 4979TIP3    H139132   3.874   7.671  17.321 -2.0381 -0.7299  1.9973
 4979TIP3    H239133   3.997   7.669  17.410 -0.1300 -0.8387 -0.5309
 4980TIP3   OH239134   1.410   1.611  17.105 -0.7272 -0.7487  0.2277
 4980TIP3    H139135   1.436   1.692  17.150 -2.1820 -0.3590  0.4280
 4980TIP3    H239136   1.318   1.599  17.130 -1.2002 -1.2165 -1.6117
 4981TIP3   OH239137   1.842   8.243  17.274  0.4289 -0.0539  0.1014
 4981TIP3    H139138   1.868   8.198  17.354 -2.8426  0.3423  1.5218
 4981TIP3    H239139   1.801   8.175  17.221  1.0821  0.0424 -0.5508
 4982TIP3   OH239140   6.540   8.285  15.885 -0.2983  0.1499  0.0429
 4982TIP3    H139141   6.546   8.356  15.822 -1.1147  0.7068  0.5542
 4982TIP3    H239142   6.473   8.315  15.947 -0.9066 -1.2155  0.0781
 4983TIP3   OH239143   3.624   7.202  17.098  0.3192 -0.2250 -0.2379
 4983TIP3    H139144   3.612   7.251  17.017 -1.0082 -0.8147 -0.4205
 4983TIP3    H239145   3.624   7.270  17.166  1.8617  0.3140 -0.7219
 4984TIP3   OH239146   6.184   4.985  16.085  0.5056  0.3420  0.4185
 4984TIP3    H139147   6.235   4.922  16.135  1.1508  1.1027  0.7302
 4984TIP3    H239148   6.093   4.963  16.105  0.7524  0.4726  1.7294
 4985TIP3   OH239149   8.295   4.954  16.215  0.1467 -0.5409 -0.0526
 4985TIP3    H139150   8.338   4.907  16.286  0.4485 -0.8669 -0.4480
 4985TIP3    H239151   8.202   4.942  16.231  0.2137 -0.5408  0.3368
 4986TIP3   OH239152   1.009   2.071  16.866 -0.1448  0.2957  0.0756
 4986TIP3    H139153   1.020   1.983  16.831  1.2270  0.6310 -0.3976
 4986TIP3    H239154   0.991   2.058  16.959 -1.4667 -0.5128 -0.2655
 4987TIP3   OH239155   1.019   2.418  15.448  0.7089 -0.2036 -0.5274
 4987TIP3    H139156   0.958   2.358  15.403  1.7144 -1.2709 -0.5292
 4987TIP3    H239157   0.964   2.490  15.478 -0.6977 -1.5002  0.1575
 4988TIP3   OH239158   7.488   4.808  16.691 -0.3412  0.1748  0.7055
 4988TIP3    H139159   7.440   4.725  16.687 -0.1843  0.0806 -2.7532
 4988TIP3    H239160   7.426   4.873  16.660  0.5120  0.7691  0.2144
 4989TIP3   OH239161   4.011   0.097  15.963 -0.2832 -0.3159 -0.0748
 4989TIP3    H139162   3.951   0.156  16.008  0.0506  0.0446 -0.0967
 4989TIP3    H239163   4.086   0.152  15.939  0.5169 -0.9689  0.8343
 4990TIP3   OH239164   2.585   1.561  17.042 -0.2494 -0.1001  0.0175
 4990TIP3    H139165   2.600   1.537  17.134 -1.9122 -0.1344  0.3124
 4990TIP3    H239166   2.534   1.641  17.047 -1.8212 -1.0062 -0.8349
 4991TIP3   OH239167   8.185   8.268  16.030 -0.1106 -0.0292 -0.3060
 4991TIP3    H139168   8.117   8.203  16.012  0.5822 -1.1086  0.8403
 4991TIP3    H239169   8.263   8.216  16.051  0.0697  1.1154  2.1764
 4992TIP3   OH239170   3.111   1.203  16.768  0.0445 -0.0595  0.4022
 4992TIP3    H139171   3.074   1.214  16.680 -1.6480  0.6299  1.1600
 4992TIP3    H239172   3.192   1.253  16.766 -0.6266  1.0325 -0.3920
 4993TIP3   OH239173   0.512   6.821  15.734  0.8696 -0.1129 -0.2788
 4993TIP3    H139174   0.552   6.899  15.695  1.0224  0.8546  1.7071
 4993TIP3    H239175   0.456   6.786  15.665  1.0318  1.5748 -1.3220
 4994TIP3   OH239176   1.726   0.854  15.709  0.2263  0.0839  0.0320
 4994TIP3    H139177   1.740   0.946  15.730  0.5818  0.2553 -0.9346
 4994TIP3    H239178   1.769   0.806  15.780  0.4721  0.6575  0.2701
 4995TIP3   OH239179   5.809   3.457  17.364 -0.4216  0.4588  0.5400
 4995TIP3    H139180   5.723   3.454  17.323 -0.3964  0.4082  0.4894
 4995TIP3    H239181   5.868   3.424  17.297 -0.6218 -1.4741  1.2595
 4996TIP3   OH239182   4.528   0.147  17.342 -0.2422 -0.0454  0.7053
 4996TIP3    H139183   4.454   0.192  17.383  0.2382  0.5424  0.9524
 4996TIP3    H239184   4.513   0.157  17.248 -0.1600  0.6356  0.7532
 4997TIP3   OH239185   8.436   0.322  15.917  0.2764  0.1605  0.2582
 4997TIP3    H139186   8.383   0.244  15.933  0.8389 -0.3070 -0.0978
 4997TIP3    H239187   8.373   0.392  15.904 -0.2242 -0.0164  1.6239
 4998TIP3   OH239188   3.354   7.771  17.316 -0.2680  0.0981  0.4443
 4998TIP3    H139189   3.399   7.799  17.395  0.9245 -0.0363 -0.1671
 4998TIP3    H239190   3.283   7.834  17.305  0.4057  0.9563  0.8593
 4999TIP3   OH239191   2.457   5.492  16.299 -0.2257 -0.0828 -0.6715
 4999TIP3    H139192   2.471   5.556  16.229 -0.3725 -0.5416 -1.1201
 4999TIP3    H239193   2.465   5.407  16.256 -0.6427 -0.3657 -0.1909
 5000TIP3   OH239194   7.058   2.673  16.239  0.3160 -0.1775  0.7412
 5000TIP3    H139195   7.034   2.645  16.327 -2.7681 -0.0408  0.0591
 5000TIP3    H239196   7.013   2.757  16.228  3.0277  1.3104  0.0003
 5001TIP3   OH239197   4.294   8.088  16.777 -0.7036 -0.0500  0.6626
 5001TIP3    H139198   4.322   8.055  16.692 -1.5120  1.1405 -0.0956
 5001TIP3    H239199   4.367   8.068  16.836  0.6361  0.6728 -0.6863
 5002TIP3   OH239200   5.688   7.155  17.373 -0.7778 -0.3880  0.4491
 5002TIP3    H139201   5.739   7.230  17.404 -0.2319 -0.9208  0.8645
 5002TIP3    H239202   5.628   7.192  17.308 -0.9650  0.5202  1.1135
 5003TIP3   OH239203   0.100   2.750  15.735  0.3443 -0.1680  0.4120
 5003TIP3    H139204   0.152   2.670  15.727 -0.4165 -0.6536  0.2264
 5003TIP3    H239205   0.105   2.791  15.649  1.4589  0.4557  0.7513
 5004TIP3   OH239206   6.621   5.919  17.376  0.1553 -0.2658  0.2267
 5004TIP3    H139207   6.588   6.005  17.401  1.0487 -0.1370  1.0044
 5004TIP3    H239208   6.542   5.864  17.369 -0.6148  0.9826 -1.9554
 5005TIP3   OH239209   2.365   2.960  16.741  0.2858  0.3924  0.3976
 5005TIP3    H139210   2.304   2.980  16.812 -1.3735 -0.7043 -0.6355
 5005TIP3    H239211   2.315   2.978  16.661  1.2841 -0.6286 -0.4927
 5006TIP3   OH239212   6.587   6.315  15.737 -0.5795  0.2844 -0.5988
 5006TIP3    H139213   6.547   6.402  15.736  0.0432  0.5757 -0.6188
 5006TIP3    H239214   6.681   6.331  15.725 -0.5114 -0.4213 -1.1083
 5007TIP3   OH239215   0.693   8.290  16.039  0.0995  0.5176  0.0713
 5007TIP3    H139216   0.742   8.332  15.969  0.2403  0.4848  0.1484
 5007TIP3    H239217   0.661   8.208  16.002 -0.0280  0.6118 -0.0281
 5008TIP3   OH239218   5.020   3.193  17.251 -0.1343 -0.3160  0.3430
 5008TIP3    H139219   5.063   3.125  17.199  1.2149 -0.8675  2.0773
 5008TIP3    H239220   5.056   3.183  17.339 -3.9538 -0.9142  2.0419
 5009TIP3   OH239221   0.262   2.773  17.703  0.0925 -0.4093 -0.2516
 5009TIP3    H139222   0.192   2.761  17.768 -0.8385 -0.0792 -1.1664
 5009TIP3    H239223   0.340   2.789  17.755 -0.4814 -0.9128  0.8051
 5010TIP3   OH239224   1.939   5.722  17.118 -0.1772 -0.0600  0.6665
 5010TIP3    H139225   1.978   5.784  17.180 -0.2907  0.5010  0.1889
 5010TIP3    H239226   1.970   5.752  17.032  0.3334 -1.0842  0.4796
 5011TIP3   OH239227   7.838   2.982  16.077  0.1731 -0.0756 -0.6170
 5011TIP3    H139228   7.865   2.905  16.027 -1.2639 -0.7841 -0.3683
 5011TIP3    H239229   7.783   2.946  16.148 -0.6642  1.1760 -0.6058
 5012TIP3   OH239230   3.966   5.604  17.368  0.4174 -0.2994  0.3907
 5012TIP3    H139231   3.885   5.646  17.339  0.7828  2.2176  2.5841
 5012TIP3    H239232   3.941   5.514  17.390 -1.3949 -0.0416 -0.4958
 5013TIP3   OH239233   3.213   3.186  17.424  0.1588 -0.4302 -0.1950
 5013TIP3    H139234   3.172   3.160  17.507  0.1684 -1.9657 -0.6463
 5013TIP3    H239235   3.148   3.241  17.382 -0.5902 -1.1023  0.0512
 5014TIP3   OH239236   6.922   0.101  16.982 -0.3767  0.2878 -0.0958
 5014TIP3    H139237   7.013   0.131  16.989  0.0574 -0.9756 -0.1754
 5014TIP3    H239238   6.909   0.081  16.890 -0.1912 -1.1602  0.1743
 5015TIP3   OH239239   2.690   1.168  16.848 -0.2094  0.4807  0.1291
 5015TIP3    H139240   2.608   1.120  16.835 -0.7877  1.4118  0.2430
 5015TIP3    H239241   2.718   1.192  16.760  1.1454 -1.7216 -0.1234
 5016TIP3   OH239242   3.176   2.357  16.413  0.1554 -0.0886 -0.1767
 5016TIP3    H139243   3.100   2.384  16.465  0.7931 -0.5471  1.0301
 5016TIP3    H239244   3.240   2.427  16.425  0.5943 -0.5628  0.3007
 5017TIP3   OH239245   1.923   6.079  15.679 -0.2683 -0.0812 -0.1293
 5017TIP3    H139246   1.952   6.144  15.617 -0.7247 -0.4362 -0.7287
 5017TIP3    H239247   1.829   6.069  15.662  0.0501 -1.9790 -1.0996
 5018TIP3   OH239248   7.460   3.706  17.434 -0.6467  0.2881  0.5822
 5018TIP3    H139249   7.450   3.611  17.430 -0.2236  0.2846 -0.8686
 5018TIP3    H239250   7.406   3.739  17.363  0.0084  1.0654  0.4325
 5019TIP3   OH239251   6.974   2.981  16.786 -0.2874  0.8135  0.3310
 5019TIP3    H139252   6.932   2.904  16.749  0.3471  0.9060 -0.6287
 5019TIP3    H239253   6.991   2.958  16.877 -2.0389  0.6438  0.6518
 5020TIP3   OH239254   4.682   0.069  16.955 -0.5980  0.1445  0.2105
 5020TIP3    H139255   4.589   0.089  16.946 -0.4517  0.7989  0.1367
 5020TIP3    H239256   4.701   0.013  16.880 -0.3604  2.1072 -1.2804
 5021TIP3   OH239257   7.708   7.831  16.406  0.5032 -0.6797  0.3112
 5021TIP3    H139258   7.741   7.874  16.485  2.0146 -0.0370 -0.6129
 5021TIP3    H239259   7.613   7.831  16.415  0.6634 -2.2854  2.9618
 5022TIP3   OH239260   0.133   3.416  17.682  0.0808 -0.1060  0.0679
 5022TIP3    H139261   0.099   3.336  17.720 -0.8569  0.2601  0.0272
 5022TIP3    H239262   0.092   3.487  17.731  1.0851  0.3619  0.2698
 5023TIP3   OH239263   3.614   7.325  16.108  0.1430 -0.1741 -0.1912
 5023TIP3    H139264   3.710   7.329  16.108  0.2216 -1.4702 -0.6606
 5023TIP3    H239265   3.587   7.386  16.040  0.3809  3.3381  2.5633
 5024TIP3   OH239266   8.017   5.404  17.350 -0.2759  0.4560  0.5689
 5024TIP3    H139267   8.095   5.438  17.306 -0.0101 -0.3174  0.4296
 5024TIP3    H239268   8.044   5.320  17.386 -1.5194 -0.6794 -1.0022
 5025TIP3   OH239269   5.454   1.659  17.763 -0.3306 -0.2201 -0.3107
 5025TIP3    H139270   5.450   1.720  17.689 -0.1423 -2.9368 -2.7545
 5025TIP3    H239271   5.545   1.662  17.791 -0.0274 -0.2483 -1.2450
 5026TIP3   OH239272   4.714   1.096  17.446  0.1129  0.4728  0.6573
 5026TIP3    H139273   4.698   1.001  17.443 -1.2735  0.6902  0.6517
 5026TIP3    H239274   4.696   1.126  17.358  0.1317  0.8007  0.7659
 5027TIP3   OH239275   8.162   2.657  17.382 -0.1745  0.1425  0.0294
 5027TIP3    H139276   8.166   2.747  17.415  1.4338 -0.4049  1.4195
 5027TIP3    H239277   8.069   2.634  17.390 -0.7067  1.7869 -0.7520
 5028TIP3   OH239278   2.449   5.939  16.613 -0.0988  0.4423 -0.1581
 5028TIP3    H139279   2.362   5.920  16.647 -0.0928 -0.0811 -0.4177
 5028TIP3    H239280   2.442   6.027  16.576 -1.2512 -0.4933 -2.4189
 5029TIP3   OH239281   5.033   5.396  16.393  0.0650  0.3217  0.6950
 5029TIP3    H139282   5.127   5.415  16.397  0.1573 -0.1520  0.8666
 5029TIP3    H239283   5.020   5.354  16.309 -0.1313  1.0871  0.3365
 5030TIP3   OH239284   2.949   6.680  17.288 -0.3439  0.3253 -0.4720
 5030TIP3    H139285   2.982   6.770  17.294  0.2784  0.1280 -0.8167
 5030TIP3    H239286   2.938   6.665  17.194  0.6858 -0.3411 -0.5084
 5031TIP3   OH239287   1.706   6.921  16.923  0.2229 -0.6080 -0.1027
 5031TIP3    H139288   1.649   6.990  16.956  2.0603  0.2752  1.4652
 5031TIP3    H239289   1.655   6.840  16.931 -1.4053  0.3420 -0.5057
 5032TIP3   OH239290   7.172   8.244  16.504 -0.2523 -0.1018  0.3044
 5032TIP3    H139291   7.232   8.204  16.441  0.8494 -1.2024  1.9883
 5032TIP3    H239292   7.129   8.171  16.547  1.3580  0.4399  3.0255
 5033TIP3   OH239293   0.026   2.286  16.419 -0.2307 -0.2348  0.1355
 5033TIP3    H139294  -0.029   2.358  16.387 -1.4234 -1.5658 -0.9044
 5033TIP3    H239295   0.086   2.328  16.481 -1.1879  1.5752 -0.0987
 5034TIP3   OH239296   1.142   3.192  15.672  0.4818 -0.3838  0.7035
 5034TIP3    H139297   1.054   3.213  15.640  0.4703 -1.1283  0.2081
 5034TIP3    H239298   1.192   3.272  15.660 -0.1487  0.0663  1.0482
 5035TIP3   OH239299   1.113   3.556  15.384  0.1700  0.2314 -0.2189
 5035TIP3    H139300   1.192   3.521  15.425  1.2564  1.9459 -0.7130
 5035TIP3    H239301   1.130   3.551  15.290 -0.6546 -0.1115 -0.3586
 5036TIP3   OH239302   6.024   5.333  17.675  0.1333 -0.1969  0.2475
 5036TIP3    H139303   6.072   5.380  17.606 -1.0459 -2.3588 -2.2004
 5036TIP3    H239304   6.071   5.251  17.685 -0.8046 -0.6947  0.6625
 5037TIP3   OH239305   1.652   4.603  17.611 -0.7381 -0.3949  0.0131
 5037TIP3    H139306   1.561   4.604  17.641 -0.7021  0.7469  0.1544
 5037TIP3    H239307   1.662   4.686  17.564  0.2563 -0.4605  0.0954
 5038TIP3   OH239308   6.283   3.222  15.472  0.3509 -0.0623  0.2306
 5038TIP3    H139309   6.371   3.191  15.490  0.3724  0.2992  0.7722
 5038TIP3    H239310   6.289   3.317  15.480  0.4115  0.1536 -1.9327
 5039TIP3   OH239311   0.900   0.130  17.416 -0.0997 -0.1106 -0.1569
 5039TIP3    H139312   0.982   0.087  17.440 -0.5548 -2.0851 -1.8995
 5039TIP3    H239313   0.845   0.061  17.380 -1.7699  1.5174 -0.9373
 5040TIP3   OH239314   7.244   1.625  16.553 -0.0091 -0.4773  0.1171
 5040TIP3    H139315   7.171   1.660  16.604  0.8585  3.1793 -0.8840
 5040TIP3    H239316   7.210   1.543  16.515 -2.3104 -0.7349  2.4524
 5041TIP3   OH239317   5.817   5.105  16.460  0.0626  0.3482  0.0096
 5041TIP3    H139318   5.862   5.118  16.544 -0.0394  1.1257 -0.0540
 5041TIP3    H239319   5.871   5.040  16.415 -0.5563 -1.0207  1.1663
 5042TIP3   OH239320   4.793   8.136  16.086 -0.3719  0.3251 -0.2858
 5042TIP3    H139321   4.731   8.126  16.159 -1.4344  0.1952 -1.1954
 5042TIP3    H239322   4.763   8.213  16.039 -1.5129 -1.2248 -2.2828
 5043TIP3   OH239323   7.415   3.457  17.996 -0.0742  0.2413 -0.0290
 5043TIP3    H139324   7.332   3.496  18.021  0.7297  2.0092  0.0112
 5043TIP3    H239325   7.469   3.462  18.076 -0.4251 -2.4603  0.4730
 5044TIP3   OH239326   4.747   7.763  15.796 -0.2332 -0.0701 -0.5385
 5044TIP3    H139327   4.690   7.693  15.826  0.5834 -0.4252  0.2119
 5044TIP3    H239328   4.816   7.719  15.746 -0.2359  0.2971 -0.8776
 5045TIP3   OH239329   8.055   0.832  15.991 -0.4096  0.2173  0.7607
 5045TIP3    H139330   8.100   0.789  16.064 -2.1644 -0.9967  1.2074
 5045TIP3    H239331   8.125   0.862  15.934  1.0637  1.8681  3.2492
 5046TIP3   OH239332   6.603   1.826  16.954  0.1805 -0.3120 -0.4186
 5046TIP3    H139333   6.560   1.906  16.984 -0.4143 -0.3652 -1.0912
 5046TIP3    H239334   6.593   1.829  16.859  1.6248 -0.3560 -0.5939
 5047TIP3   OH239335   7.839   6.252  16.981 -0.4011 -0.1079 -0.0727
 5047TIP3    H139336   7.888   6.333  16.993  0.9178 -0.8698 -0.0731
 5047TIP3    H239337   7.747   6.278  16.986 -0.0138  1.4443 -0.5354
 5048TIP3   OH239338   0.893   7.668  16.396  0.1935  0.0796  0.6074
 5048TIP3    H139339   0.956   7.603  16.365  1.4612  0.6219  1.9418
 5048TIP3    H239340   0.935   7.753  16.380 -0.1921  0.4518  1.4739
 5049TIP3   OH239341   5.837   3.415  17.829  0.3625  0.2999 -0.5284
 5049TIP3    H139342   5.894   3.339  17.829 -0.0739 -0.0800  1.2649
 5049TIP3    H239343   5.888   3.484  17.786  1.1859 -0.6907 -1.1794
 5050TIP3   OH239344   1.577   1.475  16.628 -0.3880 -0.5142  0.6810
 5050TIP3    H139345   1.589   1.467  16.723 -0.1338  2.0598  0.9340
 5050TIP3    H239346   1.658   1.442  16.591  0.4952  0.6323  1.5135
 5051TIP3   OH239347   4.280   4.311  16.975  0.0478  0.0997 -0.1394
 5051TIP3    H139348   4.265   4.375  17.045  2.0913 -0.6389  1.0658
 5051TIP3    H239349   4.192   4.282  16.950 -0.7866  1.0691  1.4711
 5052TIP3   OH239350   0.760   2.973  17.791 -0.0759 -0.5285 -0.0868
 5052TIP3    H139351   0.723   3.057  17.818 -0.2309 -0.5363 -0.2687
 5052TIP3    H239352   0.836   2.997  17.737 -1.7181 -0.4191 -2.5068
 5053TIP3   OH239353   2.116   0.843  15.862 -0.1951  0.9251 -0.0241
 5053TIP3    H139354   2.190   0.831  15.802  1.3250  0.4749  1.8406
 5053TIP3    H239355   2.068   0.918  15.826  1.8473  1.9889 -0.6707
 5054TIP3   OH239356   6.886   3.488  16.650  0.0709 -0.5477  0.4525
 5054TIP3    H139357   6.892   3.404  16.695 -0.0633 -0.9933 -0.3389
 5054TIP3    H239358   6.952   3.483  16.581 -1.0025 -0.6304 -0.5957
 5055TIP3   OH239359   6.584   4.768  16.639  0.1461 -0.0678  0.2881
 5055TIP3    H139360   6.501   4.812  16.621  0.0763 -0.7290 -1.1050
 5055TIP3    H239361   6.638   4.835  16.680 -0.5062  0.8650 -0.3446
 5056TIP3   OH239362   3.546   5.609  16.726 -0.1660  0.0514  0.4455
 5056TIP3    H139363   3.527   5.701  16.744  0.6976  1.0374 -2.9594
 5056TIP3    H239364   3.480   5.560  16.775 -2.1648  2.6072  0.4966
 5057TIP3   OH239365   3.807   6.151  17.200  0.1438  0.0440 -0.1251
 5057TIP3    H139366   3.813   6.244  17.177  1.1292  0.1171  0.3855
 5057TIP3    H239367   3.888   6.113  17.168 -0.7427 -0.9066 -1.3666
 5058TIP3   OH239368   3.874   5.355  17.457 -0.1091  0.6331 -0.0457
 5058TIP3    H139369   3.879   5.260  17.466 -1.4996  0.4882 -0.5210
 5058TIP3    H239370   3.854   5.386  17.545 -1.7399  0.2739 -0.2521
 5059TIP3   OH239371   3.654   2.872  15.620 -0.3982  0.4192  0.0610
 5059TIP3    H139372   3.667   2.777  15.624 -0.3963  0.3831 -0.7197
 5059TIP3    H239373   3.697   2.899  15.539 -1.1149  0.9778 -0.1431
 5060TIP3   OH239374   0.535   2.572  16.826 -0.6412 -0.2950 -0.5061
 5060TIP3    H139375   0.484   2.552  16.904 -0.1321 -1.7653 -0.5245
 5060TIP3    H239376   0.486   2.641  16.782 -0.4759  1.2378  1.5622
 5061TIP3   OH239377   0.833   0.711  15.970 -0.2976 -0.8581 -0.1817
 5061TIP3    H139378   0.808   0.636  15.916  0.8790 -1.3211 -0.1168
 5061TIP3    H239379   0.929   0.713  15.965  0.0279 -1.9351  3.1924
 5062TIP3   OH239380   0.839   3.793  17.430  0.1172 -0.0484 -0.3148
 5062TIP3    H139381   0.770   3.798  17.364 -3.0895 -0.2726  2.7332
 5062TIP3    H239382   0.793   3.788  17.513  3.8071 -2.5053  1.8983
 5063TIP3   OH239383   0.933   3.118  15.392 -0.7619  0.2540  0.0916
 5063TIP3    H139384   0.981   3.146  15.314 -0.0818  0.0849  0.4390
 5063TIP3    H239385   0.944   3.023  15.394  1.1732  0.4435  1.6044
 5064TIP3   OH239386   4.551   5.266  16.484 -0.0485  0.0245 -0.3438
 5064TIP3    H139387   4.543   5.323  16.408  0.5687 -0.2793 -0.6399
 5064TIP3    H239388   4.551   5.177  16.449 -0.8631 -0.1604  0.1045
 5065TIP3   OH239389   0.451   1.691  16.981  0.3654 -0.4935  0.5734
 5065TIP3    H139390   0.509   1.623  17.014  2.1704 -0.5780 -2.4571
 5065TIP3    H239391   0.369   1.645  16.961  0.2621 -0.9790  1.9929
 5066TIP3   OH239392   2.592   4.599  16.772 -0.8067  0.0745  0.8110
 5066TIP3    H139393   2.502   4.568  16.762 -1.2223  1.3684  0.3161
 5066TIP3    H239394   2.607   4.655  16.696  0.8122 -0.9735  0.3005
 5067TIP3   OH239395   2.579   7.407  16.315 -0.1765  0.2567 -0.4990
 5067TIP3    H139396   2.514   7.431  16.250  0.5082 -0.6088 -1.5231
 5067TIP3    H239397   2.656   7.382  16.265 -0.2213 -2.2352  0.5442
 5068TIP3   OH239398   4.962   5.835  16.788  0.2529  0.6842 -0.5845
 5068TIP3    H139399   4.984   5.851  16.880 -0.8681  1.8284 -0.4916
 5068TIP3    H239400   5.024   5.767  16.760  0.4260  0.1096  1.0880
 5069TIP3   OH239401   3.502   6.640  17.353 -0.2336 -0.2891  0.2928
 5069TIP3    H139402   3.411   6.611  17.354 -0.0092 -1.1282 -0.9832
 5069TIP3    H239403   3.545   6.584  17.289  1.7919 -1.6096  2.6341
 5070TIP3   OH239404   5.276   2.092  16.901  0.2941 -0.1973 -1.1407
 5070TIP3    H139405   5.296   2.159  16.967 -0.1741 -1.5322  0.4156
 5070TIP3    H239406   5.184   2.071  16.917  0.1247 -0.4294 -2.3583
 5071TIP3   OH239407   1.300   1.115  16.107 -0.4292  0.6920 -0.4301
 5071TIP3    H139408   1.390   1.142  16.125  0.3390 -1.9561  0.0854
 5071TIP3    H239409   1.255   1.123  16.191  0.2129 -0.9959  0.1153
 5072TIP3   OH239410   3.083   6.142  18.059 -0.1578 -0.0196 -0.1221
 5072TIP3    H139411   3.171   6.166  18.029  0.4118 -1.5290  0.2268
 5072TIP3    H239412   3.025   6.169  17.989  0.7896 -0.5451 -1.1501
 5073TIP3   OH239413   1.390   0.118  16.733  0.0272  0.0034 -0.3388
 5073TIP3    H139414   1.295   0.106  16.736 -0.0377  0.1394 -1.3203
 5073TIP3    H239415   1.426   0.050  16.790 -0.6457 -0.2778 -0.2478
 5074TIP3   OH239416   7.225   5.125  17.812  0.2784  0.4967  0.0131
 5074TIP3    H139417   7.250   5.142  17.721 -0.6930 -1.5710 -0.7085
 5074TIP3    H239418   7.134   5.154  17.817 -0.5001 -1.7207 -0.4570
 5075TIP3   OH239419   4.363   1.616  17.049  0.4090 -0.6401  0.0354
 5075TIP3    H139420   4.445   1.616  17.098 -0.4374 -0.9162  1.5202
 5075TIP3    H239421   4.378   1.678  16.978  1.5287  0.1788  0.9339
 5076TIP3   OH239422   8.101   7.770  16.989  0.3803 -0.1994  0.7997
 5076TIP3    H139423   8.092   7.692  17.043  0.0149 -1.2279 -0.6802
 5076TIP3    H239424   8.194   7.793  16.994  0.4581 -0.6145  1.3649
 5077TIP3   OH239425   3.328   5.169  15.355  0.2454 -0.1412  0.0985
 5077TIP3    H139426   3.276   5.188  15.277 -2.0587 -1.3874  1.2321
 5077TIP3    H239427   3.389   5.101  15.327  1.1221  1.1184 -1.1873
 5078TIP3   OH239428   1.834   3.934  17.539  0.3944  0.5773  0.0283
 5078TIP3    H139429   1.906   3.991  17.511  0.4667  0.6417  0.3398
 5078TIP3    H239430   1.756   3.974  17.500  0.2973  1.5392  1.1289
 5079TIP3   OH239431   2.532   2.405  16.294  0.4067  0.4306  0.0481
 5079TIP3    H139432   2.531   2.460  16.215  0.0831  1.2476  0.6085
 5079TIP3    H239433   2.472   2.333  16.274 -1.4756  1.8563  0.3860
 5080TIP3   OH239434   2.576   1.484  16.427 -0.3787  0.3504  0.4625
 5080TIP3    H139435   2.576   1.529  16.511 -1.2726  0.7287  0.2774
 5080TIP3    H239436   2.642   1.529  16.375  0.7608 -0.4124  1.2213
 5081TIP3   OH239437   0.195   1.799  15.209 -0.3892 -0.5860 -0.4214
 5081TIP3    H139438   0.262   1.743  15.249 -0.2494 -1.2250 -1.5050
 5081TIP3    H239439   0.119   1.742  15.201 -1.1344  0.1727  0.9114
 5082TIP3   OH239440   5.711   6.681  17.019 -0.4962  0.0342 -0.5076
 5082TIP3    H139441   5.634   6.710  17.068  0.5695  1.1519  0.5866
 5082TIP3    H239442   5.785   6.712  17.071  0.8091 -4.0846  0.4413
 5083TIP3   OH239443   4.199   6.957  17.519 -0.0468  0.0749  0.2012
 5083TIP3    H139444   4.199   7.052  17.506  0.8549  0.0899  0.2371
 5083TIP3    H239445   4.215   6.946  17.613  0.8350 -0.1138  0.0385
 5084TIP3   OH239446   6.815   3.062  16.345  0.0569  0.3175  0.1372
 5084TIP3    H139447   6.778   3.149  16.359 -1.2093 -0.5003  2.5773
 5084TIP3    H239448   6.908   3.071  16.370 -0.3531  0.7507  1.6306
 5085TIP3   OH239449   6.488   3.158  16.658 -0.5120  0.0793  0.2122
 5085TIP3    H139450   6.546   3.132  16.730 -0.4266 -1.0388 -0.2327
 5085TIP3    H239451   6.434   3.080  16.642  0.0958 -0.0138 -1.5199
 5086TIP3   OH239452   0.848   1.606  15.777  0.1503 -0.2453  0.1155
 5086TIP3    H139453   0.792   1.581  15.704 -0.7313 -0.2312  0.7645
 5086TIP3    H239454   0.916   1.539  15.780 -0.7064 -1.1324  0.2443
 5087TIP3   OH239455   7.884   2.266  17.621  0.2091  0.0497 -0.1439
 5087TIP3    H139456   7.788   2.267  17.621  0.1982 -0.5051 -0.1539
 5087TIP3    H239457   7.907   2.187  17.670  0.6812  0.7305  0.7549
 5088TIP3   OH239458   5.255   8.070  17.355 -0.0218 -0.2389 -0.3363
 5088TIP3    H139459   5.319   8.010  17.394  0.0532 -1.2025 -1.8517
 5088TIP3    H239460   5.255   8.048  17.262 -2.4158 -0.1188 -0.4264
 5089TIP3   OH239461   6.576   0.597  17.231 -0.0316  0.2668  0.4241
 5089TIP3    H139462   6.483   0.611  17.211 -0.5265 -0.9695  1.6792
 5089TIP3    H239463   6.586   0.502  17.228  1.9212  0.4332 -2.6267
 5090TIP3   OH239464   2.075   7.917  16.064  0.9250  0.6249  0.1495
 5090TIP3    H139465   2.022   7.978  16.014  0.1510  0.0341  0.2355
 5090TIP3    H239466   2.020   7.891  16.137  1.1674 -0.3169  0.0125
 5091TIP3   OH239467   5.921   3.310  15.801  0.5725  0.1771 -0.3596
 5091TIP3    H139468   5.827   3.292  15.804  0.4371  0.4113 -2.3181
 5091TIP3    H239469   5.935   3.354  15.718  2.1009  2.2010  0.8648
 5092TIP3   OH239470   7.945   3.561  16.702  0.0607  0.7437  0.2742
 5092TIP3    H139471   8.037   3.588  16.710  1.4750 -2.9365 -1.1532
 5092TIP3    H239472   7.942   3.510  16.621 -3.0931  0.0909  0.6784
 5093TIP3   OH239473   5.463   6.042  17.097  0.2785  0.3096  0.1380
 5093TIP3    H139474   5.477   5.953  17.128 -0.0395 -0.9061 -2.8728
 5093TIP3    H239475   5.425   6.088  17.173 -1.1762 -2.5633  1.3090
 5094TIP3   OH239476   2.198   3.085  16.171  0.1171  0.0490  0.1828
 5094TIP3    H139477   2.188   3.139  16.249  0.3407 -0.8637  0.8579
 5094TIP3    H239478   2.121   3.104  16.118  0.0868  0.8582  0.4992
 5095TIP3   OH239479   5.337   0.631  16.539 -0.3979  0.5010  0.4900
 5095TIP3    H139480   5.421   0.676  16.537 -0.4001  0.5405 -2.1609
 5095TIP3    H239481   5.278   0.692  16.583  0.6629  0.9943  1.2767
 5096TIP3   OH239482   8.184   3.308  18.255  0.4045  0.0603  0.3821
 5096TIP3    H139483   8.269   3.280  18.289  0.9587  0.3467 -0.7322
 5096TIP3    H239484   8.205   3.362  18.179 -0.7914 -0.4942 -0.3759
 5097TIP3   OH239485   6.505   0.683  15.984 -0.6891  0.4926 -0.2604
 5097TIP3    H139486   6.488   0.710  15.893 -2.9010 -0.4170 -0.1815
 5097TIP3    H239487   6.506   0.587  15.980  0.1395  0.4650  0.5362
 5098TIP3   OH239488   5.394   1.591  17.078 -0.4418 -0.2389  0.1057
 5098TIP3    H139489   5.482   1.617  17.051 -0.7885  0.0977 -0.7361
 5098TIP3    H239490   5.389   1.498  17.057 -0.5658 -0.0720 -0.6120
 5099TIP3   OH239491   0.282   6.405  16.236  0.0901 -0.3317  0.2565
 5099TIP3    H139492   0.323   6.451  16.163 -0.2640 -0.3670  0.0363
 5099TIP3    H239493   0.334   6.431  16.312 -0.5657  1.0624  0.2652
 5100TIP3   OH239494   8.216   0.365  17.714  0.2241  0.2226  0.2536
 5100TIP3    H139495   8.288   0.302  17.722  0.2566  0.2886  0.4825
 5100TIP3    H239496   8.149   0.333  17.775  0.1136  0.2364  0.1408
 5101TIP3   OH239497   6.764   6.788  16.135 -0.8122 -0.7961  0.8761
 5101TIP3    H139498   6.706   6.848  16.089 -0.0836  0.1267  1.1300
 5101TIP3    H239499   6.765   6.709  16.080 -0.3924  0.0722 -0.4314
 5102TIP3   OH239500   7.923   2.121  17.157  0.8569 -0.3138  0.2211
 5102TIP3    H139501   7.992   2.150  17.217 -0.4130 -1.8130  2.5527
 5102TIP3    H239502   7.888   2.042  17.198 -0.7828 -0.8214 -2.0338
 5103TIP3   OH239503   6.755   8.091  15.656 -0.5343  0.2805 -0.0267
 5103TIP3    H139504   6.811   8.149  15.604 -0.9653  0.9990  0.2969
 5103TIP3    H239505   6.805   8.009  15.662 -0.2893  0.3210 -1.2100
 5104TIP3   OH239506   4.446   5.571  17.054  0.0847  0.2080 -0.0151
 5104TIP3    H139507   4.520   5.519  17.085 -0.5929 -1.7942 -1.5043
 5104TIP3    H239508   4.390   5.581  17.131  0.9508  0.0291  0.6527
 5105TIP3   OH239509   2.549   4.069  16.298  0.3705 -0.4087  0.2635
 5105TIP3    H139510   2.612   4.125  16.343  0.3271 -0.5768  0.5400
 5105TIP3    H239511   2.592   3.984  16.293  0.8656 -0.1012 -1.0930
 5106TIP3   OH239512   8.010   6.591  17.518 -0.6656 -0.1915 -0.0168
 5106TIP3    H139513   8.076   6.537  17.562  0.6846 -0.7674 -2.5497
 5106TIP3    H239514   7.927   6.546  17.535 -0.0552 -0.9665  1.0098
 5107TIP3   OH239515   5.701   3.367  16.548 -0.0472 -0.0904  0.0801
 5107TIP3    H139516   5.776   3.413  16.586 -0.0859  0.9387 -1.0152
 5107TIP3    H239517   5.739   3.291  16.504 -0.0160 -1.3514  2.2000
 5108TIP3   OH239518   6.367   1.552  17.445  0.5241 -0.4520 -0.0934
 5108TIP3    H139519   6.307   1.477  17.445 -0.8251  0.5641 -1.3267
 5108TIP3    H239520   6.446   1.519  17.487 -0.7504 -1.9615  1.2876
 5109TIP3   OH239521   8.039   1.193  16.797  0.0103  0.7421  0.0141
 5109TIP3    H139522   8.133   1.190  16.777 -0.2645  0.9149 -1.3946
 5109TIP3    H239523   8.005   1.108  16.769 -0.1057  0.3034  1.4224
 5110TIP3   OH239524   7.623   0.040  16.885 -0.0840 -0.2778  0.0596
 5110TIP3    H139525   7.694   0.049  16.822  0.8563  2.1122  1.3250
 5110TIP3    H239526   7.665   0.011  16.966 -0.8585 -0.6765  0.3354
 5111TIP3   OH239527   7.526   2.625  16.206  0.5612  0.1964 -0.2185
 5111TIP3    H139528   7.588   2.563  16.166 -0.8902 -1.2250 -0.3860
 5111TIP3    H239529   7.443   2.608  16.161 -0.1536  1.4707  0.5641
 5112TIP3   OH239530   2.274   3.490  16.369 -0.1500  0.4067 -0.4217
 5112TIP3    H139531   2.278   3.503  16.274 -1.2812  0.1554 -0.5203
 5112TIP3    H239532   2.360   3.519  16.401  0.2198  0.5606 -1.5076
 5113TIP3   OH239533   0.594   2.521  16.503  0.3629  0.3020  0.2215
 5113TIP3    H139534   0.657   2.492  16.569 -0.5527  1.2022  1.5637
 5113TIP3    H239535   0.613   2.614  16.492  0.3133  0.2227 -0.5888
 5114TIP3   OH239536   6.686   0.490  16.207  0.2051 -0.0149 -0.0704
 5114TIP3    H139537   6.661   0.452  16.291  0.6136 -0.5023 -0.1627
 5114TIP3    H239538   6.714   0.579  16.228  3.7536 -1.2152  0.9031
 5115TIP3   OH239539   8.056   7.429  16.920 -0.4802  0.4103 -0.3728
 5115TIP3    H139540   8.065   7.339  16.952  1.6836  0.9548  0.7621
 5115TIP3    H239541   7.975   7.460  16.960 -1.3566 -1.0515 -0.9099
 5116TIP3   OH239542   2.379   6.124  16.404 -0.4152  0.6521  0.1703
 5116TIP3    H139543   2.460   6.084  16.370 -1.6658 -0.9865 -1.0447
 5116TIP3    H239544   2.409   6.200  16.453  1.9394 -0.4331  0.5529
 5117TIP3   OH239545   6.391   0.376  16.215  0.4061  0.6681  0.1124
 5117TIP3    H139546   6.412   0.377  16.122 -0.3046  2.4009 -0.0822
 5117TIP3    H239547   6.475   0.368  16.259  0.6370 -1.9812 -0.6312
 5118TIP3   OH239548   1.019   2.669  15.733 -0.4012  0.2654  0.1713
 5118TIP3    H139549   0.959   2.671  15.808  1.0635  2.0814  1.3726
 5118TIP3    H239550   0.962   2.685  15.657 -1.7352 -0.3626  0.9878
 5119TIP3   OH239551   4.831   1.620  17.445 -0.0175 -0.4458  0.2555
 5119TIP3    H139552   4.809   1.684  17.378  1.9019 -0.8268 -0.8300
 5119TIP3    H239553   4.924   1.635  17.463 -0.1758 -1.1874  1.9264
 5120TIP3   OH239554   7.377   0.530  15.334 -0.0329 -0.0461  0.2128
 5120TIP3    H139555   7.448   0.477  15.299  0.6694  1.0061 -0.0007
 5120TIP3    H239556   7.416   0.579  15.406 -0.6129  0.3167  0.2919
 5121TIP3   OH239557   2.572   1.025  15.576  0.1311 -0.5865  0.3919
 5121TIP3    H139558   2.601   0.934  15.564  2.0108  0.0705 -0.3015
 5121TIP3    H239559   2.650   1.072  15.603 -0.4751  1.1212 -0.7073
 5122TIP3   OH239560   7.008   2.177  16.950  0.1089 -0.0922  0.2526
 5122TIP3    H139561   6.931   2.165  17.006  0.2152 -1.0387  0.2111
 5122TIP3    H239562   7.077   2.207  17.009 -0.3352  0.9558  0.2533
 5123TIP3   OH239563   1.695   1.288  16.019  0.0753  0.4800  0.6571
 5123TIP3    H139564   1.737   1.305  15.934 -2.6972  2.8332 -0.4082
 5123TIP3    H239565   1.743   1.344  16.081 -0.4677  2.0168 -0.2447
 5124TIP3   OH239566   7.829   1.836  16.894  0.2559 -0.4216 -0.0331
 5124TIP3    H139567   7.754   1.778  16.885  1.5595 -2.2294  0.2134
 5124TIP3    H239568   7.828   1.890  16.815 -1.8568  0.2978  0.4460
 5125TIP3   OH239569   1.953   6.533  18.005  0.1509  0.4655  0.2643
 5125TIP3    H139570   1.916   6.615  18.037  0.7944  1.3992 -1.2807
 5125TIP3    H239571   1.879   6.472  18.004 -1.1612  1.9816 -1.7716
 5126TIP3   OH239572   6.450   5.174  16.443  0.1025 -0.3705  0.5033
 5126TIP3    H139573   6.453   5.143  16.534 -1.5127  1.3314  1.1874
 5126TIP3    H239574   6.542   5.181  16.418  0.7386  1.8323  3.0042
 5127TIP3   OH239575   8.212   2.115  17.105 -0.0624 -0.7991 -0.9258
 5127TIP3    H139576   8.173   2.150  17.185  0.2271  0.1031 -1.1649
 5127TIP3    H239577   8.307   2.122  17.119 -0.0075 -0.8057 -1.2701
 5128TIP3   OH239578   2.048   0.503  16.937 -0.0873 -0.6585  0.5424
 5128TIP3    H139579   2.122   0.484  16.879  0.0233  0.5396  0.2683
 5128TIP3    H239580   1.982   0.437  16.913  0.6560 -1.3520  0.3700
 5129TIP3   OH239581   0.210   6.735  17.300  0.1427 -0.0715  0.6828
 5129TIP3    H139582   0.252   6.707  17.218 -0.7232  1.9330 -0.5366
 5129TIP3    H239583   0.117   6.718  17.287 -0.0620  0.7116  1.0211
 5130TIP3   OH239584   1.279   6.598  18.193  0.6637 -1.0595 -0.1029
 5130TIP3    H139585   1.209   6.561  18.140  1.4606 -1.6916 -0.7393
 5130TIP3    H239586   1.281   6.543  18.272 -1.6103  0.8813  1.4240
 5131TIP3   OH239587   2.617   0.932  17.075 -0.0873  0.0386 -0.3122
 5131TIP3    H139588   2.537   0.980  17.054  0.3823  0.7972 -0.4161
 5131TIP3    H239589   2.631   0.949  17.168  0.4114  0.6435 -0.4819
 5132TIP3   OH239590   8.237   5.945  16.946 -0.2806  0.4523  0.6802
 5132TIP3    H139591   8.178   5.870  16.937 -1.0033  0.9207  1.3343
 5132TIP3    H239592   8.252   5.974  16.856  0.3566 -0.7219  0.3820
 5133TIP3   OH239593   4.301   3.688  16.580 -0.1470  0.2732  0.5618
 5133TIP3    H139594   4.381   3.637  16.578  0.5382  1.3293  0.1230
 5133TIP3    H239595   4.321   3.763  16.636 -0.8326  0.5530  0.4489
 5134TIP3   OH239596   5.424   5.369  16.852 -0.2467 -0.3100 -0.6633
 5134TIP3    H139597   5.390   5.299  16.796 -0.3184 -0.3644 -0.5516
 5134TIP3    H239598   5.506   5.334  16.887 -0.6293 -0.6171 -0.0521
 5135TIP3   OH239599   4.899   3.605  17.168  0.0710  0.0566 -0.1022
 5135TIP3    H139600   4.935   3.602  17.080  2.3481  1.5208  0.6935
 5135TIP3    H239601   4.863   3.693  17.177 -0.2480 -0.1171  0.3887
 5136TIP3   OH239602   4.849   3.934  16.687  0.5773  0.4563  0.5543
 5136TIP3    H139603   4.788   3.860  16.693 -0.2192  1.1815  2.8184
 5136TIP3    H239604   4.923   3.909  16.743  1.7462  0.1718 -1.0556
 5137TIP3   OH239605   7.471   2.209  15.425 -0.0794  0.0333  0.5160
 5137TIP3    H139606   7.494   2.245  15.339  0.1250  0.2754  0.6732
 5137TIP3    H239607   7.540   2.145  15.443 -0.4157 -0.4128  0.2603
 5138TIP3   OH239608   3.174   1.543  16.755 -0.3955  0.1712  0.0242
 5138TIP3    H139609   3.146   1.526  16.845 -1.2320 -1.5308 -0.5111
 5138TIP3    H239610   3.252   1.488  16.744 -0.5388  0.0493 -0.4047
 5139TIP3   OH239611   6.001   1.359  16.625 -0.3431  0.3810 -0.0125
 5139TIP3    H139612   5.915   1.318  16.629  0.7075 -1.9717  0.4136
 5139TIP3    H239613   6.016   1.392  16.713 -0.2123 -0.5902  0.3421
 5140TIP3   OH239614   1.664   8.389  15.808 -0.5561  0.3759  0.3935
 5140TIP3    H139615   1.581   8.378  15.761  0.4936 -0.9269 -1.2855
 5140TIP3    H239616   1.682   8.483  15.802 -1.4515  0.5374 -0.0615
 5141TIP3   OH239617   5.234   2.181  16.100  0.2079 -0.3368  0.5459
 5141TIP3    H139618   5.200   2.138  16.179 -1.5484  0.1807  0.1270
 5141TIP3    H239619   5.240   2.112  16.035 -2.1884 -0.1175  0.0028
 5142TIP3   OH239620   0.530   7.652  16.856 -0.5615 -0.6052  0.2295
 5142TIP3    H139621   0.568   7.580  16.805 -0.7433 -0.1902 -0.5080
 5142TIP3    H239622   0.468   7.609  16.915  0.7619 -1.2470  1.1919
 5143TIP3   OH239623   0.214   7.735  17.844  0.1327  0.5485  0.3025
 5143TIP3    H139624   0.163   7.816  17.834  1.3058  1.5610  1.9279
 5143TIP3    H239625   0.162   7.681  17.903 -0.9379 -0.1841 -1.2514
 5144TIP3   OH239626   6.886   0.372  17.452  0.2669 -0.1151 -0.2435
 5144TIP3    H139627   6.961   0.312  17.445  0.9718  0.5072  1.5517
 5144TIP3    H239628   6.925   0.459  17.446  0.1461  0.3229  3.2734
 5145TIP3   OH239629   4.583   7.983  16.850 -0.0331 -0.4033 -0.0367
 5145TIP3    H139630   4.624   8.058  16.893 -0.0197 -1.2694  1.5303
 5145TIP3    H239631   4.562   7.923  16.921 -0.0807 -1.8762 -1.2387
 5146TIP3   OH239632   7.422   8.028  17.827 -0.0825 -0.3820  0.3649
 5146TIP3    H139633   7.409   8.108  17.777  3.1069  0.6923  1.0055
 5146TIP3    H239634   7.360   8.034  17.900  0.1427  1.5782  0.4445
 5147TIP3   OH239635   0.066   2.435  16.669  0.4240 -0.5263  0.0678
 5147TIP3    H139636   0.148   2.472  16.635 -0.2736  0.3288 -0.7336
 5147TIP3    H239637   0.078   2.434  16.764  0.7834  1.0239  0.0661
 5148TIP3   OH239638   6.456   2.791  16.897  0.2296  0.0552 -0.1125
 5148TIP3    H139639   6.493   2.823  16.815  0.4724 -0.8612 -0.3693
 5148TIP3    H239640   6.416   2.707  16.874 -1.4719  0.7111  0.2908
 5149TIP3   OH239641   3.639   8.381  16.460  0.0980  0.0067  0.5352
 5149TIP3    H139642   3.635   8.332  16.543  0.8800 -0.4869  0.2939
 5149TIP3    H239643   3.549   8.380  16.428  0.1049 -1.4080  0.4792
 5150TIP3   OH239644   7.210   5.624  17.195 -0.9775 -0.0949 -0.5653
 5150TIP3    H139645   7.213   5.589  17.283 -2.0119 -2.9245 -1.5462
 5150TIP3    H239646   7.121   5.659  17.186 -0.8212  0.3346 -0.4322
 5151TIP3   OH239647   1.069   4.597  16.156  0.3894  0.0193 -0.7092
 5151TIP3    H139648   1.046   4.678  16.201  1.5703 -1.1664  2.3658
 5151TIP3    H239649   0.999   4.536  16.180 -0.3867 -0.0020 -2.8302
 5152TIP3   OH239650   8.217   0.566  15.922 -0.5563  0.1321  0.3690
 5152TIP3    H139651   8.147   0.618  15.959 -1.0904  0.3950 -0.9349
 5152TIP3    H239652   8.292   0.626  15.916 -1.0208  0.6444 -0.6606
 5153TIP3   OH239653   1.422   1.911  15.453  0.0132  0.2041 -0.3430
 5153TIP3    H139654   1.509   1.951  15.453 -0.0643  0.3968  0.7269
 5153TIP3    H239655   1.427   1.842  15.386  0.1308  1.9990 -2.2677
 5154TIP3   OH239656   7.976   7.736  17.658  0.6793 -0.0197  0.8205
 5154TIP3    H139657   7.934   7.787  17.727 -1.4779 -0.6651  0.0695
 5154TIP3    H239658   7.942   7.774  17.577  0.3199 -1.5647  0.2230
 5155TIP3   OH239659   7.118   4.405  17.208 -0.2805  0.0895  0.4503
 5155TIP3    H139660   7.109   4.396  17.114 -1.8725  0.5979  0.5262
 5155TIP3    H239661   7.212   4.397  17.224 -0.1338 -1.7811 -0.9700
 5156TIP3   OH239662   4.923   4.175  17.428 -0.0315  0.1219  0.2212
 5156TIP3    H139663   4.976   4.151  17.352  0.2154  0.0353  0.4223
 5156TIP3    H239664   4.895   4.265  17.409  1.0608  0.5592  0.6012
 5157TIP3   OH239665   4.843   0.626  16.590  0.0478 -0.0119  0.3995
 5157TIP3    H139666   4.846   0.575  16.671  0.6935 -1.7470 -0.6580
 5157TIP3    H239667   4.758   0.605  16.551  0.6111 -0.9261 -0.3961
 5158TIP3   OH239668   2.548   5.085  17.066  0.2061 -0.2695 -0.6564
 5158TIP3    H139669   2.632   5.076  17.022  1.3021 -0.4938  1.3502
 5158TIP3    H239670   2.565   5.147  17.137 -1.1089 -0.9691  0.3005
 5159TIP3   OH239671   7.591   0.743  17.043  0.2416  0.3050  0.0365
 5159TIP3    H139672   7.516   0.773  16.990 -0.5035 -2.5569 -0.7076
 5159TIP3    H239673   7.571   0.773  17.131 -0.4629  1.8014 -0.5854
 5160TIP3   OH239674   1.091   8.406  17.512  0.0186  0.1109 -0.2785
 5160TIP3    H139675   1.186   8.396  17.517 -0.1378 -1.3768  0.4603
 5160TIP3    H239676   1.060   8.320  17.483 -1.0644  0.7985 -1.2526
 5161TIP3   OH239677   6.431   0.429  15.952 -0.4922  0.0488 -0.4481
 5161TIP3    H139678   6.479   0.371  15.893 -0.2092  0.4084 -0.5752
 5161TIP3    H239679   6.345   0.438  15.911  0.0654  1.2124 -1.4433
 5162TIP3   OH239680   4.894   6.583  16.522 -0.2773 -0.1319  0.0461
 5162TIP3    H139681   4.860   6.661  16.567  1.7637  0.2917  0.9983
 5162TIP3    H239682   4.920   6.524  16.592 -0.3161 -0.9990 -0.6522
 5163TIP3   OH239683   1.839   2.190  17.371  0.6833  0.0649 -0.4320
 5163TIP3    H139684   1.744   2.202  17.365  0.9060  1.5121 -1.7552
 5163TIP3    H239685   1.875   2.275  17.345  2.3703 -1.0644 -2.0333
 5164TIP3   OH239686   0.773   4.323  16.447 -0.6708 -0.4043 -0.5237
 5164TIP3    H139687   0.849   4.335  16.505 -0.5214 -0.9055 -0.6070
 5164TIP3    H239688   0.698   4.346  16.501 -0.3883  1.5231 -0.8646
 5165TIP3   OH239689   0.017   7.053  16.845 -1.0191 -0.1401 -0.2931
 5165TIP3    H139690   0.052   6.973  16.885 -0.3090  0.1818 -0.2660
 5165TIP3    H239691  -0.025   7.100  16.917 -0.6397 -0.0525 -0.1307
 5166TIP3   OH239692   1.446   2.487  16.910  0.3801  0.2788 -0.3961
 5166TIP3    H139693   1.405   2.401  16.903  0.0484  0.5219 -1.5378
 5166TIP3    H239694   1.496   2.497  16.829  1.2291  0.7500  0.1652
 5167TIP3   OH239695   6.931   6.515  16.770  0.6349 -0.1303 -0.3475
 5167TIP3    H139696   6.996   6.513  16.699  0.7074 -2.4596 -0.2708
 5167TIP3    H239697   6.877   6.592  16.751  0.0794 -1.1650 -3.4698
 5168TIP3   OH239698   5.200   6.528  16.451 -0.0489  0.2851 -0.1097
 5168TIP3    H139699   5.260   6.487  16.513  0.1060  1.0384  0.2533
 5168TIP3    H239700   5.186   6.616  16.486 -0.2755  0.5844 -0.9283
 5169TIP3   OH239701   7.789   4.317  16.888  0.1580  0.2632 -0.1954
 5169TIP3    H139702   7.722   4.260  16.849  0.8933 -0.8205  0.0921
 5169TIP3    H239703   7.739   4.384  16.935 -0.7421 -0.6453  0.1832
 5170TIP3   OH239704   0.802   4.611  17.205  0.5144  0.4060  0.4293
 5170TIP3    H139705   0.873   4.565  17.251  0.1208 -0.6487  0.0137
 5170TIP3    H239706   0.766   4.545  17.146 -1.2119  0.7389  1.0679
 5171TIP3   OH239707   7.148   5.869  16.749 -0.3277  0.0753 -0.4142
 5171TIP3    H139708   7.082   5.804  16.725 -0.6325  0.4671 -0.6494
 5171TIP3    H239709   7.098   5.938  16.794 -0.3458  1.1163 -1.9493
 5172TIP3   OH239710   8.288   7.722  17.386  0.5919  0.4486  0.1141
 5172TIP3    H139711   8.314   7.632  17.367 -2.4218 -0.2156 -1.3962
 5172TIP3    H239712   8.369   7.764  17.415  2.0126 -2.8702  1.5660
 5173TIP3   OH239713   3.785   3.966  16.749  0.3171 -0.3937  0.0761
 5173TIP3    H139714   3.854   3.916  16.704 -0.1515  0.1588 -1.3048
 5173TIP3    H239715   3.760   3.910  16.823 -0.6902 -2.6099 -1.7890
 5174TIP3   OH239716   7.019   4.310  16.368  0.4920 -0.4643  0.7780
 5174TIP3    H139717   6.968   4.236  16.336 -0.5209  0.6076 -0.1660
 5174TIP3    H239718   7.043   4.359  16.289 -0.3846  1.1706  1.4834
 5175TIP3   OH239719   1.258   2.751  16.836 -0.6893 -0.4293  0.1272
 5175TIP3    H139720   1.302   2.667  16.847  0.5263  0.3647  1.8032
 5175TIP3    H239721   1.186   2.749  16.899 -0.3135 -0.0374  0.5864
 5176TIP3   OH239722   2.858   6.118  16.508 -0.6264 -0.2324  0.5076
 5176TIP3    H139723   2.865   6.028  16.542  2.0617 -0.0476  0.6235
 5176TIP3    H239724   2.784   6.155  16.556 -0.7889 -1.9051  1.6489
 5177TIP3   OH239725   3.104   3.151  17.686  0.3089  0.5482  0.0239
 5177TIP3    H139726   3.015   3.119  17.701  0.7179 -0.2036  0.9355
 5177TIP3    H239727   3.136   3.174  17.774  1.2556  0.1558 -0.2136
 5178TIP3   OH239728   1.916   8.118  16.939 -0.2294 -0.2562  0.3753
 5178TIP3    H139729   2.008   8.101  16.956 -0.2565 -0.6733  0.1118
 5178TIP3    H239730   1.895   8.064  16.863 -0.7965 -0.5077  0.7042
 5179TIP3   OH239731   7.887   0.339  17.100 -0.5272 -0.1503 -0.0581
 5179TIP3    H139732   7.844   0.281  17.163  1.1811 -1.7900 -0.2921
 5179TIP3    H239733   7.818   0.398  17.070 -1.7605 -0.4101  2.0802
 5180TIP3   OH239734   3.733   6.024  17.920 -0.1079 -0.4409  0.2770
 5180TIP3    H139735   3.790   6.052  17.848 -1.2005 -4.5584 -2.5507
 5180TIP3    H239736   3.649   6.067  17.902 -0.0993 -0.6672 -0.3257
 5181TIP3   OH239737   2.524   0.166  17.385 -0.2402 -0.0262 -0.3721
 5181TIP3    H139738   2.510   0.075  17.410 -2.0893  0.2919 -0.0846
 5181TIP3    H239739   2.505   0.216  17.465 -0.6654  0.6703 -0.8937
 5182TIP3   OH239740   5.593   0.125  17.696 -0.6436  0.0760  0.2851
 5182TIP3    H139741   5.586   0.036  17.662 -1.1960  0.3558 -0.3615
 5182TIP3    H239742   5.662   0.165  17.643  0.0585 -0.1531  1.0089
 5183TIP3   OH239743   0.603   4.527  16.587  0.7518 -0.2822 -0.4002
 5183TIP3    H139744   0.553   4.571  16.656  0.3604 -2.3335  0.7009
 5183TIP3    H239745   0.568   4.562  16.505 -0.4404  0.4710  0.4072
 5184TIP3   OH239746   0.438   8.109  17.647 -0.0477 -0.4503  0.1536
 5184TIP3    H139747   0.432   8.014  17.650 -3.3023 -0.5122 -2.5461
 5184TIP3    H239748   0.358   8.139  17.690 -0.2285  0.9472 -1.0811
 5185TIP3   OH239749   4.843   1.296  16.274 -0.2002  0.1581 -0.3922
 5185TIP3    H139750   4.886   1.381  16.286 -0.6088  0.2876  0.1740
 5185TIP3    H239751   4.906   1.232  16.306 -0.3429  0.3341  0.2523
 5186TIP3   OH239752   4.455   1.052  16.338  0.1898 -0.8018 -0.4700
 5186TIP3    H139753   4.478   1.141  16.311  0.8472 -0.6225  0.6483
 5186TIP3    H239754   4.362   1.044  16.316 -1.4832  2.0949  4.2257
 5187TIP3   OH239755   7.464   0.199  16.682 -0.5058  0.0338 -0.0098
 5187TIP3    H139756   7.527   0.246  16.735 -0.5108 -0.7210  0.6947
 5187TIP3    H239757   7.490   0.107  16.691 -1.9330 -0.3353  0.6404
 5188TIP3   OH239758   1.054   2.400  17.376 -0.5592 -0.6457  0.2860
 5188TIP3    H139759   1.016   2.469  17.431  0.4533  0.9909 -0.9862
 5188TIP3    H239760   1.122   2.361  17.430  0.4474  0.9630  0.2434
 5189TIP3   OH239761   0.292   8.379  17.049  1.0019  0.0732  0.6419
 5189TIP3    H139762   0.379   8.339  17.050  1.3209  0.5385 -2.1225
 5189TIP3    H239763   0.236   8.313  17.007  0.5690  0.7585  0.1276
 5190TIP3   OH239764   0.133   1.260  16.975 -0.3550  0.4387  0.6856
 5190TIP3    H139765   0.186   1.262  17.055 -0.1648  1.0572  0.5448
 5190TIP3    H239766   0.068   1.328  16.988 -0.9594 -0.1385  0.7391
 5191TIP3   OH239767   2.538   4.171  17.314  0.1008 -0.2128 -0.1310
 5191TIP3    H139768   2.626   4.165  17.277 -0.2580  0.0281 -1.0523
 5191TIP3    H239769   2.510   4.260  17.296 -0.0220 -0.0345  0.9000
 5192TIP3   OH239770   6.847   4.139  16.849 -0.1496  0.3573 -0.3065
 5192TIP3    H139771   6.940   4.130  16.831 -0.2409 -2.5062  0.2160
 5192TIP3    H239772   6.832   4.085  16.926 -2.3902 -0.0655 -0.9678
 5193TIP3   OH239773   2.906   5.442  16.101  0.0876 -0.5189 -0.1147
 5193TIP3    H139774   2.863   5.425  16.185  0.8791 -0.7709  0.2507
 5193TIP3    H239775   2.857   5.515  16.064  0.7629  0.7695  1.3682
 5194TIP3   OH239776   6.381   5.837  17.299  0.2125 -0.2997 -0.2818
 5194TIP3    H139777   6.361   5.903  17.233  1.4157 -0.0301 -0.4109
 5194TIP3    H239778   6.370   5.753  17.255  0.9913 -0.1230 -0.8408
 5195TIP3   OH239779   7.780   5.614  17.390  0.4004 -0.2738  0.0024
 5195TIP3    H139780   7.793   5.635  17.483 -1.2426 -0.7535  0.3679
 5195TIP3    H239781   7.840   5.541  17.373 -0.5692 -1.3941  1.1904
 5196TIP3   OH239782   6.582   1.981  15.522 -0.7583 -0.0519 -0.1243
 5196TIP3    H139783   6.606   2.001  15.431  0.1573 -0.5328 -0.0007
 5196TIP3    H239784   6.487   1.979  15.522 -0.8043  1.1142 -0.8212
 5197TIP3   OH239785   6.752   2.343  17.670 -0.3297 -0.0487 -0.7326
 5197TIP3    H139786   6.800   2.335  17.752 -2.5185 -0.0430  0.6073
 5197TIP3    H239787   6.697   2.420  17.681  0.2841  0.7616 -2.7595
 5198TIP3   OH239788   2.183   4.002  15.776 -0.6698  0.2531 -0.1872
 5198TIP3    H139789   2.249   4.068  15.753  1.0493 -0.9900  0.9469
 5198TIP3    H239790   2.175   3.949  15.697 -1.3864  1.2407 -0.8014
 5199TIP3   OH239791   1.305   4.555  15.985  0.1661 -0.5095  0.7013
 5199TIP3    H139792   1.312   4.462  15.961 -1.1484 -1.0632  2.3061
 5199TIP3    H239793   1.235   4.558  16.050  0.6172  1.5352  1.1524
 5200TIP3   OH239794   2.753   6.379  17.618 -0.1169  0.5907  0.0593
 5200TIP3    H139795   2.672   6.345  17.580 -0.6615  2.7667 -0.8706
 5200TIP3    H239796   2.813   6.387  17.544  0.2297  0.9336  0.3733
 5201TIP3   OH239797   4.165   6.459  16.911  0.3386  0.0127  0.3286
 5201TIP3    H139798   4.172   6.544  16.867 -1.3134  0.7806  1.4477
 5201TIP3    H239799   4.253   6.443  16.946 -0.0674  2.9722  3.0602
 5202TIP3   OH239800   7.160   6.155  16.591 -0.4957  0.0726 -0.2777
 5202TIP3    H139801   7.224   6.084  16.596  0.9810  1.4567  1.8498
 5202TIP3    H239802   7.082   6.121  16.634  0.5457  0.0271  1.6519
 5203TIP3   OH239803   4.004   4.903  16.722  0.1969 -0.3696  0.4914
 5203TIP3    H139804   4.034   4.883  16.633 -0.1451  0.6590  0.1332
 5203TIP3    H239805   4.062   4.973  16.751 -0.4663  0.1413  0.6087
 5204TIP3   OH239806   3.180   4.146  17.136  0.3139  0.0434  0.6406
 5204TIP3    H139807   3.136   4.097  17.067 -0.0415  0.0865  0.8356
 5204TIP3    H239808   3.257   4.183  17.093 -0.2351  0.5939  0.1128
 5205TIP3   OH239809   5.699   5.361  16.952  0.0255 -0.1031 -0.0341
 5205TIP3    H139810   5.759   5.380  16.880  0.0068 -0.1212 -0.0540
 5205TIP3    H239811   5.719   5.429  17.017  0.7138 -0.6560  0.3520
 5206TIP3   OH239812   6.888   7.219  15.623  0.0903  0.4508  0.1277
 5206TIP3    H139813   6.940   7.254  15.695  1.6854  1.6942 -1.5276
 5206TIP3    H239814   6.932   7.137  15.599  0.4416  0.7746 -0.3493
 5207TIP3   OH239815   1.393   7.857  17.600 -0.2633  0.3904  0.2223
 5207TIP3    H139816   1.322   7.825  17.656  1.0995 -2.2578  0.5888
 5207TIP3    H239817   1.415   7.943  17.637 -1.8214  0.3205  1.4309
 5208TIP3   OH239818   4.154   0.244  17.890 -0.2681  0.0012  0.3073
 5208TIP3    H139819   4.074   0.286  17.859  0.1209  0.2879 -0.3204
 5208TIP3    H239820   4.163   0.274  17.981 -1.5588 -1.0657  0.8198
 5209TIP3   OH239821   8.169   4.433  17.517  0.0406  0.3325  0.7107
 5209TIP3    H139822   8.185   4.518  17.476  0.1329 -0.4489 -0.9124
 5209TIP3    H239823   8.074   4.431  17.530 -0.0314  0.4576  0.2310
 5210TIP3   OH239824   2.656   2.629  16.088 -0.6535  0.0662 -0.2721
 5210TIP3    H139825   2.690   2.678  16.014  0.0197  1.0085  0.6444
 5210TIP3    H239826   2.732   2.612  16.143 -1.1159 -0.7762  0.1334
 5211TIP3   OH239827   1.384   4.804  15.530 -0.4554 -0.2794  0.0601
 5211TIP3    H139828   1.463   4.856  15.517 -0.5450 -0.1140  0.1818
 5211TIP3    H239829   1.414   4.713  15.522 -0.5025 -0.1934 -1.3336
 5212TIP3   OH239830   0.860   0.204  15.819 -0.1973  0.7576  0.7085
 5212TIP3    H139831   0.834   0.226  15.730  0.4399 -1.3877 -0.0630
 5212TIP3    H239832   0.848   0.109  15.825  1.8089  0.5340  2.1931
 5213TIP3   OH239833   2.300   1.184  16.118 -0.3719 -0.2400  0.2664
 5213TIP3    H139834   2.363   1.243  16.076  1.9629 -2.0655  0.9685
 5213TIP3    H239835   2.286   1.222  16.205  0.8721 -0.5130  0.6031
 5214TIP3   OH239836   2.438   3.241  15.983  0.8744  0.0972 -0.4322
 5214TIP3    H139837   2.416   3.334  15.989  2.1986  0.5737 -2.2673
 5214TIP3    H239838   2.391   3.201  16.057 -1.4512  1.8546 -0.8307
 5215TIP3   OH239839   4.920   7.637  17.305 -0.1629 -0.4313  0.1847
 5215TIP3    H139840   4.888   7.591  17.382 -0.7691 -1.2792 -0.5536
 5215TIP3    H239841   4.851   7.701  17.285 -0.0831 -0.3239  0.2562
 5216TIP3   OH239842   0.594   1.209  16.867  0.0757  0.0943 -0.5461
 5216TIP3    H139843   0.657   1.215  16.795 -0.2539  1.9437 -0.7405
 5216TIP3    H239844   0.514   1.248  16.832 -0.2790  0.4427  0.6105
 5217TIP3   OH239845   0.707   2.400  17.060  0.3738  0.5500 -0.6516
 5217TIP3    H139846   0.793   2.390  17.019  0.7157 -0.8724  0.3459
 5217TIP3    H239847   0.715   2.479  17.113  1.4651 -0.2194  0.3607
 5218TIP3   OH239848   6.385   2.594  16.506  0.0613  0.7825 -0.1323
 5218TIP3    H139849   6.356   2.507  16.531 -0.9975  1.2600  0.3977
 5218TIP3    H239850   6.465   2.609  16.555 -0.2697  0.4693  0.5107
 5219TIP3   OH239851   3.033   3.343  17.299 -0.0398  0.6523 -0.5176
 5219TIP3    H139852   3.046   3.307  17.211  2.5780  1.1542 -0.4261
 5219TIP3    H239853   3.065   3.433  17.293  0.6086  0.5546  1.0307
 5220TIP3   OH239854   2.834   3.576  16.620 -0.2749 -0.4603  0.0507
 5220TIP3    H139855   2.842   3.563  16.525 -0.0593  0.4335 -0.0699
 5220TIP3    H239856   2.785   3.500  16.651  1.4685 -1.8379 -0.4555
 5221TIP3   OH239857   3.533   4.485  17.456 -0.9174  0.1426 -0.0983
 5221TIP3    H139858   3.511   4.403  17.411 -1.0530  0.5955 -0.8694
 5221TIP3    H239859   3.569   4.457  17.541  2.6631 -0.9349 -1.7746
 5222TIP3   OH239860   4.663   5.942  16.757 -0.2320  0.3707 -0.3410
 5222TIP3    H139861   4.753   5.957  16.785  0.1640  0.3319 -1.5519
 5222TIP3    H239862   4.642   5.854  16.791  1.0732 -0.7035 -2.1456
 5223TIP3   OH239863   6.991   7.244  17.116 -0.6830  0.4666  0.2574
 5223TIP3    H139864   7.024   7.180  17.054  0.5685 -0.3747  1.7308
 5223TIP3    H239865   6.912   7.205  17.152 -0.1680 -0.0846  0.8219
 5224TIP3   OH239866   6.115   7.960  15.511 -0.1869 -0.3416 -0.0495
 5224TIP3    H139867   6.167   7.892  15.468  0.0735 -1.5455  2.0289
 5224TIP3    H239868   6.097   7.925  15.598 -2.4508  1.0850  0.1468
 5225TIP3   OH239869   1.552   2.432  16.193 -0.5184 -0.0684 -0.3282
 5225TIP3    H139870   1.643   2.461  16.190 -1.1164  1.8916 -1.1714
 5225TIP3    H239871   1.555   2.342  16.161  1.0078  0.3005 -1.3540
 5226TIP3   OH239872   7.746   2.225  16.945 -0.2687  0.0751  0.4627
 5226TIP3    H139873   7.767   2.312  16.981  1.2013  0.2119 -0.6413
 5226TIP3    H239874   7.812   2.167  16.982 -1.3547 -0.6441  1.3397
 5227TIP3   OH239875   7.925   7.663  16.536  0.3009  0.3910 -0.3797
 5227TIP3    H139876   7.942   7.748  16.497  1.7391  0.4820  0.3654
 5227TIP3    H239877   7.915   7.603  16.462 -2.0094  1.3635 -0.9601
 5228TIP3   OH239878   0.877   5.456  16.761  0.3058  0.2805  0.1987
 5228TIP3    H139879   0.786   5.483  16.756  0.4790  0.8628  0.0847
 5228TIP3    H239880   0.910   5.465  16.671 -0.1438 -2.2408 -0.2995
 5229TIP3   OH239881   5.961   0.298  16.260 -0.4138 -0.2611 -0.2884
 5229TIP3    H139882   5.939   0.374  16.207 -2.5024 -1.1374 -0.8071
 5229TIP3    H239883   5.930   0.320  16.348  3.2560  1.2850  0.7832
 5230TIP3   OH239884   4.406   0.544  15.614  0.5891 -0.1573  0.2698
 5230TIP3    H139885   4.465   0.477  15.646  0.3900 -0.2358  0.4746
 5230TIP3    H239886   4.377   0.512  15.528 -1.7152 -1.7472  1.5290
 5231TIP3   OH239887   2.830   4.886  17.228  0.1484 -0.2447  0.4600
 5231TIP3    H139888   2.874   4.925  17.153  0.5075 -0.5041  0.5313
 5231TIP3    H239889   2.785   4.809  17.193  1.9131 -1.5043  0.8246
 5232TIP3   OH239890   0.904   1.036  15.717 -0.3662  0.3978  0.2387
 5232TIP3    H139891   0.966   0.998  15.778  1.5400  3.3408  0.3427
 5232TIP3    H239892   0.934   1.007  15.630  0.1773  0.4959  0.3923
 5233TIP3   OH239893   7.099   4.448  17.736 -0.2793  0.4121  0.2579
 5233TIP3    H139894   7.153   4.465  17.659  0.4277 -0.9617  0.4031
 5233TIP3    H239895   7.022   4.502  17.725  1.4208  3.0330  0.3838
 5234TIP3   OH239896   2.718   5.008  17.646  0.2133 -0.2482  0.6051
 5234TIP3    H139897   2.644   4.989  17.705  0.0568  0.2668  0.5838
 5234TIP3    H239898   2.730   5.103  17.653  0.7986 -0.3128  0.5149
 5235TIP3   OH239899   8.238   0.494  16.611  0.2604 -0.2253  0.3107
 5235TIP3    H139900   8.310   0.448  16.653  0.3249 -0.6640 -0.2586
 5235TIP3    H239901   8.164   0.433  16.618 -0.0566  0.2295  0.9073
 5236TIP3   OH239902   3.349   4.254  16.942 -0.2756 -0.0775  0.1704
 5236TIP3    H139903   3.338   4.286  16.853  0.1223 -0.1249  0.1006
 5236TIP3    H239904   3.427   4.300  16.974  0.2624 -0.9274  0.0895
 5237TIP3   OH239905   7.805   5.705  17.129  0.7272  0.3322 -0.5377
 5237TIP3    H139906   7.725   5.728  17.081  0.3444 -1.2993 -0.7595
 5237TIP3    H239907   7.774   5.683  17.217  0.8508 -0.6965 -0.7366
 5238TIP3   OH239908   1.534   7.406  16.844 -0.5224 -0.0223 -0.5742
 5238TIP3    H139909   1.450   7.430  16.806 -1.1799 -1.1342  0.1345
 5238TIP3    H239910   1.514   7.380  16.934  0.8305  1.3666  0.1671
 5239TIP3   OH239911   2.006   7.008  17.696 -0.3954  0.2923  0.4432
 5239TIP3    H139912   1.979   7.071  17.629 -0.9306 -0.6454 -0.2487
 5239TIP3    H239913   2.074   7.053  17.745 -1.2222  1.6496  0.3830
 5240TIP3   OH239914   5.622   4.474  16.163  0.5094  0.0807 -0.0030
 5240TIP3    H139915   5.695   4.450  16.106  0.1785 -1.3726  0.1443
 5240TIP3    H239916   5.662   4.489  16.249  0.8464  1.0140 -0.3175
 5241TIP3   OH239917   7.445   5.719  17.382  0.7549 -0.0071  0.0277
 5241TIP3    H139918   7.403   5.763  17.455 -0.5581 -2.6517  0.9814
 5241TIP3    H239919   7.539   5.723  17.402  0.4548 -0.0941  1.5337
 5242TIP3   OH239920   3.533   4.953  16.393  0.6669 -0.3065 -0.8426
 5242TIP3    H139921   3.464   4.975  16.331  1.3995 -1.3172 -2.0621
 5242TIP3    H239922   3.592   4.896  16.344  1.1028 -1.4283  0.8957
 5243TIP3   OH239923   5.412   8.018  16.333  0.0443  0.0456 -0.2003
 5243TIP3    H139924   5.435   8.045  16.245  0.2131 -0.8786 -0.4475
 5243TIP3    H239925   5.465   7.940  16.350  0.1376  0.2985  0.7786
 5244TIP3   OH239926   5.424   6.155  15.823  0.2516 -0.1839 -0.1480
 5244TIP3    H139927   5.439   6.212  15.898  0.8162 -1.0470  0.4107
 5244TIP3    H239928   5.423   6.214  15.748 -2.0995  0.9561  0.6624
 5245TIP3   OH239929   6.385   1.330  16.182  0.5178  0.1198 -0.4067
 5245TIP3    H139930   6.419   1.356  16.097  1.3108 -0.3360 -0.2373
 5245TIP3    H239931   6.293   1.356  16.180  0.5826  0.3063 -1.3143
 5246TIP3   OH239932   7.690   0.490  16.981  0.7832 -0.1805 -0.4915
 5246TIP3    H139933   7.655   0.564  17.031  0.8152 -1.4812  1.5839
 5246TIP3    H239934   7.624   0.421  16.992  1.0485 -0.6719 -1.8625
 5247TIP3   OH239935   5.443   4.834  17.469  0.3263  0.0519  0.1009
 5247TIP3    H139936   5.372   4.897  17.459  0.3046 -0.0288 -0.2601
 5247TIP3    H239937   5.452   4.794  17.382  1.4556  0.7426 -0.1145
 5248TIP3   OH239938   1.123   3.179  16.675  0.0266 -0.0475 -0.3604
 5248TIP3    H139939   1.161   3.096  16.648 -0.9500 -0.0057 -1.9884
 5248TIP3    H239940   1.077   3.212  16.597  0.3865  2.0229  0.2247
 5249TIP3   OH239941   4.185   6.454  17.326  0.4585  0.4687  0.2971
 5249TIP3    H139942   4.255   6.470  17.389 -0.9529 -1.0108  2.3675
 5249TIP3    H239943   4.132   6.533  17.328  0.4666  0.4588  0.9222
 5250TIP3   OH239944   0.963   5.565  17.412  0.4480  0.3435 -0.6983
 5250TIP3    H139945   0.881   5.539  17.454  1.5146 -0.1617  1.2571
 5250TIP3    H239946   0.937   5.614  17.335 -1.7311  2.4033  1.1750
 5251TIP3   OH239947   5.584   0.993  15.759 -0.1089 -0.1288 -0.3169
 5251TIP3    H139948   5.627   0.973  15.843 -0.4644 -1.0495 -0.3437
 5251TIP3    H239949   5.611   0.921  15.701  0.9418  1.0115 -1.3037
 5252TIP3   OH239950   0.178   2.064  15.314  0.1405  0.0219  0.4562
 5252TIP3    H139951   0.179   1.976  15.278  0.1815 -0.4160  1.4806
 5252TIP3    H239952   0.086   2.083  15.330 -0.2191  1.4022 -2.5625
 5253TIP3   OH239953   5.034   8.054  16.764 -0.2536  0.2304  0.2458
 5253TIP3    H139954   4.967   7.988  16.775  0.4311 -0.3763  0.9272
 5253TIP3    H239955   5.016   8.094  16.679  0.0812 -1.7226 -0.8012
 5254TIP3   OH239956   1.142   3.579  17.745 -0.5780  0.5276  0.0075
 5254TIP3    H139957   1.150   3.603  17.837  0.2290  1.8408 -0.3799
 5254TIP3    H239958   1.108   3.658  17.702 -0.8361 -0.0278 -0.8424
 5255TIP3   OH239959   0.362   1.446  15.517 -0.0624 -0.0536  0.3202
 5255TIP3    H139960   0.376   1.356  15.545  1.3978  0.0206 -0.0973
 5255TIP3    H239961   0.328   1.440  15.428 -1.2204 -0.1972  0.7498
 5256TIP3   OH239962   7.153   1.666  17.118  0.2369 -0.0461  0.3502
 5256TIP3    H139963   7.184   1.735  17.178 -0.3308  1.4443 -0.9926
 5256TIP3    H239964   7.229   1.645  17.064  0.3739 -0.4010  0.6748
 5257TIP3   OH239965   6.474   6.839  16.687 -0.2929  0.0773  0.0059
 5257TIP3    H139966   6.449   6.887  16.765  0.7216  1.4770 -0.4903
 5257TIP3    H239967   6.483   6.906  16.619  2.6679 -0.5314 -0.3446
 5258TIP3   OH239968   6.566   7.412  17.359 -0.3846  0.1211  0.1242
 5258TIP3    H139969   6.499   7.397  17.292 -1.1579  0.0808  0.8945
 5258TIP3    H239970   6.521   7.460  17.428  0.3419 -0.0422  0.7273
 5259TIP3   OH239971   4.434   3.598  17.185  0.2920  0.5412  0.0611
 5259TIP3    H139972   4.476   3.679  17.155  0.6531  0.9999  1.6490
 5259TIP3    H239973   4.341   3.611  17.167  0.1172  2.0542  1.7154
 5260TIP3   OH239974   8.271   4.416  16.513  0.8135  0.1032  0.3346
 5260TIP3    H139975   8.188   4.379  16.483  0.8655  1.2136 -1.3104
 5260TIP3    H239976   8.320   4.341  16.547 -0.1139 -0.8934 -0.4517
 5261TIP3   OH239977   3.842   7.217  15.808  0.5637  0.9267  0.1278
 5261TIP3    H139978   3.885   7.303  15.805 -1.8495  2.2454  0.5635
 5261TIP3    H239979   3.754   7.234  15.776 -0.2746 -1.2317  1.1415
 5262TIP3   OH239980   7.944   5.598  16.293  0.3061 -0.2421  0.4964
 5262TIP3    H139981   7.985   5.534  16.235  1.0117 -1.4187  2.2263
 5262TIP3    H239982   8.012   5.623  16.355 -0.0085  2.0820  0.0191
 5263TIP3   OH239983   3.954   1.108  17.445  0.2225 -0.5135  0.2670
 5263TIP3    H139984   3.976   1.060  17.525 -0.0348 -1.4947 -0.2335
 5263TIP3    H239985   3.943   1.040  17.379  1.3293  0.3274 -0.8284
 5264TIP3   OH239986   0.893   2.622  15.966  0.0555  0.4332  0.1741
 5264TIP3    H139987   0.844   2.702  15.984  1.0492  1.6276 -2.0269
 5264TIP3    H239988   0.949   2.610  16.043 -0.3772  1.6483  0.6975
 5265TIP3   OH239989   1.468   7.918  17.902  0.5646  0.4074  0.4390
 5265TIP3    H139990   1.402   7.971  17.856  1.4837  0.7724 -0.4845
 5265TIP3    H239991   1.549   7.968  17.893  1.4091 -1.0414 -0.2363
 5266TIP3   OH239992   5.854   1.162  18.003 -0.3662 -0.7835  0.2522
 5266TIP3    H139993   5.892   1.243  17.967 -0.9430 -1.2491 -1.5204
 5266TIP3    H239994   5.929   1.112  18.035  0.1055 -0.0431  0.3279
 5267TIP3   OH239995   5.697   8.182  16.257  0.2533  0.6430  0.2340
 5267TIP3    H139996   5.749   8.108  16.289  1.3639  0.0792 -2.5242
 5267TIP3    H239997   5.714   8.253  16.318  0.9807 -0.7327  1.6902
 5268TIP3   OH239998   8.443   4.728  17.266  0.3946 -0.1098  0.1150
 5268TIP3    H139999   8.495   4.732  17.346  1.0068 -1.5023 -0.2023
 5268TIP3    H240000   8.357   4.699  17.296  0.8007 -1.2620  0.2036
 5269TIP3   OH240001   0.281   6.183  17.993  1.1048 -0.0541 -0.1870
 5269TIP3    H140002   0.272   6.117  17.924  2.0428 -0.7126  0.2870
 5269TIP3    H240003   0.223   6.254  17.967  0.6664 -0.7364 -1.1201
 5270TIP3   OH240004   6.496   6.301  16.694  0.3511  0.2200 -0.0561
 5270TIP3    H140005   6.443   6.312  16.615  0.0741  2.0557  0.3555
 5270TIP3    H240006   6.433   6.303  16.766  0.8349  1.0661  0.3556
 5271TIP3   OH240007   4.433   6.000  16.300 -0.1492 -0.3300  0.5232
 5271TIP3    H140008   4.435   5.906  16.319 -1.1857  0.1058  3.2389
 5271TIP3    H240009   4.452   6.006  16.207 -0.4143 -3.2571  0.1924
 5272TIP3   OH240010   0.623   3.241  17.203 -0.2021 -0.0154 -0.1751
 5272TIP3    H140011   0.670   3.257  17.285  1.2297 -3.5911 -0.1052
 5272TIP3    H240012   0.531   3.232  17.228 -0.4135  2.8062  0.3402
 5273TIP3   OH240013   7.888   0.480  16.050  0.3785 -0.3196 -0.0204
 5273TIP3    H140014   7.902   0.516  15.962 -0.6079 -0.0670 -0.0932
 5273TIP3    H240015   7.806   0.521  16.079 -0.3433 -1.8604  0.2359
 5274TIP3   OH240016   1.409   3.319  17.489  0.2972  0.5391 -0.3860
 5274TIP3    H140017   1.488   3.355  17.528  0.0467 -0.7403  1.3993
 5274TIP3    H240018   1.438   3.239  17.445 -0.0526 -0.2442  0.7619
 5275TIP3   OH240019   3.112   4.614  16.047  0.5733 -0.3430  0.2997
 5275TIP3    H140020   3.179   4.662  15.999  1.7226 -1.2283  0.9665
 5275TIP3    H240021   3.070   4.680  16.103  0.8916  0.2173 -0.1151
 5276TIP3   OH240022   8.157   0.772  16.669  0.0707 -0.0065  0.1817
 5276TIP3    H140023   8.220   0.704  16.648 -0.6814 -0.9770  0.9314
 5276TIP3    H240024   8.089   0.764  16.602  1.2157  1.7442 -1.2658
 5277TIP3   OH240025   6.939   8.437  17.392  0.3778 -0.1725 -0.4326
 5277TIP3    H140026   6.972   8.527  17.398 -0.4874  0.0719  1.3832
 5277TIP3    H240027   6.861   8.445  17.336  0.3033  0.2215 -0.2808
 5278TIP3   OH240028   4.032   8.294  16.564 -0.1893  0.0411 -0.1685
 5278TIP3    H140029   3.963   8.242  16.523 -1.0001  2.6000 -2.3289
 5278TIP3    H240030   4.101   8.298  16.499  0.6404  0.1787  0.7013
 5279TIP3   OH240031   6.736   1.514  17.254 -0.0159  0.1730 -0.1538
 5279TIP3    H140032   6.705   1.424  17.254 -0.0095  0.1474  1.2218
 5279TIP3    H240033   6.686   1.557  17.323  0.3761  1.0789 -0.4199
 5280TIP3   OH240034   7.600   2.800  17.230 -0.0028  0.5102  0.2357
 5280TIP3    H140035   7.572   2.715  17.266  1.0845  1.1337  2.7786
 5280TIP3    H240036   7.597   2.860  17.305  0.2730  2.4926 -1.2579
 5281TIP3   OH240037   3.880   3.800  16.326 -0.4755  0.0472 -0.4598
 5281TIP3    H140038   3.812   3.782  16.391 -0.2105 -2.4324 -0.7766
 5281TIP3    H240039   3.959   3.813  16.378 -0.7591  0.7756 -0.1914
 5282TIP3   OH240040   5.046   2.088  17.396  0.1816 -0.4450 -0.2001
 5282TIP3    H140041   4.966   2.099  17.344 -0.2403  2.9140  0.8846
 5282TIP3    H240042   5.015   2.051  17.479  0.2239 -1.8357 -0.7876
 5283TIP3   OH240043   5.750   6.303  16.027  0.3826 -0.4531 -0.0571
 5283TIP3    H140044   5.788   6.343  15.949 -1.3325  0.1277 -0.6421
 5283TIP3    H240045   5.727   6.214  16.000 -0.8134 -0.0415 -0.4348
 5284TIP3   OH240046   6.735   4.315  16.674  0.7039  0.4460 -0.7996
 5284TIP3    H140047   6.698   4.401  16.696 -0.4015 -0.1857 -0.1073
 5284TIP3    H240048   6.773   4.284  16.756  0.3176 -0.0887 -0.8163
 5285TIP3   OH240049   0.742   0.980  17.614  0.0749 -0.6394  0.7369
 5285TIP3    H140050   0.654   0.995  17.647 -0.1039  1.5309 -0.5052
 5285TIP3    H240051   0.740   0.891  17.578 -2.6156  0.3910 -2.0350
 5286TIP3   OH240052   7.416   0.974  16.428 -0.5201 -0.4739 -0.3249
 5286TIP3    H140053   7.448   1.038  16.364 -0.7900  0.2702  0.2738
 5286TIP3    H240054   7.458   0.999  16.510 -0.5960 -1.0970 -0.0918
 5287TIP3   OH240055   4.726   2.789  16.003  0.1669  0.9261  0.1140
 5287TIP3    H140056   4.800   2.747  15.958  0.0619  0.6786  0.1704
 5287TIP3    H240057   4.714   2.872  15.956 -0.0067  0.6249 -0.3849
 5288TIP3   OH240058   4.204   2.300  16.932  0.3724  0.3785 -0.4719
 5288TIP3    H140059   4.110   2.321  16.936  0.0308 -0.8641 -1.3414
 5288TIP3    H240060   4.229   2.289  17.024 -0.7613 -0.9314 -0.2760
 5289TIP3   OH240061   4.574   0.428  17.001  0.0768 -0.6277 -0.2309
 5289TIP3    H140062   4.641   0.437  17.068 -0.8604 -0.1609  0.6639
 5289TIP3    H240063   4.533   0.343  17.018 -0.2574 -0.4452 -0.1246
 5290TIP3   OH240064   4.676   6.027  16.477 -0.2926 -0.2799  0.1387
 5290TIP3    H140065   4.659   5.982  16.560  0.8509 -0.4520  0.2975
 5290TIP3    H240066   4.595   6.019  16.428 -1.3990  0.8398  1.7000
 5291TIP3   OH240067   5.198   3.659  16.857 -0.3224  0.1021  0.3062
 5291TIP3    H140068   5.275   3.694  16.813 -0.1695  0.8011  1.1105
 5291TIP3    H240069   5.232   3.594  16.918 -0.5399 -0.9092 -0.6128
 5292TIP3   OH240070   2.433   0.081  16.761 -0.5964  0.3300 -0.3392
 5292TIP3    H140071   2.428   0.037  16.676 -0.3887 -2.2753  0.8750
 5292TIP3    H240072   2.356   0.049  16.809 -0.3657  1.2254  0.6663
 5293TIP3   OH240073   6.545   1.150  16.308  0.5416 -0.1148 -0.2999
 5293TIP3    H140074   6.536   1.069  16.258 -0.1791 -1.3585  1.7058
 5293TIP3    H240075   6.487   1.212  16.263  0.7748 -0.8116 -1.6246
 5294TIP3   OH240076   3.074   2.692  16.721 -0.4528  0.6204  0.0008
 5294TIP3    H140077   2.995   2.645  16.693 -0.9522  1.3962  0.0788
 5294TIP3    H240078   3.071   2.688  16.817  0.6540 -1.0423  0.0065
 5295TIP3   OH240079   4.131   0.363  15.710  0.2575 -0.4871  0.2669
 5295TIP3    H140080   4.121   0.269  15.695  1.9939 -0.5022 -1.1533
 5295TIP3    H240081   4.046   0.400  15.686 -0.4382 -1.6779  0.8073
 5296TIP3   OH240082   0.826   2.321  15.872 -0.6026  0.3920  0.5797
 5296TIP3    H140083   0.739   2.297  15.904 -1.4758  1.6296 -0.7313
 5296TIP3    H240084   0.818   2.413  15.848  0.2687 -0.1182 -2.0768
 5297TIP3   OH240085   3.901   3.109  17.167 -0.6730 -0.2992  0.1170
 5297TIP3    H140086   3.933   3.019  17.172 -1.7729 -0.7256 -0.0736
 5297TIP3    H240087   3.955   3.150  17.100  0.8101 -0.3755  1.2115
 5298TIP3   OH240088   7.570   3.160  15.553 -0.1532  0.3638 -0.1500
 5298TIP3    H140089   7.638   3.222  15.581 -1.1255  0.9216  1.0851
 5298TIP3    H240090   7.489   3.212  15.551 -0.5624 -0.2528 -1.6995
 5299TIP3   OH240091   0.064   2.546  18.118  0.2587  0.6828  0.1499
 5299TIP3    H140092   0.156   2.567  18.136 -0.4300  1.2942  3.8292
 5299TIP3    H240093   0.047   2.467  18.169 -1.7429  1.8909  1.5248
 5300TIP3   OH240094   0.334   5.394  16.255 -0.3599  0.2922  0.1732
 5300TIP3    H140095   0.248   5.373  16.217 -0.4315  1.5715 -0.4304
 5300TIP3    H240096   0.392   5.402  16.179  0.2101 -0.1466  0.5554
 5301TIP3   OH240097   5.043   0.812  17.264  0.4300  0.7324  0.6680
 5301TIP3    H140098   4.960   0.794  17.307 -0.5742  0.4344 -1.3015
 5301TIP3    H240099   5.077   0.889  17.310 -0.2503  0.0874  2.3635
 5302TIP3   OH240100   3.135   0.040  17.450 -0.3277  0.4339  0.3344
 5302TIP3    H140101   3.074  -0.011  17.397  0.8744  0.5687 -1.2370
 5302TIP3    H240102   3.197  -0.025  17.484  0.0214  0.5866 -0.0043
 5303TIP3   OH240103   4.074   1.306  16.031 -0.0187 -0.1918 -0.1976
 5303TIP3    H140104   4.019   1.317  15.953  0.1069 -0.0253 -0.2628
 5303TIP3    H240105   4.052   1.218  16.063  0.8150 -0.7716 -1.1271
 5304TIP3   OH240106   0.055   1.023  15.211 -0.2720 -0.3572  0.5306
 5304TIP3    H140107  -0.030   1.067  15.210  0.6429  1.4947  0.2735
 5304TIP3    H240108   0.039   0.939  15.167 -2.3910 -0.9861  2.3257
 5305TIP3   OH240109   7.934   0.590  17.766 -0.6874  0.1063  0.7792
 5305TIP3    H140110   8.014   0.598  17.714 -1.9594 -1.4130 -1.5846
 5305TIP3    H240111   7.875   0.655  17.727 -2.3394 -2.4082 -1.1987
 5306TIP3   OH240112   5.332   3.427  16.713  0.3642  0.2151 -0.6154
 5306TIP3    H140113   5.345   3.413  16.619  4.3578 -0.9625 -0.0521
 5306TIP3    H240114   5.374   3.510  16.731 -0.9020  0.7244  0.0911
 5307TIP3   OH240115   8.070   6.422  16.125 -0.2788 -0.8201  0.0255
 5307TIP3    H140116   8.119   6.494  16.085  1.1912 -3.5001 -3.4537
 5307TIP3    H240117   7.979   6.442  16.105  0.1146 -0.0288 -1.0827
 5308TIP3   OH240118   4.247   1.744  16.649  0.3918  0.4187 -0.6183
 5308TIP3    H140119   4.173   1.684  16.647  0.3191  0.4299  0.7034
 5308TIP3    H240120   4.210   1.829  16.629  0.0904  0.3828 -0.2127
 5309TIP3   OH240121   2.908   2.666  16.460 -0.1666  0.0931 -0.3888
 5309TIP3    H140122   2.889   2.759  16.474 -1.5271 -0.2525  0.2398
 5309TIP3    H240123   2.829   2.620  16.491  0.6347 -1.2932 -0.2975
 5310TIP3   OH240124   6.693   0.384  16.903  0.0905 -0.4417 -0.0135
 5310TIP3    H140125   6.603   0.365  16.877 -1.2903  2.3746  2.1088
 5310TIP3    H240126   6.711   0.322  16.973 -0.5819 -0.4335  0.1751
 5311TIP3   OH240127   0.984   6.645  17.069  0.0767 -0.0770 -0.5808
 5311TIP3    H140128   0.893   6.621  17.083  0.7198 -2.7919 -0.4056
 5311TIP3    H240129   0.989   6.668  16.976 -0.8529  0.5713 -0.4786
 5312TIP3   OH240130   5.244   5.023  17.408  0.0002  0.0248  0.0631
 5312TIP3    H140131   5.267   5.114  17.431  2.0599 -0.5739  0.5872
 5312TIP3    H240132   5.173   5.001  17.467  0.8686  0.6550  1.4043
 5313TIP3   OH240133   5.919   7.796  18.162  0.1473 -0.6712 -0.5235
 5313TIP3    H140134   5.882   7.785  18.250 -0.0869 -3.2985 -0.8630
 5313TIP3    H240135   5.844   7.794  18.103  0.2192  1.9880 -0.7930
 5314TIP3   OH240136   6.733   0.879  17.610 -0.0622  0.5505  0.2767
 5314TIP3    H140137   6.686   0.864  17.693 -1.0473  1.2196 -0.1321
 5314TIP3    H240138   6.746   0.791  17.574  0.8377  0.2126  1.3763
 5315TIP3   OH240139   0.893   6.394  16.619  0.6180 -0.9260  0.0385
 5315TIP3    H140140   0.844   6.412  16.699  3.1994  0.2769  1.4752
 5315TIP3    H240141   0.901   6.479  16.576 -0.9016 -1.5919 -1.6662
 5316TIP3   OH240142   1.121   7.717  17.768 -0.0759  0.3100 -0.2848
 5316TIP3    H140143   1.145   7.723  17.861  0.2083  0.1577 -0.3485
 5316TIP3    H240144   1.168   7.641  17.736 -1.6971 -0.8289 -0.0926
 5317TIP3   OH240145   2.356   3.360  17.425 -0.0795  0.0429 -0.2249
 5317TIP3    H140146   2.434   3.308  17.445 -0.9707 -1.1130  0.3654
 5317TIP3    H240147   2.374   3.396  17.338  1.6198  0.8287  0.3955
 5318TIP3   OH240148   4.836   6.586  16.080 -0.4879  0.1566  0.3261
 5318TIP3    H140149   4.761   6.646  16.076 -1.4164 -0.8278  1.8870
 5318TIP3    H240150   4.805   6.506  16.037 -0.0814 -0.0069  0.3344
 5319TIP3   OH240151   3.216   2.346  17.470  0.1317 -0.2232  0.4592
 5319TIP3    H140152   3.259   2.418  17.423 -0.6813  0.5625  0.8894
 5319TIP3    H240153   3.127   2.344  17.434  0.8175 -2.7413 -1.4388
 5320TIP3   OH240154   5.981   1.335  17.781  0.2798  0.3106 -0.2764
 5320TIP3    H140155   5.983   1.241  17.760 -1.5929  0.8169 -3.2796
 5320TIP3    H240156   6.026   1.377  17.709 -0.8645  1.8458 -0.1470
 5321TIP3   OH240157   5.334   2.194  16.428 -0.0711  0.1714  0.4685
 5321TIP3    H140158   5.377   2.263  16.378  1.4191  1.9730  3.8892
 5321TIP3    H240159   5.241   2.207  16.411  0.3375  0.9168 -1.4493
 5322TIP3   OH240160   0.517   8.422  16.679  0.3622  0.5302 -0.2350
 5322TIP3    H140161   0.462   8.500  16.680  0.2447  0.5664 -2.7026
 5322TIP3    H240162   0.497   8.380  16.595  1.5350 -1.3530  0.3637
 5323TIP3   OH240163   8.095   3.371  16.526 -0.0640  0.6418 -0.2374
 5323TIP3    H140164   8.185   3.401  16.542  0.1435  0.3565 -0.8384
 5323TIP3    H240165   8.101   3.321  16.445 -0.2058 -1.7607  1.1159
 5324TIP3   OH240166   0.410   4.643  16.398 -0.0393  0.2135  0.2643
 5324TIP3    H140167   0.413   4.607  16.310 -0.1831 -0.0831  0.3801
 5324TIP3    H240168   0.320   4.631  16.427  0.3176 -0.9097  0.9603
 5325TIP3   OH240169   1.443   4.830  17.232 -0.8331  0.5656 -0.2095
 5325TIP3    H140170   1.394   4.909  17.210 -1.8903  0.7694  2.4766
 5325TIP3    H240171   1.535   4.855  17.220 -1.1158  2.4150  1.0391
 5326TIP3   OH240172   3.466   8.263  16.269 -0.2959  0.3510 -0.1580
 5326TIP3    H140173   3.411   8.275  16.347  0.4229  0.5444  0.3215
 5326TIP3    H240174   3.459   8.169  16.250  1.2689 -0.1513  1.4703
 5327TIP3   OH240175   3.561   7.218  15.714 -0.3943 -0.4345 -0.0476
 5327TIP3    H140176   3.516   7.144  15.753  2.1374 -1.4995  1.0984
 5327TIP3    H240177   3.621   7.179  15.650  0.8246  0.6101  0.4068
 5328TIP3   OH240178   3.888   5.118  16.952  0.2610  0.2971  0.6345
 5328TIP3    H140179   3.901   5.180  17.024 -0.5140  1.5554 -0.2739
 5328TIP3    H240180   3.976   5.090  16.928  0.5229 -0.3108  2.1955
 5329TIP3   OH240181   6.702   5.117  16.358 -0.5413  0.6704  0.1239
 5329TIP3    H140182   6.715   5.030  16.397 -2.3979  0.7143  0.9809
 5329TIP3    H240183   6.729   5.106  16.267  1.5853 -0.1099  0.8017
 5330TIP3   OH240184   1.121   2.467  17.102 -0.2970 -0.1997  0.3261
 5330TIP3    H140185   1.096   2.448  17.193 -1.9082 -0.7111 -0.1874
 5330TIP3    H240186   1.152   2.557  17.104  2.5967 -1.1056  1.8924
 5331TIP3   OH240187   5.067   2.207  16.367 -1.0021  0.0510  0.7148
 5331TIP3    H140188   5.031   2.188  16.453 -2.1145  0.6303  0.3876
 5331TIP3    H240189   4.993   2.197  16.307 -0.4603  0.5835 -0.0579
 5332TIP3   OH240190   7.198   7.426  16.996 -0.0704  0.3144  0.0960
 5332TIP3    H140191   7.155   7.356  17.045  1.2245 -0.8048 -0.3054
 5332TIP3    H240192   7.174   7.409  16.905 -1.5823  1.7500  0.1856
 5333TIP3   OH240193   8.385   7.346  17.027 -0.1776 -0.1486  0.2695
 5333TIP3    H140194   8.401   7.260  17.065  0.8448 -1.4534 -2.7871
 5333TIP3    H240195   8.306   7.335  16.975  0.2483  0.5695 -0.5599
 5334TIP3   OH240196   3.812   6.761  16.789  0.0743  0.5404  0.2169
 5334TIP3    H140197   3.717   6.767  16.787 -0.0252 -0.2401  1.4642
 5334TIP3    H240198   3.834   6.694  16.725 -0.2144  0.7132 -0.0637
 5335TIP3   OH240199   5.214   2.899  16.750  0.3181 -0.7202 -0.0514
 5335TIP3    H140200   5.254   2.971  16.703  0.8833 -0.3558  0.9567
 5335TIP3    H240201   5.203   2.932  16.839 -0.7159 -1.3922  0.0847
 5336TIP3   OH240202   5.610   4.074  16.753  0.2401 -0.0213 -0.6456
 5336TIP3    H140203   5.535   4.042  16.702  1.5127 -0.4712 -2.3533
 5336TIP3    H240204   5.639   4.153  16.707  0.0137  0.9429  0.7974
 5337TIP3   OH240205   1.862   0.116  16.175 -0.4020 -0.6764 -0.4157
 5337TIP3    H140206   1.890   0.161  16.095 -1.1337  1.3972  0.4154
 5337TIP3    H240207   1.773   0.148  16.190 -0.0626 -0.5293  1.5334
 5338TIP3   OH240208   1.279   1.903  16.939 -0.1409  0.1080 -0.5294
 5338TIP3    H140209   1.306   1.842  17.008  0.0750  1.3584  0.5222
 5338TIP3    H240210   1.193   1.872  16.912  0.9410 -2.1152 -1.7660
 5339TIP3   OH240211   5.490   1.264  16.174 -0.0225 -0.6812 -0.4693
 5339TIP3    H140212   5.533   1.277  16.090 -0.7751 -0.3889 -0.8130
 5339TIP3    H240213   5.398   1.247  16.153 -0.0294 -1.6527  0.2332
 5340TIP3   OH240214   6.387   3.333  17.893 -0.1544 -0.0473  0.1704
 5340TIP3    H140215   6.320   3.289  17.841  0.3542  1.4300 -1.8564
 5340TIP3    H240216   6.411   3.269  17.960  0.0921 -2.6032 -2.1976
 5341TIP3   OH240217   2.443   3.245  17.875  0.1671  0.2103  0.0492
 5341TIP3    H140218   2.489   3.290  17.946  0.6177 -1.7334  1.0683
 5341TIP3    H240219   2.477   3.285  17.795  0.3950  1.7630  0.8772
 5342TIP3   OH240220   3.634   0.275  17.425 -0.3018 -0.1282 -0.3807
 5342TIP3    H140221   3.706   0.215  17.443 -0.5912 -0.9904 -1.9796
 5342TIP3    H240222   3.676   0.357  17.400  0.0887  0.0216  0.6831
 5343TIP3   OH240223   5.680   4.774  16.192 -0.0903 -0.1217  0.3119
 5343TIP3    H140224   5.632   4.764  16.274 -0.2745 -0.1170  0.2056
 5343TIP3    H240225   5.614   4.758  16.124  0.0926 -0.2630  0.1667
 5344TIP3   OH240226   2.913   6.832  17.537 -0.6150  0.1365 -0.2144
 5344TIP3    H140227   2.882   6.757  17.588 -0.2157 -0.3386 -0.6568
 5344TIP3    H240228   2.936   6.795  17.452  1.4136  0.3922  0.1655
 5345TIP3   OH240229   3.444   1.040  16.884  0.0217 -0.0942 -0.9310
 5345TIP3    H140230   3.359   0.996  16.887 -0.3858  0.5601 -2.2455
 5345TIP3    H240231   3.507   0.969  16.873 -0.0993 -0.7853  1.9958
 5346TIP3   OH240232   3.746   2.353  17.615  0.3450 -0.2345  0.1876
 5346TIP3    H140233   3.675   2.294  17.638 -0.6943  0.9765  0.2254
 5346TIP3    H240234   3.703   2.439  17.604  1.7941  0.5220  0.2007
 5347TIP3   OH240235   1.276   1.777  15.939 -0.5308 -0.4531  0.3652
 5347TIP3    H140236   1.265   1.688  15.973  0.6837 -0.9605 -0.5025
 5347TIP3    H240237   1.205   1.787  15.875  0.1116 -1.3072 -0.5072
 5348TIP3   OH240238   4.795   6.362  16.278 -0.4226 -0.2178  0.2624
 5348TIP3    H140239   4.789   6.456  16.292 -2.7521 -0.0384 -1.3606
 5348TIP3    H240240   4.764   6.349  16.188  1.6538 -2.3765 -0.2670
 5349TIP3   OH240241   1.117   0.585  16.504 -0.4692 -0.1156  0.0712
 5349TIP3    H140242   1.177   0.518  16.537 -0.2365 -0.5165 -1.0873
 5349TIP3    H240243   1.095   0.555  16.415  0.4524  1.8580 -0.8774
 5350TIP3   OH240244   1.400   5.809  16.700 -0.1493 -0.3557  0.0622
 5350TIP3    H140245   1.316   5.837  16.737 -0.1881 -2.4988  1.7829
 5350TIP3    H240246   1.465   5.867  16.741 -0.5797 -0.1917  0.5184
 5351TIP3   OH240247   8.271   4.179  15.840  0.5740  0.1944 -0.2874
 5351TIP3    H140248   8.339   4.202  15.777  1.6856  0.1053  0.8448
 5351TIP3    H240249   8.189   4.199  15.794  1.3561  0.8094 -1.4897
 5352TIP3   OH240250   0.083   7.804  17.424  0.4121  0.1538  0.0308
 5352TIP3    H140251   0.161   7.837  17.380  0.0602  0.3659 -0.4519
 5352TIP3    H240252   0.113   7.729  17.474  0.9208  0.2217 -0.1692
 5353TIP3   OH240253   2.005   3.257  16.023 -0.2396  0.0244  0.3896
 5353TIP3    H140254   2.016   3.352  16.027 -0.0214 -0.0563  2.5536
 5353TIP3    H240255   1.946   3.243  15.948  0.7380  1.7285 -0.7613
 5354TIP3   OH240256   1.326   6.998  17.208 -0.2490 -0.5748  0.1028
 5354TIP3    H140257   1.406   6.946  17.197  0.9912  1.1912  0.3251
 5354TIP3    H240258   1.255   6.934  17.202  1.1498 -2.1617 -0.4336
 5355TIP3   OH240259   0.153   3.440  16.055  0.1124  0.1577  0.2977
 5355TIP3    H140260   0.167   3.430  15.961  0.5396  0.2019  0.3555
 5355TIP3    H240261   0.231   3.401  16.095 -0.2671 -0.2675  0.6472
 5356TIP3   OH240262   0.331   3.027  17.617 -0.1125 -0.0731  0.0610
 5356TIP3    H140263   0.319   3.071  17.702 -2.8834  0.3779 -0.4450
 5356TIP3    H240264   0.293   2.940  17.630  1.2799 -0.7482 -0.2023
 5357TIP3   OH240265   4.026   3.634  15.851 -0.2900  0.2783  0.0267
 5357TIP3    H140266   4.061   3.562  15.798 -2.8551  0.5309 -2.2110
 5357TIP3    H240267   3.948   3.598  15.893 -0.9779  1.3849 -0.2371
 5358TIP3   OH240268   4.594   6.519  17.800 -0.2937  0.1151  0.1607
 5358TIP3    H140269   4.608   6.538  17.893  0.5982 -0.3142  0.1291
 5358TIP3    H240270   4.617   6.600  17.755  2.3368 -0.5704  0.1089
 5359TIP3   OH240271   7.139   0.536  16.464 -0.6844  0.0102 -0.7472
 5359TIP3    H140272   7.057   0.563  16.506 -0.4086 -1.5164  0.9068
 5359TIP3    H240273   7.202   0.605  16.486 -0.6798 -0.5107  0.9956
 5360TIP3   OH240274   7.133   0.803  16.246 -0.5098  0.4543 -0.4007
 5360TIP3    H140275   7.115   0.881  16.194 -0.6077 -0.2335 -1.4403
 5360TIP3    H240276   7.086   0.733  16.200  1.6930 -0.7115 -1.0390
 5361TIP3   OH240277   0.906   7.003  17.907 -0.3728 -0.1186  0.1517
 5361TIP3    H140278   0.939   6.915  17.886  1.0366  0.5419 -0.4688
 5361TIP3    H240279   0.970   7.063  17.869 -0.8839  1.1844  1.2773
 5362TIP3   OH240280   5.837   1.474  17.023 -0.5825  0.2650 -0.3737
 5362TIP3    H140281   5.802   1.422  17.095 -0.4320  2.2276  1.2076
 5362TIP3    H240282   5.760   1.514  16.982 -0.6303 -0.4588 -1.0036
 5363TIP3   OH240283   3.600   0.456  17.080  0.2387 -0.2661 -0.1470
 5363TIP3    H140284   3.557   0.372  17.098  2.4397 -1.2492  0.7874
 5363TIP3    H240285   3.693   0.435  17.076  0.7329  1.8726 -1.6001
 5364TIP3   OH240286   1.168   5.284  17.070 -0.0762  0.1669 -0.7347
 5364TIP3    H140287   1.208   5.335  17.141 -0.1249 -0.7256 -0.0410
 5364TIP3    H240288   1.199   5.326  16.990  0.2648  0.9884 -0.1939
 5365TIP3   OH240289   8.166   2.656  16.621 -0.4073  0.3769 -0.0687
 5365TIP3    H140290   8.071   2.667  16.625 -0.4505  0.4060 -0.9922
 5365TIP3    H240291   8.179   2.562  16.612 -0.3414  0.3584  0.2210
 5366TIP3   OH240292   7.313   0.178  17.171 -0.5386  0.2570  0.3625
 5366TIP3    H140293   7.259   0.182  17.092 -0.2703  0.3110  0.1793
 5366TIP3    H240294   7.328   0.085  17.186  2.1347  0.2703 -1.5515
 5367TIP3   OH240295   2.196   3.000  15.877  0.1828  0.2900  0.1127
 5367TIP3    H140296   2.257   2.945  15.926 -0.4677 -3.5620 -2.8864
 5367TIP3    H240297   2.252   3.066  15.836  1.9494 -1.2908 -0.1811
 5368TIP3   OH240298   5.459   8.371  15.488 -0.2357 -0.0766 -0.6249
 5368TIP3    H140299   5.455   8.291  15.541 -0.8383  1.0841  1.1704
 5368TIP3    H240300   5.482   8.340  15.400  0.4623 -2.1193  0.2098
 5369TIP3   OH240301   6.256   2.690  17.135 -0.1483  0.3735 -0.5571
 5369TIP3    H140302   6.257   2.772  17.087 -2.3381 -0.7207 -2.6248
 5369TIP3    H240303   6.339   2.648  17.112  0.4781  1.4556 -0.3704
 5370TIP3   OH240304   7.363   3.844  16.511 -0.3535  0.2766 -0.0698
 5370TIP3    H140305   7.316   3.927  16.514  0.4063  0.6903  0.6141
 5370TIP3    H240306   7.374   3.819  16.602 -1.8957 -1.3521 -0.2809
 5371TIP3   OH240307   5.359   3.254  16.928 -0.4545  0.0466  0.4245
 5371TIP3    H140308   5.305   3.296  16.995  0.2841  0.0382  1.0378
 5371TIP3    H240309   5.351   3.311  16.852 -0.1085  0.8804  0.9958
 5372TIP3   OH240310   3.853   5.773  16.229  0.0500 -0.2082  0.4626
 5372TIP3    H140311   3.879   5.691  16.187  0.0923  0.5396 -1.0295
 5372TIP3    H240312   3.787   5.746  16.293  0.2226 -1.4333  0.1655
 5373TIP3   OH240313   6.943   3.903  16.156  0.5570  0.2425 -0.1429
 5373TIP3    H140314   6.998   3.966  16.110  0.0853  1.1032  0.4297
 5373TIP3    H240315   6.875   3.880  16.092 -0.2584  1.6434  0.1656
 5374TIP3   OH240316   7.860   1.077  17.190 -0.0829  0.0816 -0.0022
 5374TIP3    H140317   7.922   1.144  17.163 -0.0214 -0.4127 -1.1502
 5374TIP3    H240318   7.863   1.012  17.120 -2.4293  0.4030 -0.5022
 5375TIP3   OH240319   8.091   3.811  16.954  0.5911  0.1000  0.0606
 5375TIP3    H140320   8.105   3.835  16.862  0.1063  1.7169  0.3800
 5375TIP3    H240321   8.103   3.716  16.956 -1.1371 -0.2520 -2.0210
 5376TIP3   OH240322   5.161   1.034  17.358 -0.2536  0.5627 -0.3146
 5376TIP3    H140323   5.155   1.125  17.328 -0.2675  0.7284  0.1882
 5376TIP3    H240324   5.225   1.036  17.429 -0.4761  0.2275 -0.0995
 5377TIP3   OH240325   6.903   0.268  15.703 -0.3043  0.2270  0.5292
 5377TIP3    H140326   6.908   0.258  15.798 -1.2382  0.2433  0.5935
 5377TIP3    H240327   6.827   0.216  15.678 -1.0033  1.4717 -0.0155
 5378TIP3   OH240328   5.447   2.771  16.875 -0.0847 -0.5882 -0.5170
 5378TIP3    H140329   5.428   2.807  16.788 -1.1319 -0.5235 -0.2722
 5378TIP3    H240330   5.444   2.846  16.934  0.5588 -0.6429 -0.4090
 5379TIP3   OH240331   1.705   1.897  17.563 -0.1586 -0.6142 -0.3557
 5379TIP3    H140332   1.661   1.845  17.630 -0.6928 -0.6908 -0.7680
 5379TIP3    H240333   1.644   1.968  17.544  0.2308 -0.2801 -0.3683
 5380TIP3   OH240334   1.215   7.433  16.840  0.1447 -0.0913 -0.1514
 5380TIP3    H140335   1.151   7.453  16.771  0.0081 -0.1846 -0.0543
 5380TIP3    H240336   1.250   7.518  16.866 -0.4940  0.0340  0.3216
 5381TIP3   OH240337   5.222   0.421  17.678 -0.6226  0.1012 -0.0791
 5381TIP3    H140338   5.176   0.338  17.690 -0.6565  0.3957  2.2591
 5381TIP3    H240339   5.313   0.401  17.700 -0.3787  0.4203 -0.7577
 5382TIP3   OH240340   5.347   3.719  17.932  0.2415 -0.5838 -0.3750
 5382TIP3    H140341   5.437   3.684  17.929 -0.3061 -2.0724 -0.2028
 5382TIP3    H240342   5.317   3.702  18.021 -0.6518 -1.2513 -0.7940
 5383TIP3   OH240343   8.342   5.685  17.038 -0.2502  0.5631 -0.2996
 5383TIP3    H140344   8.301   5.751  17.095  0.8340 -0.4774  1.7961
 5383TIP3    H240345   8.426   5.723  17.014  1.0220 -0.5169  2.1002
 5384TIP3   OH240346   5.409   6.040  17.601  0.3216 -0.6355  0.3670
 5384TIP3    H140347   5.430   6.130  17.577 -1.0824 -0.8532 -2.0121
 5384TIP3    H240348   5.350   6.047  17.676 -0.5149  0.4981 -0.3700
 5385TIP3   OH240349   1.567   5.864  17.039  0.2377  0.2276 -0.1697
 5385TIP3    H140350   1.574   5.908  16.955 -2.8027 -0.5354 -0.9651
 5385TIP3    H240351   1.607   5.778  17.025  0.4080  0.3757 -0.5986
 5386TIP3   OH240352   5.001   7.324  17.641  0.1866  0.7769  0.0228
 5386TIP3    H140353   5.065   7.382  17.601 -0.0564  1.0487  0.0270
 5386TIP3    H240354   4.917   7.356  17.609  0.0251  0.6801  0.3511
 5387TIP3   OH240355   2.385   1.914  16.016 -0.2501  0.2308 -0.6746
 5387TIP3    H140356   2.324   1.847  16.048 -0.2973  1.0045  0.9831
 5387TIP3    H240357   2.471   1.880  16.041 -0.2206  0.4491 -0.4802
 5388TIP3   OH240358   6.741   1.185  15.647 -0.3304  0.6134 -0.0535
 5388TIP3    H140359   6.824   1.219  15.615  1.1367 -2.0507  0.5677
 5388TIP3    H240360   6.724   1.235  15.728  0.6752  1.1683 -0.1733
 5389TIP3   OH240361   4.818   4.931  17.430 -0.3301 -0.2928  0.5395
 5389TIP3    H140362   4.845   4.916  17.340 -0.4666  0.3622  0.3802
 5389TIP3    H240363   4.792   4.845  17.463  0.4103 -0.6520  0.1876
 5390TIP3   OH240364   4.591   3.140  17.366  0.4123  0.6072  0.1155
 5390TIP3    H140365   4.604   3.232  17.388  0.1624  0.5666  0.4255
 5390TIP3    H240366   4.627   3.092  17.440  1.3940  0.4285 -0.4528
 5391TIP3   OH240367   6.055   0.780  10.702  0.0884 -0.5078 -0.0900
 5391TIP3    H140368   5.997   0.855  10.689  0.3755 -0.6325 -2.6303
 5391TIP3    H240369   6.000   0.714  10.744 -1.0697  0.0497 -0.6845
 5392TIP3   OH240370   4.185   5.236  10.562  0.8975 -0.5077 -0.3457
 5392TIP3    H140371   4.170   5.328  10.584 -1.2200 -1.1838  1.3707
 5392TIP3    H240372   4.143   5.224  10.477  2.1580  0.3003 -1.1307
 5393TIP3   OH240373   2.152   2.258  11.256  0.1737  0.0349  0.3781
 5393TIP3    H140374   2.059   2.271  11.276  0.1573  1.2208 -0.3611
 5393TIP3    H240375   2.197   2.273  11.339 -0.3405 -1.6817  1.0273
 5394TIP3   OH240376   7.414   5.980  11.218 -0.1493 -0.1262 -0.2638
 5394TIP3    H140377   7.403   6.044  11.147 -0.7836  0.6660  0.5181
 5394TIP3    H240378   7.401   5.895  11.176 -2.9900  0.4143 -0.6846
 5395TIP3   OH240379   8.418   4.255  11.083 -0.3951 -0.2190 -0.0812
 5395TIP3    H140380   8.392   4.232  10.993 -0.4107 -1.9237  0.3320
 5395TIP3    H240381   8.335   4.260  11.131 -0.2922 -0.8128  0.1642
 5396TIP3   OH240382   1.837   4.129  11.136  0.2350 -0.6646 -0.0842
 5396TIP3    H140383   1.747   4.107  11.112  0.9780 -0.9087 -3.0328
 5396TIP3    H240384   1.829   4.180  11.216 -2.4423 -1.3532  0.1858
 5397TIP3   OH240385   7.646   0.955  11.648 -0.7213 -0.3781 -0.0888
 5397TIP3    H140386   7.584   1.006  11.700 -1.4691 -0.9780 -0.3773
 5397TIP3    H240387   7.634   0.865  11.677 -1.3032 -0.7608 -1.4298
 5398TIP3   OH240388   7.054   0.550  10.638  0.2214 -0.7196 -0.7975
 5398TIP3    H140389   7.022   0.552  10.729  1.6376 -0.0606 -0.2800
 5398TIP3    H240390   6.989   0.600  10.589 -0.0443 -0.2115  0.0408
 5399TIP3   OH240391   4.628   6.057  11.569  0.3724 -0.0117 -0.0226
 5399TIP3    H140392   4.608   6.144  11.533 -2.3201 -0.9054 -0.9186
 5399TIP3    H240393   4.602   6.063  11.661  0.2702  0.1671 -0.0616
 5400TIP3   OH240394   1.716   4.748  11.767 -0.4131 -0.4657  0.6808
 5400TIP3    H140395   1.766   4.695  11.704 -0.8843 -0.7720  0.5654
 5400TIP3    H240396   1.673   4.814  11.712  0.7735  0.5361  0.8948
 5401TIP3   OH240397   6.982   3.188  12.304 -0.1133 -0.2186  0.2297
 5401TIP3    H140398   6.894   3.211  12.331  0.7495  0.6362  2.5041
 5401TIP3    H240399   7.000   3.244  12.229 -1.8519 -1.2057 -0.9943
 5402TIP3   OH240400   0.968   1.906  11.400  0.3952 -0.6351  0.1366
 5402TIP3    H140401   0.875   1.929  11.398  0.2012 -1.3486 -2.2166
 5402TIP3    H240402   1.007   1.970  11.460 -1.4388  0.3577  0.3534
 5403TIP3   OH240403   0.419   0.114  11.696  0.2481 -0.2707 -0.1601
 5403TIP3    H140404   0.456   0.156  11.618  0.8737 -1.5855 -0.6050
 5403TIP3    H240405   0.477   0.142  11.767 -0.5691  1.2714 -0.0635
 5404TIP3   OH240406   7.706   7.246  12.203  0.3432 -0.2912  0.5429
 5404TIP3    H140407   7.683   7.251  12.295 -1.1882 -0.8515  0.2238
 5404TIP3    H240408   7.801   7.229  12.203  0.4126 -0.0239  1.9883
 5405TIP3   OH240409   2.328   0.429  10.732  0.4228  0.3037 -0.2688
 5405TIP3    H140410   2.371   0.493  10.788  1.3858 -0.6179  0.0697
 5405TIP3    H240411   2.250   0.475  10.699  0.7399  1.4167  0.4719
 5406TIP3   OH240412   5.008   4.992  11.855 -0.0639 -0.1117 -0.1539
 5406TIP3    H140413   4.994   4.900  11.831 -1.0988  0.0574 -0.2326
 5406TIP3    H240414   4.932   5.013  11.910  0.3172  0.6142  0.0940
 5407TIP3   OH240415   2.768   7.585  11.852 -0.1009  0.2348 -0.7924
 5407TIP3    H140416   2.806   7.658  11.802 -0.2595  0.4842 -0.5494
 5407TIP3    H240417   2.727   7.530  11.786 -0.0279  0.3945 -0.9719
 5408TIP3   OH240418   7.501   5.048  11.688  1.2648  0.1483 -0.5465
 5408TIP3    H140419   7.503   4.955  11.663 -1.1655 -0.5409  1.4465
 5408TIP3    H240420   7.480   5.048  11.781  1.4060  2.7226 -0.4398
 5409TIP3   OH240421   3.295   2.062  11.142 -0.2391  0.2442 -0.2765
 5409TIP3    H140422   3.270   2.153  11.159  0.2856  0.1815  0.9406
 5409TIP3    H240423   3.354   2.040  11.214 -0.3915 -1.0758 -0.5341
 5410TIP3   OH240424   7.640   1.826  11.314  0.5934  0.0331 -0.0126
 5410TIP3    H140425   7.664   1.755  11.373  0.6149  0.0859  0.0428
 5410TIP3    H240426   7.724   1.867  11.291  0.8660 -1.4323 -1.9513
 5411TIP3   OH240427   2.448   0.817  10.314 -0.1259 -0.6484 -0.3921
 5411TIP3    H140428   2.435   0.883  10.246  0.6092 -1.2313 -1.1328
 5411TIP3    H240429   2.427   0.734  10.271 -0.0089 -0.9941  0.2049
 5412TIP3   OH240430   6.584   1.080  12.445  0.2769  0.2909  0.2985
 5412TIP3    H140431   6.536   1.119  12.519 -0.7640  1.5654 -0.9907
 5412TIP3    H240432   6.674   1.109  12.457  0.2587 -0.0326  1.3842
 5413TIP3   OH240433   1.119   3.119  10.949  0.2536  0.1857  0.3152
 5413TIP3    H140434   1.069   3.064  11.009  0.9615  0.5944  1.3177
 5413TIP3    H240435   1.092   3.092  10.862 -0.3953 -0.8090  0.8151
 5414TIP3   OH240436   7.535   1.984  12.076 -0.5230 -0.0761 -0.6219
 5414TIP3    H140437   7.509   1.982  11.984  1.1156  0.3435 -1.1187
 5414TIP3    H240438   7.520   2.075  12.104  1.2631  0.4413 -1.2065
 5415TIP3   OH240439   1.762   1.527  11.866 -0.0579 -0.3291 -0.5963
 5415TIP3    H140440   1.804   1.596  11.918 -1.0131 -0.0868 -0.1296
 5415TIP3    H240441   1.766   1.559  11.776 -0.9003  0.5634 -0.3319
 5416TIP3   OH240442   1.044   0.193  11.751  0.2665  0.2726  0.5054
 5416TIP3    H140443   0.958   0.217  11.716  0.8151  0.4862 -0.7218
 5416TIP3    H240444   1.101   0.187  11.675  1.0209 -1.3493  1.1385
 5417TIP3   OH240445   7.360   2.743  11.072  0.3476 -0.0750  0.0007
 5417TIP3    H140446   7.283   2.688  11.085  0.2055  0.2846  0.7424
 5417TIP3    H240447   7.431   2.682  11.056  0.1826 -0.4824  0.7731
 5418TIP3   OH240448   0.187   7.133  10.591 -0.4180  0.2666 -0.3477
 5418TIP3    H140449   0.260   7.167  10.642 -1.4813 -0.5170  1.8435
 5418TIP3    H240450   0.129   7.208  10.579 -0.5857  0.2728  0.4422
 5419TIP3   OH240451   2.498   2.487  11.598 -0.1275  0.1029 -0.2377
 5419TIP3    H140452   2.502   2.581  11.579 -3.1112  0.1992 -0.7672
 5419TIP3    H240453   2.528   2.445  11.518 -2.0076  0.6308 -1.2812
 5420TIP3   OH240454   2.474   1.255  11.439 -0.1137  0.2555 -0.3240
 5420TIP3    H140455   2.519   1.339  11.439  1.4027 -0.4476  2.0873
 5420TIP3    H240456   2.454   1.239  11.347  1.0643  2.4448 -1.0544
 5421TIP3   OH240457   6.720   0.277  12.807 -0.0925 -0.1073  0.0001
 5421TIP3    H140458   6.686   0.352  12.856  0.1194 -0.2707  0.3999
 5421TIP3    H240459   6.770   0.316  12.735  0.2142  0.1366  0.3436
 5422TIP3   OH240460   0.598   6.269  11.135 -0.1444  0.0793  0.2160
 5422TIP3    H140461   0.681   6.316  11.136 -0.6638  1.0366 -0.2892
 5422TIP3    H240462   0.595   6.228  11.048  0.2981 -0.8830  0.6478
 5423TIP3   OH240463   5.823   5.506  12.016 -0.3700  0.4850  0.1806
 5423TIP3    H140464   5.797   5.468  12.099 -1.3376 -0.8535 -0.6949
 5423TIP3    H240465   5.741   5.520  11.969  0.2623 -2.3385 -2.0101
 5424TIP3   OH240466   4.562   8.399  11.813 -0.5426  0.3603  0.4326
 5424TIP3    H140467   4.485   8.364  11.859 -0.5978  0.2778  0.2787
 5424TIP3    H240468   4.561   8.354  11.728 -0.8972  1.1078  0.0346
 5425TIP3   OH240469   6.194   1.685  12.344  0.0480  0.2256  1.1088
 5425TIP3    H140470   6.178   1.597  12.311 -1.8501  1.0979 -0.5472
 5425TIP3    H240471   6.123   1.701  12.406  0.2383  0.6893  1.2108
 5426TIP3   OH240472   8.011   1.541  11.582 -0.3762 -0.2610  0.6331
 5426TIP3    H140473   7.923   1.570  11.560 -0.1174 -0.4081 -0.6317
 5426TIP3    H240474   7.998   1.466  11.641 -1.1383 -1.3327 -0.8407
 5427TIP3   OH240475   4.532   8.428  10.596  0.2245 -0.1023  0.3667
 5427TIP3    H140476   4.598   8.471  10.650  1.7839 -0.1816 -1.3962
 5427TIP3    H240477   4.536   8.336  10.622  2.9919 -0.6901 -1.7054
 5428TIP3   OH240478   2.028   7.877  11.941  0.1027  0.4112  0.3614
 5428TIP3    H140479   2.029   7.919  11.855 -0.4510 -0.5156 -0.1160
 5428TIP3    H240480   2.110   7.828  11.945 -0.8339 -1.3697 -0.6165
 5429TIP3   OH240481   0.696   0.422  11.183 -0.3484 -0.2640  0.2648
 5429TIP3    H140482   0.712   0.516  11.188 -2.0325  0.0154  0.8552
 5429TIP3    H240483   0.739   0.394  11.102  0.1198  1.0164  0.0617
 5430TIP3   OH240484   2.663   7.859  11.994  0.1265  0.2490 -0.8792
 5430TIP3    H140485   2.677   7.824  11.905  0.6335 -0.0303 -0.6960
 5430TIP3    H240486   2.749   7.894  12.018  0.1616 -0.2556 -0.2498
 5431TIP3   OH240487   4.229   7.474  11.513 -0.0236  0.1747  0.1342
 5431TIP3    H140488   4.150   7.521  11.487 -0.2247 -0.4967 -0.4880
 5431TIP3    H240489   4.273   7.453  11.431 -0.8090 -2.2090  0.2269
 5432TIP3   OH240490   7.552   6.677  11.177 -0.0192  0.0946  0.1800
 5432TIP3    H140491   7.463   6.690  11.143 -0.4182  0.7561  1.4076
 5432TIP3    H240492   7.608   6.728  11.118 -0.4193 -0.4583 -0.7002
 5433TIP3   OH240493   2.534   6.178  10.458  0.0994 -0.2064  0.1632
 5433TIP3    H140494   2.542   6.244  10.390 -0.0505 -0.3360  0.0186
 5433TIP3    H240495   2.446   6.191  10.494  0.4905  0.4172  0.9160
 5434TIP3   OH240496   2.073   0.112  11.876  0.3559 -0.0556  0.0270
 5434TIP3    H140497   2.163   0.139  11.860  0.2689  0.3614  0.2389
 5434TIP3    H240498   2.069   0.021  11.845  0.6826  0.1283 -0.5481
 5435TIP3   OH240499   2.505   1.195  10.822 -0.2433  0.1176 -0.3641
 5435TIP3    H140500   2.542   1.258  10.759 -1.0854 -0.8346 -1.8499
 5435TIP3    H240501   2.427   1.161  10.779 -0.0755 -1.5908  0.6192
 5436TIP3   OH240502   7.091   2.957  11.097 -0.4121 -0.2331 -0.0076
 5436TIP3    H140503   7.038   3.037  11.100 -0.7444 -0.4672  0.6283
 5436TIP3    H240504   7.028   2.888  11.075 -0.1158 -0.3118 -0.6113
 5437TIP3   OH240505   0.967   1.800  11.929 -0.1252 -0.0136  0.0280
 5437TIP3    H140506   1.022   1.746  11.986 -1.1229  0.0838  1.1357
 5437TIP3    H240507   0.976   1.761  11.842  1.3036 -0.2757  0.2735
 5438TIP3   OH240508   3.158   1.766  11.681  0.2805  0.8154  0.0902
 5438TIP3    H140509   3.133   1.838  11.739 -1.0637  0.6687 -0.2701
 5438TIP3    H240510   3.078   1.714  11.673  1.2601 -0.8393  0.5018
 5439TIP3   OH240511   7.071   1.247  12.164 -0.0877  0.5696  0.1004
 5439TIP3    H140512   7.047   1.163  12.202 -0.0318 -0.3768 -1.8574
 5439TIP3    H240513   6.987   1.285  12.137 -0.0131  0.6204 -0.0594
 5440TIP3   OH240514   4.287   3.872  11.218  0.2361 -0.1611 -0.8238
 5440TIP3    H140515   4.284   3.945  11.157  0.2436 -0.4319 -1.1500
 5440TIP3    H240516   4.225   3.897  11.287  1.3114  0.8188 -0.1666
 5441TIP3   OH240517   0.495   5.080  12.093  0.2651  0.0290 -0.1466
 5441TIP3    H140518   0.427   5.088  12.025  1.2744  0.6874 -1.1217
 5441TIP3    H240519   0.563   5.142  12.066  1.8739 -1.5693  0.0543
 5442TIP3   OH240520   5.472   2.612  12.666 -0.0781  0.3680  0.0477
 5442TIP3    H140521   5.511   2.550  12.728  0.4363  0.2459 -0.3908
 5442TIP3    H240522   5.537   2.620  12.596 -0.7985  0.2247 -0.6579
 5443TIP3   OH240523   0.111   7.431  12.562  0.1090  0.1337 -0.4861
 5443TIP3    H140524   0.134   7.355  12.616 -0.5300 -0.5541 -1.1567
 5443TIP3    H240525   0.109   7.397  12.472 -2.2478  0.4068 -0.6125
 5444TIP3   OH240526   0.583   0.670  10.389 -0.5675  0.1623  0.0148
 5444TIP3    H140527   0.513   0.681  10.453  0.1643  1.0965  0.6696
 5444TIP3    H240528   0.659   0.644  10.440 -0.6326 -1.8046 -0.7993
 5445TIP3   OH240529   1.078   7.560  10.416  0.3646  0.1634 -0.0786
 5445TIP3    H140530   1.127   7.595  10.342 -0.0075 -0.0700 -0.4411
 5445TIP3    H240531   1.135   7.491  10.451  0.5522  0.2919 -0.1266
 5446TIP3   OH240532   6.095   1.728  10.624 -0.2069  0.8103  0.6749
 5446TIP3    H140533   6.120   1.797  10.562  1.0861 -0.7736 -0.6794
 5446TIP3    H240534   6.117   1.646  10.579  0.2853 -0.4472  3.0218
 5447TIP3   OH240535   7.334   7.554  11.274  0.4159  0.1225  0.4484
 5447TIP3    H140536   7.306   7.486  11.212 -2.2426  0.1899  1.4444
 5447TIP3    H240537   7.315   7.637  11.229 -0.1934  0.1728  0.7862
 5448TIP3   OH240538   0.813   6.761  12.333  0.5427 -0.1014  0.7577
 5448TIP3    H140539   0.752   6.834  12.341  2.0467  1.1473  1.3078
 5448TIP3    H240540   0.763   6.692  12.290 -1.4591  0.6065  1.8384
 5449TIP3   OH240541   0.197   7.881  12.301 -0.1145  0.0443 -0.4192
 5449TIP3    H140542   0.281   7.912  12.335  0.1901  0.5428 -1.5683
 5449TIP3    H240543   0.146   7.961  12.289 -0.7443 -0.2557  0.2355
 5450TIP3   OH240544   8.336   6.455  10.711 -0.0816 -0.3106 -0.2186
 5450TIP3    H140545   8.337   6.459  10.615  1.4937  0.8125 -0.1986
 5450TIP3    H240546   8.291   6.535  10.738  0.1256 -0.2591 -0.0238
 5451TIP3   OH240547   5.521   6.228  12.859  0.3908 -0.2933 -0.2515
 5451TIP3    H140548   5.545   6.283  12.784  0.9859  0.7218  0.6560
 5451TIP3    H240549   5.566   6.145  12.842 -1.5908 -1.0834 -2.3157
 5452TIP3   OH240550   8.309   4.280  12.118 -0.5383 -0.3431 -0.0661
 5452TIP3    H140551   8.341   4.358  12.073 -4.6208  0.5033 -1.9234
 5452TIP3    H240552   8.316   4.210  12.053  1.8082 -1.3835  1.1463
 5453TIP3   OH240553   1.827   5.625  10.562  0.1480 -0.5251 -0.3974
 5453TIP3    H140554   1.846   5.615  10.656 -0.2075 -2.4043 -0.4911
 5453TIP3    H240555   1.739   5.591  10.552  0.9382 -2.3433 -1.7178
 5454TIP3   OH240556   5.805   0.747  11.087  0.2172  0.1780  0.2037
 5454TIP3    H140557   5.729   0.792  11.050  0.4272  0.0943 -0.3421
 5454TIP3    H240558   5.855   0.816  11.132 -0.3726  0.1636  0.8937
 5455TIP3   OH240559   5.864   5.844  10.850 -0.3244  0.3327 -0.4554
 5455TIP3    H140560   5.862   5.749  10.861  0.2906  0.5957  3.5395
 5455TIP3    H240561   5.947   5.861  10.806  0.8198 -0.9271  1.0857
 5456TIP3   OH240562   1.415   4.800  10.984 -0.2404 -0.0283  0.4692
 5456TIP3    H140563   1.441   4.846  10.904 -0.6351  0.9706  0.9032
 5456TIP3    H240564   1.335   4.754  10.961  0.2956 -0.7337 -0.0410
 5457TIP3   OH240565   8.023   0.251  11.056 -0.1997  0.2131 -0.0805
 5457TIP3    H140566   7.936   0.284  11.035  0.1896  0.1174 -2.0343
 5457TIP3    H240567   8.011   0.157  11.069 -0.2860  0.0767 -1.0907
 5458TIP3   OH240568   3.687   2.850  11.022  0.2339  0.0681 -0.0166
 5458TIP3    H140569   3.665   2.759  11.000 -1.8281  0.2238  1.1444
 5458TIP3    H240570   3.772   2.844  11.064 -0.9865 -1.7427  2.4168
 5459TIP3   OH240571   3.955   5.785  11.511  0.2972 -0.6298  0.4711
 5459TIP3    H140572   3.920   5.759  11.597  0.1489 -1.0548  0.2868
 5459TIP3    H240573   4.030   5.840  11.531  0.6591 -1.2602  0.8787
 5460TIP3   OH240574   2.917   3.621  10.752  0.1318  0.4661  0.0941
 5460TIP3    H140575   2.993   3.650  10.802 -0.2332  0.1532  0.8419
 5460TIP3    H240576   2.953   3.591  10.669  0.8552  0.1271  0.5207
 5461TIP3   OH240577   5.057   1.980  11.942  0.3431  0.2740  0.5078
 5461TIP3    H140578   5.024   2.054  11.891  1.2754  1.7535  1.9532
 5461TIP3    H240579   4.993   1.910  11.927 -0.8841  1.5432 -0.4478
 5462TIP3   OH240580   4.806   3.242  10.639  0.5726 -0.4457  0.1148
 5462TIP3    H140581   4.801   3.149  10.662 -2.2861 -0.7766 -1.3839
 5462TIP3    H240582   4.722   3.261  10.600  1.5786  2.4950 -0.8604
 5463TIP3   OH240583   0.142   6.500  11.641 -0.3265 -0.4529 -0.0369
 5463TIP3    H140584   0.131   6.587  11.679  0.8227 -0.4153  0.2297
 5463TIP3    H240585   0.137   6.514  11.546  0.2874 -0.0340 -0.0094
 5464TIP3   OH240586   4.531   1.222  12.407 -0.2960  0.6471  0.0777
 5464TIP3    H140587   4.522   1.186  12.495 -0.7737  1.9392  0.5797
 5464TIP3    H240588   4.591   1.162  12.362  0.3892  0.2770  1.4473
 5465TIP3   OH240589   7.350   3.465  10.724 -0.2303 -0.3771  0.0538
 5465TIP3    H140590   7.308   3.442  10.806 -1.4653  1.3240 -0.0549
 5465TIP3    H240591   7.428   3.514  10.749  0.3823 -1.4081  0.2153
 5466TIP3   OH240592   7.827   1.829  11.617  0.3115 -0.0541 -0.3564
 5466TIP3    H140593   7.834   1.881  11.698  0.7794 -0.2783 -0.2541
 5466TIP3    H240594   7.765   1.879  11.563  0.3291  0.3252 -0.0365
 5467TIP3   OH240595   2.385   7.702  11.049 -0.2850  0.3056 -0.5506
 5467TIP3    H140596   2.304   7.659  11.077 -0.0760 -0.8998 -1.6819
 5467TIP3    H240597   2.368   7.727  10.958  0.3608  0.7169 -0.5594
 5468TIP3   OH240598   7.287   3.946  11.022  0.3432  0.5995  0.0125
 5468TIP3    H140599   7.357   3.907  10.969 -0.2739 -0.9610  0.3169
 5468TIP3    H240600   7.214   3.956  10.961  0.2224  0.5101  0.1442
 5469TIP3   OH240601   0.299   0.618  11.595 -0.0898 -0.2165  0.1622
 5469TIP3    H140602   0.285   0.523  11.593 -3.1233 -0.0275  2.9351
 5469TIP3    H240603   0.232   0.653  11.536  0.1571  0.2700  0.1661
 5470TIP3   OH240604   4.084   1.309  11.875 -0.0438 -0.6459  0.3028
 5470TIP3    H140605   4.111   1.334  11.786  1.7401  0.7011  1.1387
 5470TIP3    H240606   4.126   1.224  11.890  2.3934  0.5528  0.8914
 5471TIP3   OH240607   4.289   7.913  12.369  0.0102  0.3265  0.1043
 5471TIP3    H140608   4.319   7.860  12.443  0.5492 -0.2839 -0.5422
 5471TIP3    H240609   4.223   7.971  12.407  0.8615  0.5922  1.2247
 5472TIP3   OH240610   4.649   1.923  10.914  0.2109  0.2601  0.1174
 5472TIP3    H140611   4.718   1.865  10.945  0.1117  0.2350  0.2903
 5472TIP3    H240612   4.663   2.005  10.960  0.0308  0.2057  0.2704
 5473TIP3   OH240613   0.437   5.404  11.197 -0.0288  0.4041 -0.0087
 5473TIP3    H140614   0.522   5.383  11.157 -1.0482  1.1761 -2.7644
 5473TIP3    H240615   0.406   5.320  11.230  1.1334 -0.1867 -0.3421
 5474TIP3   OH240616   0.378   8.076  11.819  0.0854  0.2859  0.0040
 5474TIP3    H140617   0.443   8.055  11.886 -1.7181 -2.4679  1.0374
 5474TIP3    H240618   0.330   8.150  11.855  1.8613  1.6549 -0.2917
 5475TIP3   OH240619   6.852   6.971  11.531  0.8841 -0.0585 -0.1383
 5475TIP3    H140620   6.766   7.006  11.507  1.0070 -0.3881 -1.1142
 5475TIP3    H240621   6.845   6.877  11.514  1.8191  0.0878 -1.4450
 5476TIP3   OH240622   5.904   7.096  12.280 -0.4529 -0.5581 -0.2284
 5476TIP3    H140623   5.908   7.184  12.243 -0.3845  0.0595  1.1771
 5476TIP3    H240624   5.828   7.098  12.339 -0.8162 -1.6330 -0.6180
 5477TIP3   OH240625   0.871   2.646  11.892  0.0880 -0.3375  0.1703
 5477TIP3    H140626   0.783   2.624  11.920 -0.4018  0.2890 -0.8458
 5477TIP3    H240627   0.928   2.607  11.959 -1.0139  0.6558  1.7453
 5478TIP3   OH240628   2.038   5.154  11.719  0.0992  0.0348 -0.0563
 5478TIP3    H140629   2.132   5.173  11.725 -0.2144  1.1752  2.9595
 5478TIP3    H240630   2.032   5.059  11.735  0.6977  0.0348  0.2114
 5479TIP3   OH240631   1.459   2.998  11.927  0.2361  0.3389  0.5713
 5479TIP3    H140632   1.364   3.011  11.934  0.0946  1.2052 -1.9805
 5479TIP3    H240633   1.496   3.062  11.987 -0.7513 -0.5778  2.2455
 5480TIP3   OH240634   3.289   4.611  12.501 -0.0619  0.0571  0.1684
 5480TIP3    H140635   3.359   4.545  12.495 -0.7295 -0.5708 -0.9750
 5480TIP3    H240636   3.335   4.693  12.516  0.8523 -0.5061  0.5695
 5481TIP3   OH240637   0.731   3.657  10.672 -0.1870 -0.1674  0.1883
 5481TIP3    H140638   0.801   3.591  10.671 -0.2013 -0.1774 -0.1481
 5481TIP3    H240639   0.663   3.618  10.727  0.0405 -0.1907  0.4542
 5482TIP3   OH240640   8.283   6.840  11.796 -0.6081  0.3176 -0.3287
 5482TIP3    H140641   8.328   6.843  11.711  0.2516  0.0881  0.1094
 5482TIP3    H240642   8.310   6.920  11.841 -0.8750  0.3230 -0.1780
 5483TIP3   OH240643   3.488   2.985  11.158  0.6407  0.0601 -0.9884
 5483TIP3    H140644   3.526   2.949  11.078 -0.5952  1.4814 -2.2787
 5483TIP3    H240645   3.394   2.975  11.146  0.4470 -1.2561  1.0950
 5484TIP3   OH240646   0.867   5.857  11.392  0.5999  0.2319  0.0917
 5484TIP3    H140647   0.941   5.886  11.445  0.3885  0.6209  0.1800
 5484TIP3    H240648   0.857   5.926  11.326 -0.1781  0.5819  0.5655
 5485TIP3   OH240649   0.605   5.567  11.866  0.0103 -0.1415  0.1234
 5485TIP3    H140650   0.699   5.578  11.854  0.5806 -1.9415  2.2813
 5485TIP3    H240651   0.579   5.505  11.798  0.2649  0.7134 -0.7680
 5486TIP3   OH240652   4.669   3.268  11.117  0.3722  0.8001  0.0287
 5486TIP3    H140653   4.661   3.340  11.054 -0.7621  0.5453 -0.1444
 5486TIP3    H240654   4.596   3.210  11.096  0.7827  0.0173  0.7106
 5487TIP3   OH240655   4.311   5.925  12.766  0.3286  0.2042  0.3522
 5487TIP3    H140656   4.375   5.950  12.833  0.2533  0.2207  0.4180
 5487TIP3    H240657   4.307   6.000  12.707 -1.1227  1.0193  1.4603
 5488TIP3   OH240658   0.405   5.183  12.611 -0.2744 -0.3751 -0.3019
 5488TIP3    H140659   0.339   5.123  12.577  0.9441 -0.2469 -3.2233
 5488TIP3    H240660   0.359   5.266  12.622 -0.7868 -0.4568 -1.6713
 5489TIP3   OH240661   3.543   0.596  11.982 -0.3786 -0.3917  0.1072
 5489TIP3    H140662   3.492   0.604  12.062 -2.4901  0.5156 -1.2601
 5489TIP3    H240663   3.631   0.627  12.006 -1.1933  0.6760  1.8513
 5490TIP3   OH240664   0.656   5.314  12.033 -0.6604 -0.4443 -0.3108
 5490TIP3    H140665   0.710   5.364  11.973 -0.2920  0.1515  0.4948
 5490TIP3    H240666   0.626   5.378  12.098 -1.5502 -0.9500 -0.2014
 5491TIP3   OH240667   5.029   2.433  11.065 -0.1472 -0.2839 -0.4675
 5491TIP3    H140668   5.083   2.509  11.088  0.2753 -0.6796 -0.1497
 5491TIP3    H240669   5.031   2.377  11.143  0.7955 -1.3492 -1.2350
 5492TIP3   OH240670   6.491   1.665  10.826  0.2396  0.3874 -0.3159
 5492TIP3    H140671   6.567   1.659  10.769  0.9769 -0.7632  0.7355
 5492TIP3    H240672   6.445   1.744  10.798  1.8266  1.1064 -0.9630
 5493TIP3   OH240673   5.804   6.733  12.119 -0.9876  0.5712  0.4955
 5493TIP3    H140674   5.873   6.787  12.081  0.4908 -0.0818  2.1118
 5493TIP3    H240675   5.850   6.655  12.151 -3.0814 -1.9849 -2.1847
 5494TIP3   OH240676   3.884   5.421  13.024  0.1320  0.3296 -0.3196
 5494TIP3    H140677   3.831   5.471  13.086 -1.1712 -0.0985 -1.0423
 5494TIP3    H240678   3.841   5.335  13.019  1.0824 -0.1446 -0.7072
 5495TIP3   OH240679   2.550   5.713  12.390  0.6497 -0.1706  0.1893
 5495TIP3    H140680   2.600   5.794  12.402  0.8101 -0.3803  0.9740
 5495TIP3    H240681   2.471   5.741  12.344 -0.3540  0.8211  2.3877
 5496TIP3   OH240682   5.262   2.092  11.662  0.1809  0.5482 -0.8857
 5496TIP3    H140683   5.196   2.079  11.594 -1.5275  0.8155  0.6129
 5496TIP3    H240684   5.219   2.150  11.725  1.4516 -0.1702  0.7095
 5497TIP3   OH240685   7.929   1.862  12.430  0.3069 -0.5277  0.2825
 5497TIP3    H140686   7.986   1.932  12.400 -0.5792  0.2233  0.2986
 5497TIP3    H240687   7.842   1.886  12.398 -0.0303 -1.5606  0.3899
 5498TIP3   OH240688   4.655   5.903  12.559  0.2357  0.3968  0.0389
 5498TIP3    H140689   4.724   5.949  12.512  0.2298  0.8627  0.4828
 5498TIP3    H240690   4.691   5.816  12.577  0.3066  0.2813 -0.6561
 5499TIP3   OH240691   4.419   3.944  11.850 -0.3937 -0.5452 -0.4129
 5499TIP3    H140692   4.332   3.977  11.870  0.2976  0.9963  0.1368
 5499TIP3    H240693   4.419   3.933  11.754 -0.9140  0.2478 -0.5089
 5500TIP3   OH240694   1.247   5.482  10.922  0.8041  0.1470  0.3450
 5500TIP3    H140695   1.202   5.460  10.841  1.6814 -1.1273  0.1640
 5500TIP3    H240696   1.177   5.501  10.985  0.0592 -0.8257 -0.1740
 5501TIP3   OH240697   7.890   0.122  11.370 -0.5608  0.2845  0.0151
 5501TIP3    H140698   7.889   0.060  11.443  1.7008 -1.1260 -1.0403
 5501TIP3    H240699   7.797   0.133  11.346 -1.0739 -2.4343  0.4719
 5502TIP3   OH240700   7.365   1.243  12.030  0.0035  0.3140  0.0814
 5502TIP3    H140701   7.282   1.266  12.070 -0.6026 -0.2467 -0.8170
 5502TIP3    H240702   7.412   1.195  12.098 -0.0474  1.3490  0.8717
 5503TIP3   OH240703   6.454   6.149  10.752 -0.7636 -0.3134  0.2756
 5503TIP3    H140704   6.414   6.075  10.706 -0.8230 -0.4957  0.6179
 5503TIP3    H240705   6.393   6.221  10.740  0.7548  0.6466 -2.8324
 5504TIP3   OH240706   1.493   6.649  11.026  0.3928  0.1947 -0.2076
 5504TIP3    H140707   1.439   6.713  10.981 -0.1219 -1.9412 -2.9111
 5504TIP3    H240708   1.581   6.685  11.023 -0.1836  1.7052  0.2791
 5505TIP3   OH240709   4.519   0.999  10.554  0.0771 -0.2473  0.6076
 5505TIP3    H140710   4.426   0.997  10.533  0.4115 -0.6265 -1.0072
 5505TIP3    H240711   4.524   1.044  10.638 -1.6414 -1.1993  1.2729
 5506TIP3   OH240712   8.201   0.027  10.873  0.4485 -0.2886 -0.1562
 5506TIP3    H140713   8.121   0.003  10.827 -0.0873 -0.6401  0.9161
 5506TIP3    H240714   8.178   0.106  10.922  1.3694  0.8102 -1.4254
 5507TIP3   OH240715   4.128   2.898  10.863 -0.0689  0.3617 -0.4879
 5507TIP3    H140716   4.125   2.993  10.874 -3.6202  0.3127  0.2757
 5507TIP3    H240717   4.083   2.863  10.940 -1.0744 -1.7631 -1.9159
 5508TIP3   OH240718   2.574   7.135  12.355  0.0344  0.9377 -0.0471
 5508TIP3    H140719   2.667   7.156  12.352  0.1870  0.5871  1.3524
 5508TIP3    H240720   2.531   7.219  12.370  0.4663  0.7325  3.1564
 5509TIP3   OH240721   7.357   6.778  10.475  0.0883 -0.2640 -0.3690
 5509TIP3    H140722   7.299   6.783  10.399 -0.6858 -1.2443  0.1404
 5509TIP3    H240723   7.310   6.822  10.545  1.6649  2.5178 -0.8992
 5510TIP3   OH240724   0.433   8.230  12.536 -0.2345 -0.3247  0.1443
 5510TIP3    H140725   0.373   8.243  12.462 -0.1384 -1.1118 -0.0848
 5510TIP3    H240726   0.376   8.201  12.608 -0.4581  1.3381  0.6723
 5511TIP3   OH240727   1.976   0.329  11.040 -0.4890  0.4033  0.2381
 5511TIP3    H140728   1.948   0.348  10.950  1.4888  1.4652 -0.1948
 5511TIP3    H240729   1.999   0.415  11.077 -0.3923 -0.1279  1.4693
 5512TIP3   OH240730   3.370   7.199  12.310  0.4726 -0.0158 -0.1825
 5512TIP3    H140731   3.403   7.190  12.400  0.1433  0.8130  0.0238
 5512TIP3    H240732   3.449   7.192  12.255  0.9468  1.3580  0.2791
 5513TIP3   OH240733   0.027   8.377  10.893  0.0902  0.0960  0.3293
 5513TIP3    H140734  -0.053   8.411  10.852  0.6546  0.5790 -0.4004
 5513TIP3    H240735   0.079   8.344  10.820  0.8021  0.3050  0.7330
 5514TIP3   OH240736   3.368   1.399  10.503 -0.4437  0.5881  0.0927
 5514TIP3    H140737   3.296   1.458  10.527  0.9572  2.0278  0.9313
 5514TIP3    H240738   3.370   1.335  10.575 -0.7590  0.6506  0.1621
 5515TIP3   OH240739   5.728   1.808  12.605  0.1405 -0.6129  0.0186
 5515TIP3    H140740   5.679   1.859  12.670  1.8986 -2.0023  2.5922
 5515TIP3    H240741   5.677   1.728  12.594 -0.9301  0.2260 -1.5622
 5516TIP3   OH240742   4.707   4.351  11.948 -0.3919 -0.4108 -0.3009
 5516TIP3    H140743   4.664   4.429  11.912 -1.1391 -0.6518  0.0498
 5516TIP3    H240744   4.673   4.279  11.895  1.0588 -0.4160 -1.2894
 5517TIP3   OH240745   7.156   1.184  17.044  0.0532 -0.1274 -0.2525
 5517TIP3    H140746   7.132   1.250  17.109  1.0803  0.5394 -0.5299
 5517TIP3    H240747   7.081   1.181  16.984 -1.6873 -1.9775  1.8320
 5518TIP3   OH240748   7.179   7.948  10.715 -0.4777 -0.0816 -0.7748
 5518TIP3    H140749   7.083   7.941  10.711 -0.4070 -0.7696 -1.7518
 5518TIP3    H240750   7.208   7.857  10.727  0.0206  0.2798  1.2245
 5519TIP3   OH240751   6.680   1.042  11.493  0.0468  0.5748 -0.1295
 5519TIP3    H140752   6.711   0.991  11.567  3.3424  0.1898 -1.6012
 5519TIP3    H240753   6.647   0.977  11.431  1.7393  0.3628 -0.8802
 5520TIP3   OH240754   6.799   2.550  12.117 -0.5830  0.3088 -0.2690
 5520TIP3    H140755   6.739   2.619  12.147 -1.1856 -0.0136 -0.7176
 5520TIP3    H240756   6.767   2.471  12.160  0.2432  0.3397  0.4186
 5521TIP3   OH240757   4.187   2.204  12.385  0.4824  0.0890  0.3593
 5521TIP3    H140758   4.126   2.131  12.382 -0.2781  0.5504 -4.5334
 5521TIP3    H240759   4.274   2.163  12.388  0.0267 -0.9994 -0.5356
 5522TIP3   OH240760   3.520   1.811  11.249  0.0639 -0.1822 -0.1918
 5522TIP3    H140761   3.461   1.739  11.269  1.4563 -1.1619  0.5408
 5522TIP3    H240762   3.494   1.881  11.309 -0.6588 -0.4130 -0.2235
 5523TIP3   OH240763   2.460   0.618  10.903 -0.5134  0.1520  0.0659
 5523TIP3    H140764   2.535   0.576  10.945 -0.1301  2.3955  1.8655
 5523TIP3    H240765   2.497   0.661  10.825 -0.8554 -2.3732 -1.6057
 5524TIP3   OH240766   4.261   6.060  10.920 -0.2046 -0.2331 -0.0134
 5524TIP3    H140767   4.274   6.018  10.835 -1.1474 -1.9525  0.6295
 5524TIP3    H240768   4.344   6.103  10.939  1.4722 -3.1465 -0.0702
 5525TIP3   OH240769   7.467   2.675  10.759  0.6822  0.0358 -0.2531
 5525TIP3    H140770   7.380   2.638  10.769  0.7638 -0.0878  0.0024
 5525TIP3    H240771   7.507   2.666  10.845 -0.4866  3.8193  0.8917
 5526TIP3   OH240772   8.311   4.497  11.722 -0.1979 -0.1835  0.2489
 5526TIP3    H140773   8.326   4.472  11.631  0.8299  0.0925  0.3389
 5526TIP3    H240774   8.248   4.569  11.717 -0.3644 -0.3555 -0.2214
 5527TIP3   OH240775   4.223   1.005  12.249  0.1894  0.4327  0.1076
 5527TIP3    H140776   4.314   0.980  12.262  0.0423  0.3933  1.1904
 5527TIP3    H240777   4.175   0.956  12.317 -0.7834 -0.3778 -1.1102
 5528TIP3   OH240778   7.068   6.161  12.022  0.4781  0.0918 -0.2878
 5528TIP3    H140779   7.000   6.227  12.035  1.7833  1.3206  0.5733
 5528TIP3    H240780   7.103   6.179  11.935 -0.6017 -0.8510 -0.9309
 5529TIP3   OH240781   5.535   7.514  16.751  0.2895  0.2816 -0.0856
 5529TIP3    H140782   5.467   7.478  16.693  1.6908 -1.3855 -0.7999
 5529TIP3    H240783   5.585   7.574  16.695  1.3997 -1.0300 -0.5628
 5530TIP3   OH240784   5.067   2.790  11.872  0.7045 -0.1521  0.1693
 5530TIP3    H140785   5.036   2.710  11.829 -2.3718 -0.1433  2.0368
 5530TIP3    H240786   5.156   2.802  11.839  0.6233 -3.2732 -1.6271
 5531TIP3   OH240787   8.105   6.913  12.828  0.4432  0.4800 -0.0296
 5531TIP3    H140788   8.176   6.877  12.774  0.9403 -0.6370  1.3122
 5531TIP3    H240789   8.026   6.871  12.795  0.8341 -0.7522  0.5438
 5532TIP3   OH240790   5.747   3.992  12.167  0.2287 -0.7251 -0.7609
 5532TIP3    H140791   5.711   4.055  12.230  1.0024 -2.7802  1.9510
 5532TIP3    H240792   5.838   4.020  12.154  0.1091 -0.3800 -0.8705
 5533TIP3   OH240793   8.219   3.171  11.849 -0.1298  0.2173 -0.3284
 5533TIP3    H140794   8.289   3.154  11.912 -0.7591 -1.3166 -0.0125
 5533TIP3    H240795   8.258   3.149  11.764  0.0339  0.1929 -0.2486
 5534TIP3   OH240796   4.932   5.463  10.892 -0.2658  0.8156 -0.0588
 5534TIP3    H140797   4.998   5.519  10.933  0.7800 -0.3207 -0.1222
 5534TIP3    H240798   4.854   5.518  10.885  1.0630  2.6269 -1.2051
 5535TIP3   OH240799   7.167   3.687  10.725 -0.1884 -0.2756 -0.2151
 5535TIP3    H140800   7.174   3.685  10.820 -1.5974 -2.2786 -0.1022
 5535TIP3    H240801   7.244   3.640  10.694 -0.7373 -1.3556  0.0334
 5536TIP3   OH240802   2.188   1.672  10.347  0.1252  0.0461 -0.1280
 5536TIP3    H140803   2.274   1.713  10.345  0.0840  0.3069  1.6343
 5536TIP3    H240804   2.158   1.684  10.437 -1.4717 -0.6300 -0.5346
 5537TIP3   OH240805   0.307   6.450  10.730  0.3209 -0.3293  0.3304
 5537TIP3    H140806   0.229   6.463  10.783  0.9814 -1.1826  1.5755
 5537TIP3    H240807   0.289   6.369  10.681  0.5274 -0.7042  0.8584
 5538TIP3   OH240808   7.169   0.332  11.051  0.6131  0.6779 -0.0466
 5538TIP3    H140809   7.211   0.251  11.078 -0.7089  0.2763  0.8881
 5538TIP3    H240810   7.137   0.314  10.962  2.8120  1.1821 -1.0106
 5539TIP3   OH240811   6.120   6.860  10.985 -0.4483  0.0080 -0.3040
 5539TIP3    H140812   6.125   6.876  10.891 -1.9457  0.4981 -0.3261
 5539TIP3    H240813   6.122   6.948  11.024  0.0067 -0.1860  0.1283
 5540TIP3   OH240814   2.750   1.521  11.095 -0.0660 -0.4873  0.2535
 5540TIP3    H140815   2.729   1.565  11.178 -0.5848  0.4911 -0.3804
 5540TIP3    H240816   2.667   1.482  11.066 -0.3520  0.7771 -0.7238
 5541TIP3   OH240817   6.146   3.175  10.627 -0.0145  0.3963 -0.3692
 5541TIP3    H140818   6.205   3.127  10.685 -0.0892  0.7724  0.0284
 5541TIP3    H240819   6.101   3.107  10.577 -0.0624  0.0520  0.1303
 5542TIP3   OH240820   2.623   3.058  10.678  0.5606  0.2427  0.0510
 5542TIP3    H140821   2.695   3.120  10.685  0.9684 -0.2775  0.5751
 5542TIP3    H240822   2.598   3.060  10.586  0.7097  1.0215  0.0210
 5543TIP3   OH240823   4.404   8.295  12.050  0.2333  0.2467  0.0104
 5543TIP3    H140824   4.465   8.222  12.035  1.5306  1.2535  0.2010
 5543TIP3    H240825   4.323   8.253  12.077  1.2497 -1.1189  1.1210
 5544TIP3   OH240826   3.684   5.234  12.253 -0.6722  1.1746 -0.0672
 5544TIP3    H140827   3.667   5.240  12.159 -0.5729 -0.2722 -0.2072
 5544TIP3    H240828   3.779   5.226  12.260 -0.8440 -2.2695 -0.1602
 5545TIP3   OH240829   3.129   1.724  11.962 -0.0658 -0.2246 -0.7316
 5545TIP3    H140830   3.119   1.632  11.988 -0.4670  0.2297  0.8648
 5545TIP3    H240831   3.041   1.760  11.965  0.1819  0.3899 -0.5840
 5546TIP3   OH240832   5.987   8.361  11.520 -0.3590  0.5407  0.0634
 5546TIP3    H140833   6.047   8.300  11.476 -0.3366  0.2900  0.4368
 5546TIP3    H240834   5.902   8.345  11.478 -0.1912  0.8294 -0.4029
 5547TIP3   OH240835   2.112   5.263  10.701  0.3159  0.0726  0.2508
 5547TIP3    H140836   2.062   5.325  10.647 -1.4881 -1.0585  0.5178
 5547TIP3    H240837   2.052   5.189  10.714  0.9251 -0.0276  3.2185
 5548TIP3   OH240838   7.137   1.427  10.594  0.0920  0.0509  0.0420
 5548TIP3    H140839   7.186   1.362  10.544  0.3660 -0.5761  1.1099
 5548TIP3    H240840   7.176   1.425  10.681 -2.2347 -0.9390  1.1360
 5549TIP3   OH240841   3.282   1.284  11.314 -0.9060  0.0610  0.1277
 5549TIP3    H140842   3.192   1.312  11.294 -1.3435  0.1726  2.0350
 5549TIP3    H240843   3.284   1.277  11.410  1.4383  1.1493  0.2355
 5550TIP3   OH240844   2.998   7.173  12.621 -0.2413 -0.8343 -0.3100
 5550TIP3    H140845   2.977   7.265  12.640 -1.8713 -1.1319 -0.5394
 5550TIP3    H240846   3.008   7.170  12.526  0.6786 -0.7525 -0.2293
 5551TIP3   OH240847   4.014   2.565  12.486 -0.1894 -0.3225 -0.1500
 5551TIP3    H140848   4.046   2.476  12.505 -0.3053 -0.7157 -1.6875
 5551TIP3    H240849   4.059   2.621  12.549  2.3972 -1.0374 -1.2326
 5552TIP3   OH240850   3.059   2.569  10.408  0.4327 -0.1672 -0.8464
 5552TIP3    H140851   2.964   2.570  10.414  0.4956  0.7761  0.1941
 5552TIP3    H240852   3.081   2.476  10.398 -0.4728 -0.7139  1.5388
 5553TIP3   OH240853   7.704   7.158  11.838 -0.3656 -0.2054 -0.0351
 5553TIP3    H140854   7.787   7.200  11.813 -0.1595 -0.3686  0.3652
 5553TIP3    H240855   7.730   7.070  11.867 -0.6671 -0.2047  0.2351
 5554TIP3   OH240856   7.652   6.599  11.610 -0.0961  0.0954 -0.1155
 5554TIP3    H140857   7.738   6.601  11.653 -0.8008  0.4109  1.3448
 5554TIP3    H240858   7.597   6.549  11.669 -0.8939 -0.2354 -1.1152
 5555TIP3   OH240859   3.340   2.686  10.549 -0.0669  0.7012 -0.4910
 5555TIP3    H140860   3.246   2.668  10.542 -0.2276  0.6964  1.1877
 5555TIP3    H240861   3.357   2.752  10.483 -1.9573  3.1303  1.2551
 5556TIP3   OH240862   4.356   7.693  10.596  0.2629 -0.7030 -0.1996
 5556TIP3    H140863   4.436   7.652  10.564 -0.3674 -0.8603 -1.6463
 5556TIP3    H240864   4.341   7.653  10.682  2.0700 -0.1804  0.4062
 5557TIP3   OH240865   4.144   2.929  11.801 -0.4289  0.7649  0.1334
 5557TIP3    H140866   4.055   2.953  11.824 -0.3266  0.6797  0.6304
 5557TIP3    H240867   4.197   3.003  11.832 -0.0593 -0.2361  2.0763
 5558TIP3   OH240868   2.916   2.200  10.590 -1.1632  0.1686  0.7175
 5558TIP3    H140869   2.844   2.182  10.650 -0.0168 -1.0897  1.7882
 5558TIP3    H240870   2.942   2.115  10.556 -1.2049  0.7684 -0.9357
 5559TIP3   OH240871   2.332   2.501  11.829  0.4005 -0.7255  0.2383
 5559TIP3    H140872   2.418   2.499  11.787  1.8634 -1.9022  2.9495
 5559TIP3    H240873   2.270   2.480  11.759  2.4175 -0.8025 -1.6351
 5560TIP3   OH240874   5.427   1.001  11.333  0.4044  0.3365  0.2732
 5560TIP3    H140875   5.421   1.012  11.428 -1.8890  0.5061  0.1555
 5560TIP3    H240876   5.473   0.917  11.322 -1.4716 -0.9403  1.6158
 5561TIP3   OH240877   2.547   1.641  12.360  0.1856 -0.2996  0.2418
 5561TIP3    H140878   2.476   1.705  12.365 -0.8115 -1.4405  1.4274
 5561TIP3    H240879   2.614   1.675  12.420  0.1876  0.2375 -0.0590
 5562TIP3   OH240880   7.913   7.085  12.496  0.2634  0.2240 -0.2958
 5562TIP3    H140881   7.960   7.166  12.515  0.8695 -0.3033  0.5305
 5562TIP3    H240882   7.831   7.093  12.544 -0.2874  0.9301 -1.3309
 5563TIP3   OH240883   1.904   3.151  10.713  0.3231  0.1796  0.0094
 5563TIP3    H140884   1.893   3.229  10.659  1.0728 -1.4629 -2.7194
 5563TIP3    H240885   1.964   3.096  10.663  0.2262 -1.9361  2.0685
 5564TIP3   OH240886   3.025   7.659  11.167 -0.5926 -0.0408 -0.0095
 5564TIP3    H140887   3.037   7.648  11.073 -0.2525  0.7210 -0.0690
 5564TIP3    H240888   2.969   7.587  11.194 -1.7248  0.4289 -1.0099
 5565TIP3   OH240889   8.065   0.895  11.230 -0.2146  0.5008 -0.8157
 5565TIP3    H140890   8.119   0.915  11.153  0.6197 -0.6794 -0.5683
 5565TIP3    H240891   8.013   0.975  11.244  0.6848  1.2764 -1.7073
 5566TIP3   OH240892   3.206   4.340  11.933 -0.1826  0.1555 -0.3704
 5566TIP3    H140893   3.177   4.341  11.842  0.2267  1.0359 -0.5049
 5566TIP3    H240894   3.132   4.376  11.982 -0.6797 -0.9799 -0.2468
 5567TIP3   OH240895   8.044   5.477  11.113 -0.0279  0.6101  0.0128
 5567TIP3    H140896   8.085   5.440  11.035  0.9645  1.3941  0.1316
 5567TIP3    H240897   8.085   5.563  11.123  1.4849 -0.2864  2.6102
 5568TIP3   OH240898   0.686   6.225  10.886  0.4312 -0.4687  0.2733
 5568TIP3    H140899   0.762   6.271  10.850 -0.3702 -0.1744 -1.0756
 5568TIP3    H240900   0.630   6.208  10.811 -1.8356  1.1236  1.4996
 5569TIP3   OH240901   7.109   3.326  10.836 -0.1757  0.0249  0.3009
 5569TIP3    H140902   7.184   3.289  10.883 -0.4532  2.2217  2.7012
 5569TIP3    H240903   7.032   3.293  10.882 -0.5841 -0.0578 -0.4272
 5570TIP3   OH240904   0.933   2.433  12.071 -0.0485  0.4132  0.3517
 5570TIP3    H140905   0.948   2.403  12.160 -0.6955  1.3336  0.7828
 5570TIP3    H240906   0.867   2.373  12.036 -1.1044  1.0909  1.1039
 5571TIP3   OH240907   2.103   0.590  11.564  0.3533  0.9135 -0.1630
 5571TIP3    H140908   2.068   0.672  11.530 -0.0477  0.9635  0.3516
 5571TIP3    H240909   2.026   0.540  11.592  0.6016  0.4179 -0.3476
 5572TIP3   OH240910   0.017   4.205  12.838 -0.2228 -0.1356 -0.1019
 5572TIP3    H140911   0.093   4.164  12.879 -1.4025 -0.2809  2.0601
 5572TIP3    H240912   0.023   4.297  12.862 -2.5031 -0.6909  3.2125
 5573TIP3   OH240913   8.142   7.569  12.528 -0.1906  0.3550  0.0372
 5573TIP3    H140914   8.187   7.584  12.445  0.5212 -1.7638 -0.0362
 5573TIP3    H240915   8.193   7.617  12.593  0.1428  0.7776 -0.5303
 5574TIP3   OH240916   1.568   0.662  12.183 -0.1555  0.1678  0.1068
 5574TIP3    H140917   1.634   0.720  12.148  0.6378 -1.1447 -0.6554
 5574TIP3    H240918   1.537   0.611  12.108 -0.9128 -0.3190  0.7196
 5575TIP3   OH240919   0.418   3.581  11.245 -0.2519  0.2906 -0.3868
 5575TIP3    H140920   0.348   3.638  11.213 -1.4303 -1.2070 -0.5439
 5575TIP3    H240921   0.378   3.529  11.314  0.8101 -0.3847 -0.2516
 5576TIP3   OH240922   1.900   5.104  10.829 -0.3206 -0.0658 -0.4719
 5576TIP3    H140923   1.813   5.144  10.818 -0.1087  0.0883 -1.8209
 5576TIP3    H240924   1.911   5.096  10.923 -2.1719 -0.8788 -0.2693
 5577TIP3   OH240925   1.012   1.696  11.696  0.3518  0.7690 -0.3813
 5577TIP3    H140926   0.943   1.678  11.633  1.4885 -1.0193 -1.1828
 5577TIP3    H240927   1.093   1.681  11.648  1.2584  0.7263  1.1093
 5578TIP3   OH240928   5.283   3.179  11.699 -0.2697  0.4815 -0.0565
 5578TIP3    H140929   5.199   3.155  11.738 -0.1928  0.5895  0.1768
 5578TIP3    H240930   5.276   3.273  11.682  0.6349  0.9762  2.0723
 5579TIP3   OH240931   3.791   0.418  10.779  0.1098  0.3188  0.3767
 5579TIP3    H140932   3.837   0.416  10.695 -0.6220  0.6990 -0.0446
 5579TIP3    H240933   3.861   0.423  10.844  0.6663  0.9467 -0.2500
 5580TIP3   OH240934   8.276   5.616  11.399 -0.4302  0.4973 -0.1594
 5580TIP3    H140935   8.301   5.551  11.465  1.0666 -0.9182 -2.0096
 5580TIP3    H240936   8.190   5.647  11.428 -0.3136 -0.8513  1.8589
 5581TIP3   OH240937   6.348   3.163  12.534  0.4817 -0.2876  0.0758
 5581TIP3    H140938   6.338   3.068  12.539  0.1355 -0.2272  0.5966
 5581TIP3    H240939   6.266   3.193  12.497  1.2430 -0.3260 -1.7270
 5582TIP3   OH240940   2.025   5.627  11.321 -0.3684  0.4014  0.1487
 5582TIP3    H140941   2.027   5.532  11.323  0.0978  0.3939 -0.2193
 5582TIP3    H240942   1.944   5.651  11.365 -1.5955 -0.2393 -1.6099
 5583TIP3   OH240943   5.093   6.037  10.471 -0.0595 -0.3367  0.3308
 5583TIP3    H140944   5.051   6.053  10.556 -1.5179  0.6851 -0.5332
 5583TIP3    H240945   5.184   6.064  10.484 -0.9099  2.7051  0.8023
 5584TIP3   OH240946   6.962   7.708  11.090 -0.2862 -0.8489 -0.4251
 5584TIP3    H140947   6.965   7.639  11.157 -0.2193 -0.9214 -0.5035
 5584TIP3    H240948   6.872   7.740  11.093 -0.0354 -0.1995  0.3685
 5585TIP3   OH240949   6.851   5.479  10.535  0.4535  0.0661  0.1394
 5585TIP3    H140950   6.910   5.420  10.583  1.5719 -0.7449 -2.0742
 5585TIP3    H240951   6.766   5.435  10.539  0.7464 -0.4899  0.5324
 5586TIP3   OH240952   2.543   1.927  12.704 -0.7989  0.1080 -0.3500
 5586TIP3    H140953   2.493   1.944  12.784 -0.3789 -1.3041  0.2425
 5586TIP3    H240954   2.615   1.991  12.707  0.5150 -1.3180  1.6039
 5587TIP3   OH240955   1.224   0.750  10.819 -0.2186  0.0048  0.3237
 5587TIP3    H140956   1.191   0.837  10.796 -0.3613 -0.5280 -1.6436
 5587TIP3    H240957   1.166   0.690  10.774  1.6572 -1.0339 -0.8280
 5588TIP3   OH240958   7.743   6.226  12.683  0.3679 -0.3350 -0.1089
 5588TIP3    H140959   7.726   6.319  12.675  0.2150 -0.2512  0.9899
 5588TIP3    H240960   7.839   6.219  12.680  0.4596  0.0353  1.2602
 5589TIP3   OH240961   7.888   7.319  11.748 -0.2439  0.2126 -0.4560
 5589TIP3    H140962   7.951   7.379  11.787  0.5620 -0.1880 -1.1180
 5589TIP3    H240963   7.930   7.288  11.668 -0.4581 -1.5662  0.0934
 5590TIP3   OH240964   8.346   2.131  11.998  0.1752  0.0451  0.1608
 5590TIP3    H140965   8.312   2.149  12.086 -0.5894 -0.8865  0.0801
 5590TIP3    H240966   8.441   2.144  12.006  0.2833 -1.1604  1.4601
 5591TIP3   OH240967   3.138   1.625  11.327  0.1412  0.3198 -0.4244
 5591TIP3    H140968   3.192   1.617  11.249 -0.6227 -1.7783 -0.8021
 5591TIP3    H240969   3.178   1.565  11.390  0.2642  1.3736  0.5402
 5592TIP3   OH240970   1.207   4.319  12.029  0.4960 -0.3590  0.5213
 5592TIP3    H140971   1.290   4.273  12.025  0.2912 -0.6258 -1.0017
 5592TIP3    H240972   1.184   4.319  12.122 -0.0155 -4.3005  0.5422
 5593TIP3   OH240973   1.669   7.542  11.701 -0.6186 -0.3836  1.0045
 5593TIP3    H140974   1.732   7.585  11.758 -0.2449  0.5108 -0.0331
 5593TIP3    H240975   1.717   7.467  11.664 -0.3374 -0.0386  0.6583
 5594TIP3   OH240976   4.595   2.480  11.071  0.1346 -0.1261 -0.2297
 5594TIP3    H140977   4.647   2.560  11.081 -0.4718  0.6216 -2.5457
 5594TIP3    H240978   4.619   2.447  10.985 -0.3818 -1.9129  0.2820
 5595TIP3   OH240979   2.621   1.319  10.594 -0.1266  0.1667  0.2935
 5595TIP3    H140980   2.643   1.263  10.520 -0.3491 -1.7678  1.6148
 5595TIP3    H240981   2.684   1.294  10.662  0.2971  2.1347  0.6725
 5596TIP3   OH240982   2.273   0.865  11.325  0.0280 -0.2918 -0.4230
 5596TIP3    H140983   2.275   0.827  11.237  1.4171  0.9025 -0.9476
 5596TIP3    H240984   2.296   0.957  11.311 -1.9554  0.4770  0.9374
 5597TIP3   OH240985   8.263   3.140  11.329  0.0962  0.0367 -0.0003
 5597TIP3    H140986   8.184   3.159  11.379 -0.5315  0.7502 -1.2005
 5597TIP3    H240987   8.232   3.087  11.255  1.3808 -3.4206  1.7013
 5598TIP3   OH240988   0.141   6.762  11.781 -0.4629  0.1131 -0.2745
 5598TIP3    H140989   0.125   6.780  11.688  1.4776  0.3653 -0.6034
 5598TIP3    H240990   0.130   6.847  11.824  0.1042  0.3047 -0.5046
 5599TIP3   OH240991   2.644   1.891  11.461 -0.1516 -0.3872  0.0524
 5599TIP3    H140992   2.581   1.872  11.531  1.1272 -3.2989  0.5720
 5599TIP3    H240993   2.723   1.919  11.506 -0.4269  1.3564 -0.4909
 5600TIP3   OH240994   1.036   0.933  12.553 -0.4860  0.1699 -0.2431
 5600TIP3    H140995   0.943   0.942  12.574 -0.8490 -0.0534 -1.6757
 5600TIP3    H240996   1.079   0.997  12.609 -1.6203  1.1192 -0.4071
 5601TIP3   OH240997   7.236   2.010  11.129  0.0693 -0.0432  0.5195
 5601TIP3    H140998   7.181   1.943  11.169  2.0452 -2.1887 -0.1221
 5601TIP3    H240999   7.325   1.974  11.135  0.9843  1.6632 -1.5854
 5602TIP3   OH241000   3.841   3.151  12.650 -0.1926 -0.4104  1.1782
 5602TIP3    H141001   3.873   3.066  12.681  0.5993 -0.5572  0.0033
 5602TIP3    H241002   3.748   3.136  12.630  0.2139 -1.3548 -0.1662
 5603TIP3   OH241003   7.270   6.147  10.510  0.2081 -0.3222  0.1467
 5603TIP3    H141004   7.225   6.131  10.427  1.9371 -0.3747 -0.8201
 5603TIP3    H241005   7.296   6.060  10.540 -0.6751 -0.3340  0.9333
 5604TIP3   OH241006   3.355   0.056  11.366 -0.4931  0.1989 -0.1394
 5604TIP3    H141007   3.406   0.084  11.442 -1.4991  1.1004  0.2276
 5604TIP3    H241008   3.312  -0.024  11.394 -2.3043  1.4768  0.9345
 5605TIP3   OH241009   5.043   2.228  10.836  0.1866  0.1935 -0.1474
 5605TIP3    H141010   5.119   2.279  10.807  0.9830 -1.2392 -0.6901
 5605TIP3    H241011   5.022   2.262  10.923  0.1008  2.0493 -0.8667
 5606TIP3   OH241012   6.420   7.567  11.208  0.0301 -0.7249 -0.3244
 5606TIP3    H141013   6.492   7.557  11.146 -0.3492 -1.5912 -0.6382
 5606TIP3    H241014   6.406   7.479  11.242  0.0168 -0.3185  0.7612
 5607TIP3   OH241015   1.812   0.525  12.598 -0.4336 -0.0553 -0.0702
 5607TIP3    H141016   1.746   0.594  12.599 -1.5770 -1.1048  1.0829
 5607TIP3    H241017   1.768   0.450  12.557  0.8267 -0.0943 -1.4390
 5608TIP3   OH241018   2.754   8.234  11.997  0.1756 -0.0210 -0.0969
 5608TIP3    H141019   2.849   8.223  12.001  0.0737 -1.1077 -0.2770
 5608TIP3    H241020   2.735   8.304  12.060  1.1116  0.3834 -0.2517
 5609TIP3   OH241021   0.952   3.046  10.749 -0.3485  0.2141  0.4526
 5609TIP3    H141022   0.928   3.126  10.704  0.3836  0.4850  0.5342
 5609TIP3    H241023   0.871   2.994  10.750 -0.3866  0.1926 -1.1497
 5610TIP3   OH241024   2.066   1.976  11.971 -0.0113 -0.2105 -0.3783
 5610TIP3    H141025   2.148   1.965  12.020 -0.1566  1.4766  0.3011
 5610TIP3    H241026   2.024   2.052  12.011 -1.0242  0.1033 -1.9515
 5611TIP3   OH241027   5.165   0.494  11.170 -0.0897  0.1844  0.2906
 5611TIP3    H141028   5.192   0.476  11.260  2.7508  0.4336 -0.4141
 5611TIP3    H241029   5.233   0.454  11.116 -1.0787  1.0740 -1.7211
 5612TIP3   OH241030   5.736   1.015  11.304 -0.4228 -0.1570  0.2689
 5612TIP3    H141031   5.674   1.035  11.234  0.0592  2.2080  0.4595
 5612TIP3    H241032   5.723   1.084  11.369  0.3364 -1.3274  1.7300
 5613TIP3   OH241033   4.622   0.440  12.411 -0.8899  0.5523 -0.0791
 5613TIP3    H141034   4.577   0.468  12.490  1.7389  1.5478  1.2072
 5613TIP3    H241035   4.619   0.516  12.353  2.3476  2.1916  1.6120
 5614TIP3   OH241036   5.660   4.987  10.516  0.2739 -0.2805 -0.5881
 5614TIP3    H141037   5.650   5.082  10.529  2.4478 -0.0740 -0.0255
 5614TIP3    H241038   5.578   4.960  10.474 -0.3156  1.8809 -0.9689
 5615TIP3   OH241039   1.269   5.359  12.273 -0.1875  0.3202 -0.0430
 5615TIP3    H141040   1.238   5.303  12.344  1.1871 -0.3022  0.0982
 5615TIP3    H241041   1.353   5.392  12.304  0.6903 -0.3754 -1.5822
 5616TIP3   OH241042   4.896   6.127  11.270  0.0847 -0.5242 -0.0690
 5616TIP3    H141043   4.925   6.085  11.350  0.1217  0.4663  0.4523
 5616TIP3    H241044   4.977   6.152  11.225  0.2568  3.0328  1.8011
 5617TIP3   OH241045   1.196   5.062  11.111 -0.8831  0.0203  0.4192
 5617TIP3    H141046   1.247   5.085  11.189 -0.7697 -1.0522  0.6773
 5617TIP3    H241047   1.122   5.123  11.112 -0.8250  0.0883  1.3171
 5618TIP3   OH241048   7.695   5.038  11.489 -0.0714 -0.2658 -0.7892
 5618TIP3    H141049   7.750   5.104  11.531 -1.1209  0.4421 -0.4707
 5618TIP3    H241050   7.616   5.036  11.544 -0.8001 -0.4866 -1.8265
 5619TIP3   OH241051   0.986   0.679  12.445 -0.4217  0.2572  0.1492
 5619TIP3    H141052   1.018   0.607  12.501  1.2715 -1.5110 -2.8296
 5619TIP3    H241053   1.000   0.758  12.498  0.6758 -1.3073  2.3796
 5620TIP3   OH241054   5.755   4.854  12.540 -0.3528 -0.1840  0.2008
 5620TIP3    H141055   5.737   4.770  12.583  0.3279  0.3634  1.6135
 5620TIP3    H241056   5.783   4.912  12.611  0.3543  0.9065 -0.9256
 5621TIP3   OH241057   7.958   5.274  11.273  0.5093  0.3461  0.6820
 5621TIP3    H141058   8.045   5.236  11.285  0.5546 -0.1292 -0.8858
 5621TIP3    H241059   7.974   5.356  11.227  0.0907 -0.2414 -0.5591
 5622TIP3   OH241060   2.805   1.812  10.883  0.0714 -0.6095 -0.3840
 5622TIP3    H141061   2.857   1.795  10.961 -0.1113  1.5029  0.2524
 5622TIP3    H241062   2.714   1.807  10.913 -0.0290 -0.9236 -0.7317
 5623TIP3   OH241063   7.721   0.351  10.973  0.1526  0.4454 -0.6784
 5623TIP3    H141064   7.691   0.423  10.918 -0.2720  0.6075 -0.2362
 5623TIP3    H241065   7.695   0.375  11.062 -2.4562 -1.5019 -0.8096
 5624TIP3   OH241066   7.787   2.560  10.688  0.0923 -0.2284  0.0445
 5624TIP3    H141067   7.775   2.652  10.662 -0.3183  0.4196  2.3403
 5624TIP3    H241068   7.699   2.531  10.712  0.3911 -0.8851  0.3527
 5625TIP3   OH241069   2.006   7.384  12.159 -0.2748 -0.2931  0.1269
 5625TIP3    H141070   1.992   7.369  12.066 -1.3623 -0.7011  0.3427
 5625TIP3    H241071   2.057   7.309  12.189 -0.5631 -0.5368  0.0055
 5626TIP3   OH241072   1.533   5.445  11.700  0.2155  0.8596  0.1247
 5626TIP3    H141073   1.578   5.522  11.736  2.2928 -0.1517 -0.1564
 5626TIP3    H241074   1.493   5.403  11.777  3.0297 -0.2570  1.1073
 5627TIP3   OH241075   6.269   5.594  12.387  0.0818 -0.5376  0.7453
 5627TIP3    H141076   6.230   5.564  12.469 -1.1877 -2.5263 -0.4886
 5627TIP3    H241077   6.330   5.524  12.363  0.3065 -0.0715 -0.0711
 5628TIP3   OH241078   3.241   7.099  11.789  0.5355  0.2040 -0.3375
 5628TIP3    H141079   3.231   7.143  11.873  1.7936 -0.1182  0.0072
 5628TIP3    H241080   3.153   7.095  11.753  0.1397  1.3359  0.4586
 5629TIP3   OH241081   3.852   7.224  12.722  0.5983  0.0077 -0.1528
 5629TIP3    H141082   3.856   7.277  12.801  1.2742 -1.3897  0.8009
 5629TIP3    H241083   3.941   7.226  12.686  0.5181 -0.1021 -0.3654
 5630TIP3   OH241084   6.601   8.196  12.805  0.1650  0.5313  0.1591
 5630TIP3    H141085   6.536   8.145  12.852  0.4016  0.4125  0.3564
 5630TIP3    H241086   6.680   8.142  12.806  0.2349  0.6241 -0.1811
 5631TIP3   OH241087   4.600   4.887  11.870 -0.0108  0.3082 -0.0025
 5631TIP3    H141088   4.570   4.940  11.796  1.1017  0.6314 -0.2470
 5631TIP3    H241089   4.662   4.825  11.831 -0.8049 -0.7372  0.3878
 5632TIP3   OH241090   0.045   3.630  10.888  0.2773 -0.0125 -0.0314
 5632TIP3    H141091   0.086   3.568  10.826  0.0953 -1.9408  1.6667
 5632TIP3    H241092  -0.035   3.585  10.916 -1.2147  2.1503 -0.5927
 5633TIP3   OH241093   7.934   1.707  11.199 -0.4248  0.7066 -0.1772
 5633TIP3    H141094   7.937   1.786  11.146  0.5783  0.0829 -1.1156
 5633TIP3    H241095   7.989   1.727  11.275 -1.5307  1.4637  0.4351
 5634TIP3   OH241096   1.431   0.664  10.648  0.1097  0.0617  0.0058
 5634TIP3    H141097   1.399   0.588  10.600  0.4712 -1.3141  1.8290
 5634TIP3    H241098   1.356   0.695  10.699  0.2753  0.1546  0.1990
 5635TIP3   OH241099   7.063   8.028  11.121  0.0037 -0.2809  0.0314
 5635TIP3    H141100   7.106   8.100  11.075  1.5246  0.7345  2.7971
 5635TIP3    H241101   7.120   7.953  11.105  0.0130 -0.1759 -0.4540
 5636TIP3   OH241102   0.548   3.795  11.024 -0.0330  0.3215 -0.0075
 5636TIP3    H141103   0.616   3.754  11.078  0.2172 -0.1974 -0.6937
 5636TIP3    H241104   0.469   3.791  11.077  0.1888 -0.2625  0.2838
 5637TIP3   OH241105   3.673   5.049  10.440 -0.2688 -0.4610  0.5080
 5637TIP3    H141106   3.606   5.096  10.490  1.6836  3.5564 -0.3012
 5637TIP3    H241107   3.654   5.069  10.348  1.2265 -0.4407  0.1832
 5638TIP3   OH241108   7.551   6.403  12.225  0.1196 -0.0274 -0.0037
 5638TIP3    H141109   7.503   6.480  12.256  0.4396 -0.4945  1.7378
 5638TIP3    H241110   7.603   6.435  12.152 -0.2939  1.2400  0.2324
 5639TIP3   OH241111   7.345   8.112  10.836  0.7606  0.0623  0.1620
 5639TIP3    H141112   7.385   8.104  10.750  2.4198  1.3603  0.7401
 5639TIP3    H241113   7.261   8.067  10.829  0.5565  0.6999 -2.3122
 5640TIP3   OH241114   7.120   5.519  12.041  0.1248  0.2985 -0.3767
 5640TIP3    H141115   7.145   5.485  11.955  2.0733 -3.6733  1.4799
 5640TIP3    H241116   7.046   5.463  12.068 -0.2574  1.2689  0.6654
 5641TIP3   OH241117   1.793   5.005  12.093  0.6631 -0.3343  0.3991
 5641TIP3    H141118   1.767   5.003  12.000  0.9096 -1.7710  0.3519
 5641TIP3    H241119   1.724   4.957  12.138  0.3191  0.7184  1.0518
 5642TIP3   OH241120   5.853   8.422  10.623  0.5305  0.6780  0.0773
 5642TIP3    H141121   5.806   8.339  10.628  0.7850  0.4618 -0.7988
 5642TIP3    H241122   5.930   8.402  10.569  2.5881  0.5975  2.8502
 5643TIP3   OH241123   2.691   3.690  11.442  0.0611  0.0018  0.0258
 5643TIP3    H141124   2.671   3.781  11.465  0.6245 -0.3291  2.0074
 5643TIP3    H241125   2.768   3.669  11.494  0.3565 -1.4238 -0.9275
 5644TIP3   OH241126   3.158   4.330  10.771 -0.1471  0.4920  0.2247
 5644TIP3    H141127   3.126   4.349  10.683  1.5073  0.9093 -0.3189
 5644TIP3    H241128   3.146   4.412  10.819  0.4228  0.7525 -0.0752
 5645TIP3   OH241129   5.718   1.870  11.027  0.7207 -0.7719  0.0875
 5645TIP3    H141130   5.755   1.803  11.085 -0.6461 -0.6053  1.2279
 5645TIP3    H241131   5.686   1.822  10.951 -0.1957 -1.4258  0.8675
 5646TIP3   OH241132   3.034   1.240  10.434 -0.5614  0.8340 -0.1613
 5646TIP3    H141133   3.125   1.269  10.442 -0.7943  1.5018  0.1218
 5646TIP3    H241134   2.996   1.296  10.368 -1.0071  1.1674  0.3671
 5647TIP3   OH241135   2.947   5.796  10.502  0.1690 -0.2438  0.1926
 5647TIP3    H141136   2.974   5.888  10.508  0.1234 -0.2632  0.8421
 5647TIP3    H241137   2.857   5.800  10.471  0.4910 -0.1187 -0.7447
 5648TIP3   OH241138   3.638   0.761  11.734 -0.6497  0.5566 -0.2519
 5648TIP3    H141139   3.623   0.811  11.815 -0.1804  1.6490 -0.8236
 5648TIP3    H241140   3.726   0.726  11.744 -0.6443  0.5749 -0.2329
 5649TIP3   OH241141   2.708   5.379  12.008 -0.0041 -0.1514  0.3071
 5649TIP3    H141142   2.642   5.404  11.942 -0.9087 -1.1050  0.8088
 5649TIP3    H241143   2.667   5.306  12.055  1.5356 -0.9391  0.4717
 5650TIP3   OH241144   8.226   1.945  10.665 -0.5217 -0.1281 -0.1316
 5650TIP3    H141145   8.304   1.899  10.633 -0.5805 -0.3984  0.1112
 5650TIP3    H241146   8.178   1.879  10.716 -1.2733 -0.1574 -0.8600
 5651TIP3   OH241147   8.441   6.794  11.551 -0.6074  0.2264  0.5120
 5651TIP3    H141148   8.497   6.811  11.476  0.3793  1.7258  1.5205
 5651TIP3    H241149   8.371   6.738  11.518  0.7047 -0.5166 -1.1106
 5652TIP3   OH241150   2.066   6.183  10.963  0.4958  0.3574  0.3357
 5652TIP3    H141151   1.975   6.215  10.959  0.6577  0.7295 -0.8568
 5652TIP3    H241152   2.117   6.261  10.983  0.5019  0.0039  1.8169
 5653TIP3   OH241153   5.854   7.275  12.090  0.5659  0.2918 -0.4544
 5653TIP3    H141154   5.767   7.296  12.123  0.7365 -1.6228  1.4485
 5653TIP3    H241155   5.842   7.262  11.996 -1.8178 -2.4458  0.0887
 5654TIP3   OH241156   3.066   2.386  10.946 -0.3204 -0.5283  0.9694
 5654TIP3    H141157   3.033   2.297  10.958  3.4499 -2.5239 -1.4826
 5654TIP3    H241158   3.139   2.393  11.008  2.2207 -0.9858 -1.7652
 5655TIP3   OH241159   3.444   5.119  10.998  0.0007 -0.1483  0.0075
 5655TIP3    H141160   3.354   5.142  10.972  0.4416 -0.7910 -2.3788
 5655TIP3    H241161   3.468   5.048  10.938  2.2475  0.2974  0.3152
 5656TIP3   OH241162   6.607   0.494  12.394  0.7786 -0.1424 -0.3761
 5656TIP3    H141163   6.632   0.526  12.481  1.1702 -0.2655 -0.4456
 5656TIP3    H241164   6.630   0.565  12.335 -1.5914  0.9402 -0.1477
 5657TIP3   OH241165   2.500   6.121  11.993 -0.0939  0.2612 -0.5428
 5657TIP3    H141166   2.518   6.071  12.073 -1.7467  0.0347 -0.2733
 5657TIP3    H241167   2.578   6.109  11.939  1.5215  1.3268  1.4606
 5658TIP3   OH241168   4.480   7.400  11.703  0.2276  0.3335  0.3261
 5658TIP3    H141169   4.529   7.335  11.752  0.3648  0.5925  0.5357
 5658TIP3    H241170   4.446   7.460  11.769  1.4474  1.3904  0.0369
 5659TIP3   OH241171   0.911   4.395  11.147  0.4641 -0.0411 -0.1945
 5659TIP3    H141172   0.823   4.371  11.117  0.8055 -0.8322 -0.5866
 5659TIP3    H241173   0.895   4.454  11.221 -0.4543 -2.1039  1.3798
 5660TIP3   OH241174   6.974   5.057  11.334 -1.2721  0.0728  0.2482
 5660TIP3    H141175   7.067   5.072  11.315 -1.3472 -0.4807 -0.6183
 5660TIP3    H241176   6.966   5.071  11.428 -0.6202  1.6566  0.0899
 5661TIP3   OH241177   2.584   7.807  12.257 -0.1279  0.0257  0.1325
 5661TIP3    H141178   2.558   7.719  12.286 -3.8560  1.3552  1.3874
 5661TIP3    H241179   2.596   7.798  12.163  0.5501 -2.0073  0.3613
 5662TIP3   OH241180   3.020   1.507  12.453 -0.1641 -0.0602  0.7101
 5662TIP3    H141181   3.053   1.419  12.436  0.2169  0.3710 -0.9590
 5662TIP3    H241182   2.963   1.526  12.379  0.5760  1.4709  0.4873
 5663TIP3   OH241183   5.110   8.028  10.534 -0.5339 -0.0510 -0.3822
 5663TIP3    H141184   5.157   8.033  10.617 -1.0645 -2.9210  0.2097
 5663TIP3    H241185   5.024   8.063  10.553 -0.6201 -0.5978  0.2814
 5664TIP3   OH241186   5.150   1.753  10.297  0.0946 -0.5409  0.0274
 5664TIP3    H141187   5.182   1.840  10.319 -0.9002 -0.5531  1.6704
 5664TIP3    H241188   5.198   1.694  10.354  0.4455 -1.0504 -0.7722
 5665TIP3   OH241189   6.684   8.398  11.307  0.2974 -0.0971 -0.6483
 5665TIP3    H141190   6.722   8.470  11.357 -0.0836 -0.9474  0.9310
 5665TIP3    H241191   6.655   8.335  11.373 -1.6903 -0.5591 -1.8884
 5666TIP3   OH241192   7.448   4.314  10.812  0.1036  0.4764 -0.1361
 5666TIP3    H141193   7.369   4.343  10.857  0.1879 -1.3052  1.3037
 5666TIP3    H241194   7.518   4.325  10.876  0.6659  0.1869 -0.6850
 5667TIP3   OH241195   7.012   7.289  12.380  0.5139 -0.4531  0.1090
 5667TIP3    H141196   7.016   7.359  12.445  1.1621  0.3639 -0.7947
 5667TIP3    H241197   6.921   7.259  12.383  0.3026  0.2314  0.7019
 5668TIP3   OH241198   4.492   4.820  10.883  0.1112 -0.2525  0.1468
 5668TIP3    H141199   4.566   4.762  10.900  0.4698 -0.4554 -1.8237
 5668TIP3    H241200   4.530   4.893  10.834 -0.5572  1.0647  1.4954
 5669TIP3   OH241201   1.227   8.362  11.692 -0.0817 -0.0201  0.1742
 5669TIP3    H141202   1.246   8.444  11.648  2.0742 -1.9704 -2.9052
 5669TIP3    H241203   1.162   8.320  11.636 -0.7168 -0.7139  1.3854
 5670TIP3   OH241204   3.491   4.213  11.645  0.0353  0.7285  0.6276
 5670TIP3    H141205   3.452   4.135  11.684  0.2913  0.2237 -0.1197
 5670TIP3    H241206   3.586   4.199  11.652  0.0835  0.9803  0.4919
 5671TIP3   OH241207   2.405   2.929  12.502  0.3131  0.2811 -0.1720
 5671TIP3    H141208   2.410   2.845  12.547  1.4501  1.0957  1.3142
 5671TIP3    H241209   2.316   2.960  12.519  0.6761  0.5123  1.4667
 5672TIP3   OH241210   6.080   3.337  11.064 -0.3615  0.4586 -0.3296
 5672TIP3    H141211   6.091   3.360  10.972 -0.0963  0.1540 -0.3774
 5672TIP3    H241212   6.035   3.413  11.103 -0.5241  0.5642 -0.7174
 5673TIP3   OH241213   3.224   1.928  10.788 -0.0041  0.2332 -0.0981
 5673TIP3    H141214   3.175   1.901  10.865 -2.0070 -0.7179 -1.5944
 5673TIP3    H241215   3.315   1.912  10.810 -0.6860 -2.6509  1.1263
 5674TIP3   OH241216   0.058   5.141  11.757  0.3908 -0.1443 -0.0463
 5674TIP3    H141217   0.047   5.048  11.778  0.4575 -0.2466 -0.4487
 5674TIP3    H241218   0.022   5.150  11.669  0.5969  0.1628 -0.1008
 5675TIP3   OH241219   4.825   7.590  11.090 -0.5974 -0.3933  0.1732
 5675TIP3    H141220   4.854   7.681  11.083 -3.5776  0.5839 -0.7261
 5675TIP3    H241221   4.887   7.541  11.036  0.3404  1.2597 -0.3322
 5676TIP3   OH241222   5.044   3.736  10.922  0.2215  0.3446  0.6284
 5676TIP3    H141223   5.118   3.796  10.914 -0.0094  0.4115 -2.1836
 5676TIP3    H241224   5.000   3.763  11.002  3.1611  0.3086  2.4250
 5677TIP3   OH241225   1.089   6.699  10.901  0.1895  0.5163  0.7303
 5677TIP3    H141226   0.999   6.731  10.902 -0.6919 -1.7108  0.0473
 5677TIP3    H241227   1.082   6.606  10.922  2.3284  0.2389  0.5096
 5678TIP3   OH241228   4.066   1.793  11.268 -0.2982  0.2375  0.3417
 5678TIP3    H141229   3.991   1.752  11.226 -0.7445  0.5362  0.8332
 5678TIP3    H241230   4.057   1.770  11.361 -0.2186  0.9381  0.5267
 5679TIP3   OH241231   4.909   0.626  11.684  0.0036 -0.1271 -0.4732
 5679TIP3    H141232   4.875   0.709  11.717 -0.5875  0.1613 -1.7490
 5679TIP3    H241233   4.861   0.611  11.603  0.2379 -1.6308 -0.3657
 5680TIP3   OH241234   1.519   5.652  10.479  0.1537 -0.1893  0.0354
 5680TIP3    H141235   1.567   5.703  10.545  1.2504  0.5650 -1.2841
 5680TIP3    H241236   1.427   5.664  10.502  0.3574  2.3007 -0.1071
 5681TIP3   OH241237   5.153   6.956  10.780  0.2290  0.1911 -0.2791
 5681TIP3    H141238   5.240   6.919  10.765 -0.3097 -0.7234 -1.2221
 5681TIP3    H241239   5.093   6.881  10.774 -0.4708  0.4435  2.3050
 5682TIP3   OH241240   1.957   7.905  11.377 -0.1180  0.7240 -0.0596
 5682TIP3    H141241   2.032   7.902  11.317 -0.5688  2.3680 -0.7798
 5682TIP3    H241242   1.923   7.816  11.378  0.4949  0.4496 -1.5066
 5683TIP3   OH241243   2.253   3.307  11.374  0.0802  0.4549 -0.0656
 5683TIP3    H141244   2.335   3.290  11.326 -1.3454  0.3012 -2.6385
 5683TIP3    H241245   2.184   3.296  11.308 -2.2267 -1.3890  2.4264
 5684TIP3   OH241246   6.487   5.713  10.537 -0.3655 -0.7759 -0.2637
 5684TIP3    H141247   6.550   5.783  10.519  0.5462 -2.3090 -3.8193
 5684TIP3    H241248   6.540   5.641  10.570 -0.7216 -1.0740 -0.3337
 5685TIP3   OH241249   8.099   1.143  11.823  0.1550 -0.4616  0.5461
 5685TIP3    H141250   8.055   1.228  11.817 -0.5415 -0.9134 -2.5988
 5685TIP3    H241251   8.046   1.084  11.770  3.3278 -1.5612 -1.7600
 5686TIP3   OH241252   8.240   1.035  11.066  0.0751  0.3280 -0.4969
 5686TIP3    H141253   8.306   1.010  11.131  0.3709  3.4633  0.5457
 5686TIP3    H241254   8.290   1.083  10.999 -0.6232 -0.6363 -1.7514
 5687TIP3   OH241255   8.429   5.090  11.493  0.2614 -0.1431 -0.2099
 5687TIP3    H141256   8.343   5.064  11.462  0.7545 -0.7355 -1.1144
 5687TIP3    H241257   8.479   5.009  11.497  0.4777  0.0443  1.3254
 5688TIP3   OH241258   3.928   3.426  10.836  0.0240  0.2975 -0.6572
 5688TIP3    H141259   4.005   3.483  10.842 -1.0940  1.8566 -0.2260
 5688TIP3    H241260   3.905   3.426  10.743  0.3512  0.0931 -0.7394
 5689TIP3   OH241261   5.436   1.216  12.184  0.0259 -0.2632 -0.5066
 5689TIP3    H141262   5.478   1.289  12.230  0.1167  0.1733 -1.2637
 5689TIP3    H241263   5.502   1.147  12.184  1.1430  0.7040 -2.4345
 5690TIP3   OH241264   7.501   0.131  11.935  0.2634  0.2267 -0.3207
 5690TIP3    H141265   7.580   0.178  11.962  0.4480 -0.8258  1.0611
 5690TIP3    H241266   7.478   0.077  12.010 -1.8401  0.5706 -0.6597
 5691TIP3   OH241267   3.327   1.537  12.891 -0.0116  0.2387 -0.4857
 5691TIP3    H141268   3.402   1.596  12.900  0.6647 -0.7307  0.4849
 5691TIP3    H241269   3.250   1.593  12.902  0.5531  1.2474 -1.5032
 5692TIP3   OH241270   4.876   2.450  11.685 -0.1910 -0.0529 -0.3345
 5692TIP3    H141271   4.836   2.453  11.599  0.2000 -0.2323 -0.5236
 5692TIP3    H241272   4.963   2.489  11.673  0.1292 -0.7029 -0.1667
 5693TIP3   OH241273   2.502   0.084  11.444  0.2929 -0.1932  0.0594
 5693TIP3    H141274   2.496   0.092  11.349 -0.9187 -1.2092  0.0283
 5693TIP3    H241275   2.442   0.150  11.479  0.1168 -0.3755  0.1014
 5694TIP3   OH241276   7.812   2.923  11.527  0.0898  0.3111  0.1282
 5694TIP3    H141277   7.792   2.955  11.439  1.7156 -0.7390 -0.6851
 5694TIP3    H241278   7.894   2.875  11.516 -0.0008 -0.3712  2.1172
 5695TIP3   OH241279   0.857   2.305  11.745 -0.0130 -0.0328  0.4986
 5695TIP3    H141280   0.794   2.356  11.693  1.0287  3.6331  2.5171
 5695TIP3    H241281   0.826   2.312  11.835  1.0446 -1.7419  1.0400
 5696TIP3   OH241282   2.287   2.528  10.412 -0.4649 -0.2474 -0.6530
 5696TIP3    H141283   2.238   2.452  10.381 -1.4721  0.1942 -0.1909
 5696TIP3    H241284   2.289   2.517  10.508 -0.8528  0.4480 -0.5635
 5697TIP3   OH241285   3.636   0.258  11.939  0.3441 -0.6831  0.1142
 5697TIP3    H141286   3.603   0.342  11.971  0.9496 -0.2339 -0.4199
 5697TIP3    H241287   3.692   0.227  12.010  1.3739  0.1253 -0.3206
 5698TIP3   OH241288   6.921   6.697  10.768 -0.3400 -0.0530  0.0332
 5698TIP3    H141289   6.826   6.688  10.766 -0.2107 -1.7620  0.1709
 5698TIP3    H241290   6.936   6.782  10.810 -1.7924 -0.3555  1.2492
 5699TIP3   OH241291   6.412   7.666  12.169 -0.2107 -0.0107 -0.3359
 5699TIP3    H141292   6.446   7.660  12.259 -2.5567  1.1713  0.7260
 5699TIP3    H241293   6.324   7.627  12.174 -0.0686 -0.7048 -2.3524
 5700TIP3   OH241294   7.317   1.763  11.522  0.0247  0.5392 -0.0962
 5700TIP3    H141295   7.382   1.695  11.503  1.3918  1.9785 -0.8489
 5700TIP3    H241296   7.249   1.719  11.573  1.4344 -1.1170  0.4337
 5701TIP3   OH241297   3.457   4.891  11.638 -0.3297  0.0554 -0.1434
 5701TIP3    H141298   3.453   4.893  11.543  3.3614 -0.0415 -0.4797
 5701TIP3    H241299   3.518   4.819  11.657  0.0653  0.9229  2.1883
 5702TIP3   OH241300   3.372   2.604  11.194  0.0635  0.1890  0.1803
 5702TIP3    H141301   3.346   2.670  11.257 -0.2803 -0.0881  0.3329
 5702TIP3    H241302   3.319   2.623  11.116 -2.4112 -1.7265  1.2156
 5703TIP3   OH241303   3.866   8.089  10.906  0.5762 -0.5776  0.2916
 5703TIP3    H141304   3.822   8.172  10.925  0.1748 -0.6290 -0.3665
 5703TIP3    H241305   3.869   8.043  10.990 -3.4654 -1.9198 -0.0641
 5704TIP3   OH241306   5.891   7.288  10.831 -0.0454 -0.1975 -0.2491
 5704TIP3    H141307   5.908   7.227  10.759 -1.3146 -2.2513  1.0891
 5704TIP3    H241308   5.818   7.341  10.800 -0.3115 -0.7800 -0.6434
 5705TIP3   OH241309   5.302   6.121  12.476  0.4263 -0.0253  0.3125
 5705TIP3    H141310   5.260   6.171  12.406  1.9354  1.5624  0.4641
 5705TIP3    H241311   5.346   6.049  12.430  0.8598  0.6292 -0.3395
 5706TIP3   OH241312   4.862   2.923  11.176 -0.0701 -0.3352 -0.2040
 5706TIP3    H141313   4.768   2.938  11.183  0.2757  1.3979  1.8858
 5706TIP3    H241314   4.895   2.999  11.126  0.3485 -0.3062  0.1073
 5707TIP3   OH241315   8.355   5.446  11.700 -0.4839 -0.1609  0.5151
 5707TIP3    H141316   8.404   5.520  11.735  0.0971 -0.6788  0.8314
 5707TIP3    H241317   8.422   5.389  11.662 -1.1506  0.6753 -2.0614
 5708TIP3   OH241318   2.694   0.921  11.482  0.1928  0.4300  0.5067
 5708TIP3    H141319   2.695   0.865  11.405  2.5410  0.9935  0.0236
 5708TIP3    H241320   2.634   0.879  11.543 -0.2329 -1.0708 -0.9022
 5709TIP3   OH241321   2.994   0.246  12.025 -0.4058 -0.1575 -0.2273
 5709TIP3    H141322   2.995   0.340  12.045  0.5544 -0.0983 -0.4809
 5709TIP3    H241323   2.902   0.224  12.015 -0.8282  0.2439  2.1998
 5710TIP3   OH241324   5.956   5.709  11.501 -0.0200 -0.5498  0.2006
 5710TIP3    H141325   6.017   5.649  11.457 -0.4937  0.1199 -1.4442
 5710TIP3    H241326   5.990   5.796  11.481  0.1395 -0.2194  1.7956
 5711TIP3   OH241327   8.067   7.863  11.756 -0.2360 -0.3981  0.3181
 5711TIP3    H141328   8.026   7.902  11.679 -2.2923  0.3874  1.6997
 5711TIP3    H241329   8.148   7.823  11.724 -0.6279  0.5833 -2.0644
 5712TIP3   OH241330   1.890   2.920  11.955 -0.2157 -0.4229  0.4613
 5712TIP3    H141331   1.823   2.943  12.019  0.5211 -0.4898  1.2773
 5712TIP3    H241332   1.850   2.939  11.870 -0.7108  1.0238  0.9843
 5713TIP3   OH241333   1.328   2.204  11.237 -0.2536 -0.1020 -0.0688
 5713TIP3    H141334   1.381   2.282  11.220 -1.1572  0.7262  0.8108
 5713TIP3    H241335   1.258   2.207  11.172 -0.0033 -0.4663 -0.3620
 5714TIP3   OH241336   4.242   6.964  12.327 -0.2776 -0.9578  0.2526
 5714TIP3    H141337   4.197   7.047  12.312  0.7845 -0.1887  1.1374
 5714TIP3    H241338   4.180   6.897  12.299 -1.8385  0.0697  1.1289
 5715TIP3   OH241339   5.976   7.800  10.675 -0.3838 -0.1621 -0.1542
 5715TIP3    H141340   5.941   7.768  10.592 -0.0144 -3.7182  0.8817
 5715TIP3    H241341   6.046   7.861  10.650 -0.4526 -0.9282 -2.4330
 5716TIP3   OH241342   1.291   5.042  11.688 -0.2986 -0.2612  0.6771
 5716TIP3    H141343   1.247   4.958  11.673 -1.2364  0.3173  0.1068
 5716TIP3    H241344   1.252   5.075  11.769 -1.7660  0.7594 -0.3944
 5717TIP3   OH241345   8.197   4.958  11.395 -0.1102  0.5100 -0.1892
 5717TIP3    H141346   8.188   4.885  11.333 -0.2466 -1.1379  1.6757
 5717TIP3    H241347   8.120   4.952  11.451  0.0145  1.9513  0.1849
 5718TIP3   OH241348   1.499   7.265  10.571 -0.0955 -0.1868  0.0883
 5718TIP3    H141349   1.551   7.345  10.564  0.3925 -0.5804 -1.1282
 5718TIP3    H241350   1.563   7.197  10.592 -0.3691 -0.3963  0.2431
 5719TIP3   OH241351   6.690   3.627  11.039  0.0503  0.0020 -0.1489
 5719TIP3    H141352   6.610   3.675  11.061 -0.3571 -0.3624 -0.7867
 5719TIP3    H241353   6.678   3.542  11.081 -0.1524 -0.2433 -0.6877
 5720TIP3   OH241354   7.632   6.634  12.822 -0.1827 -0.1717 -0.3568
 5720TIP3    H141355   7.569   6.697  12.786 -3.3578 -1.4500  2.4864
 5720TIP3    H241356   7.591   6.549  12.808  2.4500 -1.4049 -1.1014
 5721TIP3   OH241357   8.301   7.735  12.718  0.2368 -0.4220 -0.3314
 5721TIP3    H141358   8.277   7.825  12.695  0.9079 -0.1950 -0.1587
 5721TIP3    H241359   8.383   7.720  12.673 -0.0890 -1.1074 -0.7071
 5722TIP3   OH241360   2.510   4.025  11.305 -0.0527 -0.1851  0.4274
 5722TIP3    H141361   2.529   4.049  11.215 -1.1271 -1.7606 -0.2672
 5722TIP3    H241362   2.577   4.070  11.357  0.3699  1.0229 -1.1012
 5723TIP3   OH241363   4.167   3.211  12.509  0.0265  0.3125 -0.6676
 5723TIP3    H141364   4.182   3.212  12.603  0.5189 -0.5414 -0.7261
 5723TIP3    H241365   4.101   3.279  12.494  0.4240  0.8964  0.2014
 5724TIP3   OH241366   4.259   4.153  12.531 -0.6248  0.3174  0.2799
 5724TIP3    H141367   4.339   4.159  12.584 -0.7745  1.1360  0.4280
 5724TIP3    H241368   4.274   4.213  12.458 -0.4883 -0.6791 -0.5454
 5725TIP3   OH241369   3.140   2.322  10.535 -0.1135  0.2406  0.2135
 5725TIP3    H141370   3.200   2.255  10.570  0.3479  0.3825 -0.2895
 5725TIP3    H241371   3.053   2.286  10.550  0.0828  0.1258  1.1621
 5726TIP3   OH241372   4.773   3.505  10.548  0.1046 -0.4918  0.2937
 5726TIP3    H141373   4.782   3.415  10.580  0.5729 -1.5327 -2.4933
 5726TIP3    H241374   4.686   3.508  10.509 -0.2065  0.5282  1.0288
 5727TIP3   OH241375   1.050   8.248  10.994 -0.6319  0.3567 -0.0146
 5727TIP3    H141376   1.021   8.305  10.923  0.2419  0.4692 -0.2976
 5727TIP3    H241377   1.080   8.308  11.062  0.4567  0.2692 -0.3829
 5728TIP3   OH241378   5.207   3.734  10.421 -0.5457 -0.6857  1.0235
 5728TIP3    H141379   5.156   3.728  10.502 -1.6358  0.8459  0.4995
 5728TIP3    H241380   5.206   3.645  10.385 -0.0463 -1.3895  2.6590
 5729TIP3   OH241381   5.666   7.299  12.713 -0.2767  0.5299 -0.3806
 5729TIP3    H141382   5.615   7.380  12.707  0.6976  1.1231 -0.8897
 5729TIP3    H241383   5.622   7.248  12.780 -0.8942  1.5009 -0.0297
 5730TIP3   OH241384   5.881   4.697  11.476  0.0422 -0.1449  0.0746
 5730TIP3    H141385   5.818   4.764  11.504  1.1987  1.9104 -1.9304
 5730TIP3    H241386   5.828   4.618  11.464 -2.1406  1.3745 -1.0544
 5731TIP3   OH241387   6.371   6.619  11.777  0.1827 -0.0888  0.3950
 5731TIP3    H141388   6.404   6.532  11.799  1.2775  0.3140  0.4364
 5731TIP3    H241389   6.423   6.679  11.832 -1.7084  0.4972  1.6357
 5732TIP3   OH241390   1.815   6.896  12.129  0.1739 -0.1971 -0.5041
 5732TIP3    H141391   1.806   6.964  12.196  1.0596 -0.2894 -0.2751
 5732TIP3    H241392   1.792   6.815  12.175 -2.3484  0.0575 -1.1521
 5733TIP3   OH241393   0.032   4.421  11.921  0.5464  0.1315  0.1493
 5733TIP3    H141394   0.034   4.501  11.974 -0.4504 -0.5398  1.2705
 5733TIP3    H241395  -0.032   4.440  11.852 -0.0634  0.1479  0.7076
 5734TIP3   OH241396   2.080   7.201  10.381  0.5815  0.4298  0.4876
 5734TIP3    H141397   2.098   7.173  10.291 -1.5693  0.6147 -0.0455
 5734TIP3    H241398   1.993   7.166  10.400  0.2454  1.9200  1.8428
 5735TIP3   OH241399   3.116   7.213  10.988 -0.1353 -0.4764  0.7436
 5735TIP3    H141400   3.212   7.218  10.991  0.0369 -2.1322 -0.6078
 5735TIP3    H241401   3.089   7.231  11.078  1.6584 -2.9709  1.9106
 5736TIP3   OH241402   3.232   3.979  12.833  0.0396  0.0926 -0.1308
 5736TIP3    H141403   3.210   4.010  12.920 -0.3608  0.6315 -0.4153
 5736TIP3    H241404   3.169   4.023  12.775  0.4542 -0.0642 -0.7146
 5737TIP3   OH241405   1.636   3.393  10.353  0.1644 -0.2033 -0.0901
 5737TIP3    H141406   1.635   3.384  10.448 -0.2796 -0.0391 -0.0778
 5737TIP3    H241407   1.546   3.375  10.326  0.1524  0.3288 -0.4271
 5738TIP3   OH241408   2.360   2.455  12.760  0.0124 -0.1025 -0.0575
 5738TIP3    H141409   2.297   2.383  12.764 -0.0529 -0.0758 -0.5419
 5738TIP3    H241410   2.332   2.508  12.685  1.0870 -0.5424 -0.8031
 5739TIP3   OH241411   4.726   7.377  10.316 -0.2244  0.4985 -0.8714
 5739TIP3    H141412   4.717   7.282  10.302 -0.3889  0.3693  0.0521
 5739TIP3    H241413   4.768   7.384  10.401 -0.5981  1.2649 -0.7478
 5740TIP3   OH241414   6.681   0.491  11.898 -0.1740 -0.3550 -0.0194
 5740TIP3    H141415   6.667   0.468  11.990  0.8557 -1.8826 -0.2087
 5740TIP3    H241416   6.663   0.585  11.894  0.5583 -0.0892  1.9046
 5741TIP3   OH241417   7.974   3.931  11.094 -0.1953 -0.0587 -0.3081
 5741TIP3    H141418   7.964   4.019  11.057 -0.9991  0.3130  0.7317
 5741TIP3    H241419   8.022   3.882  11.027  0.9627  1.3766 -0.5758
 5742TIP3   OH241420   5.266   5.064  10.928  0.9920  0.1038 -0.3427
 5742TIP3    H141421   5.276   5.073  11.023 -1.7156  0.1829  0.0209
 5742TIP3    H241422   5.355   5.052  10.896  2.0151  0.2049  2.1814
 5743TIP3   OH241423   7.415   8.261  17.392  0.1639 -0.4300 -0.1441
 5743TIP3    H141424   7.420   8.177  17.347  0.4159  0.3129 -1.5845
 5743TIP3    H241425   7.326   8.292  17.375  0.5461  0.2743 -0.9863
 5744TIP3   OH241426   6.110   7.321  12.178  0.0191  0.6093 -0.2625
 5744TIP3    H141427   6.134   7.413  12.169  1.0814  0.6238  2.0698
 5744TIP3    H241428   6.020   7.317  12.145 -0.1597  2.5465 -0.1305
 5745TIP3   OH241429   5.629   3.096  11.718 -0.1876  0.9233 -0.0375
 5745TIP3    H141430   5.592   3.142  11.643 -1.7406  0.1542  0.2294
 5745TIP3    H241431   5.644   3.007  11.687  1.0138  1.0769  0.0198
 5746TIP3   OH241432   5.295   5.297  12.326 -0.1526 -0.1263 -0.4905
 5746TIP3    H141433   5.273   5.299  12.233  1.0619  0.4584 -0.7894
 5746TIP3    H241434   5.364   5.362  12.336 -0.3544 -0.0755  0.8576
 5747TIP3   OH241435   3.114   3.751  10.886  0.0039 -0.1297  0.2077
 5747TIP3    H141436   3.194   3.801  10.869  1.6841 -2.1490  1.6941
 5747TIP3    H241437   3.079   3.787  10.967 -0.2535  0.3227 -0.0990
 5748TIP3   OH241438   0.479   3.290  12.049  0.0223 -0.0366 -0.9111
 5748TIP3    H141439   0.562   3.266  12.091  0.1108  0.5721 -0.7383
 5748TIP3    H241440   0.437   3.206  12.031  0.8509 -0.3727 -1.3570
 5749TIP3   OH241441   8.270   1.953  11.762  0.8256  0.0231  0.0474
 5749TIP3    H141442   8.295   2.035  11.806 -0.1694 -0.5686  1.7911
 5749TIP3    H241443   8.189   1.926  11.805 -0.8172 -0.1040 -2.8694
 5750TIP3   OH241444   5.539   0.756  12.556  0.0849  0.2009  0.5180
 5750TIP3    H141445   5.444   0.746  12.564  0.0610 -1.6133 -1.2207
 5750TIP3    H241446   5.569   0.670  12.526  2.6630 -0.1860  3.6207
 5751TIP3   OH241447   2.342   0.619  11.725 -0.0696 -0.3677 -0.1426
 5751TIP3    H141448   2.266   0.618  11.666  0.1657 -0.6070 -0.4477
 5751TIP3    H241449   2.351   0.527  11.752  1.6773 -0.8739 -2.1604
 5752TIP3   OH241450   3.343   6.185  11.380 -0.6518 -0.7036  0.8616
 5752TIP3    H141451   3.352   6.090  11.375  0.7471 -0.5426 -0.4611
 5752TIP3    H241452   3.433   6.218  11.377 -1.1604  0.7379 -1.8808
 5753TIP3   OH241453   1.067   2.754  11.709  0.4675 -0.7116 -0.0426
 5753TIP3    H141454   1.037   2.845  11.699 -0.9485 -1.4091 -3.8079
 5753TIP3    H241455   0.987   2.702  11.704  1.2314 -2.2320  2.3341
 5754TIP3   OH241456   5.508   7.882  10.727  0.6134  0.1825  0.0044
 5754TIP3    H141457   5.488   7.949  10.793 -0.1948  0.4470 -0.4925
 5754TIP3    H241458   5.478   7.920  10.645  1.3100 -0.2847 -0.4744
 5755TIP3   OH241459   6.135   1.793  10.888 -0.2369  0.1129  0.1086
 5755TIP3    H141460   6.136   1.802  10.792 -1.6424 -2.2844 -0.2301
 5755TIP3    H241461   6.156   1.701  10.903  1.7143  0.8312  2.2674
 5756TIP3   OH241462   5.169   1.113  11.020 -0.3961 -0.2134 -0.2289
 5756TIP3    H141463   5.170   1.082  11.111  0.3439 -0.2975 -0.2623
 5756TIP3    H241464   5.245   1.170  11.013  0.2543 -1.1484 -1.1122
 5757TIP3   OH241465   7.023   7.543  11.736 -0.2955  0.3411  0.5796
 5757TIP3    H141466   7.077   7.572  11.809  0.3550 -1.7460  1.0065
 5757TIP3    H241467   6.971   7.471  11.771 -0.1917 -0.5050 -0.9072
 5758TIP3   OH241468   5.234   6.065  11.436 -0.0793 -0.2775  0.3562
 5758TIP3    H141469   5.239   6.052  11.531 -0.7727  0.4781  0.5097
 5758TIP3    H241470   5.323   6.088  11.410  0.0833 -0.3243  0.8557
 5759TIP3   OH241471   3.863   0.021  12.551 -0.1581 -0.0169  0.0614
 5759TIP3    H141472   3.907  -0.063  12.535 -0.0620  0.3879 -2.0223
 5759TIP3    H241473   3.818   0.008  12.635  1.1636 -1.5894  0.5904
 5760TIP3   OH241474   2.395   3.697  11.212  0.3344  0.5725  0.1390
 5760TIP3    H141475   2.465   3.633  11.225  0.4340  0.9564  1.6397
 5760TIP3    H241476   2.432   3.779  11.242  0.1097  1.3212 -1.5176
 5761TIP3   OH241477   0.992   5.123  11.697 -0.4199 -0.1549  0.7520
 5761TIP3    H141478   1.057   5.098  11.763 -0.6138  1.8048  1.7632
 5761TIP3    H241479   1.037   5.186  11.641 -1.1453  0.4567  0.8429
 5762TIP3   OH241480   5.562   0.331  12.530  0.2695 -0.4102 -0.3531
 5762TIP3    H141481   5.606   0.416  12.529 -0.6260  0.0735 -0.1081
 5762TIP3    H241482   5.595   0.288  12.609 -0.8329  0.5892  0.6999
 5763TIP3   OH241483   2.489   8.382  12.049  0.0279  0.2448 -0.0783
 5763TIP3    H141484   2.512   8.381  11.956 -0.5254 -0.2123 -0.2160
 5763TIP3    H241485   2.395   8.402  12.050  0.0017  0.1116  0.3809
 5764TIP3   OH241486   4.460   6.345  11.987 -0.1044 -0.7030 -0.1402
 5764TIP3    H141487   4.414   6.419  11.948  2.0334  1.8808  1.8466
 5764TIP3    H241488   4.399   6.310  12.052 -0.2251  1.1293  0.7879
 5765TIP3   OH241489   5.278   5.567  11.157  0.0468 -0.1577  0.3084
 5765TIP3    H141490   5.351   5.627  11.144  0.9336 -1.5491 -1.7633
 5765TIP3    H241491   5.210   5.599  11.097  0.8436 -1.5956 -1.4682
 5766TIP3   OH241492   6.830   1.445  10.582  0.0312 -0.2479 -0.0114
 5766TIP3    H141493   6.920   1.433  10.551  0.0438 -0.0442 -0.0525
 5766TIP3    H241494   6.839   1.471  10.674 -0.0175 -1.2576  0.2963
 5767TIP3   OH241495   1.797   1.679  10.422 -0.0140  0.0345 -0.4066
 5767TIP3    H141496   1.862   1.643  10.361 -0.2004  2.2416 -2.0236
 5767TIP3    H241497   1.717   1.630  10.404  0.2852 -0.2556 -0.9579
 5768TIP3   OH241498   2.637   6.951  12.542  0.5426  0.2587 -0.2298
 5768TIP3    H141499   2.695   6.876  12.528 -2.6326 -2.4730 -0.1361
 5768TIP3    H241500   2.636   6.996  12.458  1.5321 -0.6133 -0.7356
 5769TIP3   OH241501   4.662   2.654  10.757  0.1332  0.0635  0.1609
 5769TIP3    H141502   4.740   2.667  10.703  0.4571  2.1692  1.0234
 5769TIP3    H241503   4.694   2.666  10.847 -0.6631 -1.9469  0.7706
 5770TIP3   OH241504   0.814   6.367  11.517  0.8430 -0.0049  0.2510
 5770TIP3    H141505   0.881   6.400  11.578 -0.1696  2.0081  0.3412
 5770TIP3    H241506   0.784   6.444  11.470 -1.6157 -0.7893  0.4021
 5771TIP3   OH241507   2.196   1.997  10.978  0.3378 -0.9065 -0.0333
 5771TIP3    H141508   2.136   1.929  11.009  0.2784 -1.1817 -0.7292
 5771TIP3    H241509   2.142   2.077  10.975 -0.1367 -1.2463 -1.0950
 5772TIP3   OH241510   2.979   7.001  11.468 -0.3143  0.1921  0.1544
 5772TIP3    H141511   2.925   7.046  11.403  0.2576 -0.9600 -1.1706
 5772TIP3    H241512   3.001   6.917  11.428 -0.7355 -1.0047  2.2332
 5773TIP3   OH241513   3.068   0.144  12.686  0.1747 -0.7489  0.3865
 5773TIP3    H141514   3.158   0.111  12.676 -0.0612 -1.4879  0.6436
 5773TIP3    H241515   3.076   0.216  12.749  0.7898  0.1230 -0.6438
 5774TIP3   OH241516   0.992   0.892  11.776 -0.8715  0.3421  0.5299
 5774TIP3    H141517   1.015   0.957  11.842 -1.2848  1.8921 -0.7945
 5774TIP3    H241518   1.058   0.824  11.785 -1.0518  0.3838  2.6741
 5775TIP3   OH241519   1.668   3.683  10.852 -0.6260 -0.0284  0.5969
 5775TIP3    H141520   1.646   3.712  10.764 -0.6072  0.0240  0.6091
 5775TIP3    H241521   1.648   3.758  10.908  1.2387  0.6643  0.4103
 5776TIP3   OH241522   1.561   2.686  11.931  0.6566 -0.3263 -0.3255
 5776TIP3    H141523   1.513   2.768  11.936  0.4533 -0.4894  0.6008
 5776TIP3    H241524   1.514   2.635  11.864 -1.4397 -1.0585  1.5581
 5777TIP3   OH241525   5.787   8.225  12.754 -0.1116  0.3049  0.1496
 5777TIP3    H141526   5.808   8.138  12.718  1.2968  0.8915 -0.4906
 5777TIP3    H241527   5.745   8.206  12.838  3.4484 -0.9766  1.8180
 5778TIP3   OH241528   2.845   5.888  11.116  0.6981 -0.1768  0.1587
 5778TIP3    H141529   2.771   5.913  11.172  0.8559 -1.4016  0.9624
 5778TIP3    H241530   2.809   5.821  11.057  0.5526  1.0540 -1.1922
 5779TIP3   OH241531   2.305   1.281  12.867  0.4943  0.1653 -0.0947
 5779TIP3    H141532   2.211   1.285  12.885 -0.2470 -2.0227 -2.6427
 5779TIP3    H241533   2.326   1.367  12.830 -0.3688  0.8475  0.9454
 5780TIP3   OH241534   4.000   7.007  11.106 -0.0533 -0.1740 -0.1115
 5780TIP3    H141535   3.989   7.083  11.165  0.0943  3.0662 -3.8419
 5780TIP3    H241536   3.916   6.962  11.110 -1.7487  2.6801 -0.7578
 5781TIP3   OH241537   2.639   0.768  11.251 -0.1578  0.2495  0.6162
 5781TIP3    H141538   2.726   0.749  11.216 -0.1530  1.2688  0.0249
 5781TIP3    H241539   2.599   0.826  11.186 -1.8632 -1.3694  0.1370
 5782TIP3   OH241540   4.951   8.066  11.222 -0.2452  0.8397 -0.0398
 5782TIP3    H141541   5.017   8.002  11.196  0.0124  1.1178 -0.0747
 5782TIP3    H241542   4.929   8.112  11.141  0.2466  1.4183  0.1448
 5783TIP3   OH241543   7.437   7.219  11.403  0.5229  0.3672  0.0656
 5783TIP3    H141544   7.346   7.201  11.427  0.6556  0.1503  0.4108
 5783TIP3    H241545   7.444   7.188  11.313  0.4544 -0.3141  0.2895
 5784TIP3   OH241546   7.808   5.063  11.230  0.1229  0.3279 -0.0102
 5784TIP3    H141547   7.763   5.026  11.306  0.8827  0.4168  0.4947
 5784TIP3    H241548   7.855   5.139  11.264 -1.1795  1.6290 -0.9869
 5785TIP3   OH241549   0.220   6.822  10.515  0.1931 -0.3722 -0.1371
 5785TIP3    H141550   0.284   6.794  10.580 -0.0117 -0.4346  0.0388
 5785TIP3    H241551   0.212   6.917  10.529  0.5571 -0.2952 -0.4391
 5786TIP3   OH241552   4.727   1.463  11.100  0.3688  0.2525 -0.6258
 5786TIP3    H141553   4.750   1.548  11.137 -0.9761  0.3951 -0.0821
 5786TIP3    H241554   4.803   1.408  11.118  1.3701  1.3877 -1.2137
 5787TIP3   OH241555   0.595   0.998  11.708  0.2341 -0.0173  0.3953
 5787TIP3    H141556   0.618   1.056  11.780 -1.9134  1.3200  0.0923
 5787TIP3    H241557   0.529   0.939  11.744 -1.5736  1.2823 -0.6482
 5788TIP3   OH241558   6.914   8.346  10.626  0.1839  0.7886  0.4455
 5788TIP3    H141559   6.821   8.324  10.624  0.5131 -0.6221 -0.2429
 5788TIP3    H241560   6.933   8.377  10.537  1.0798 -2.1994 -0.5143
 5789TIP3   OH241561   3.469   0.611  12.243  0.1461  0.2536  0.0710
 5789TIP3    H141562   3.526   0.584  12.314 -1.2099  1.2441  1.6195
 5789TIP3    H241563   3.390   0.558  12.254 -0.5740  1.2850  0.1123
 5790TIP3   OH241564   0.971   1.698  12.316 -0.2638 -0.0021  0.9197
 5790TIP3    H141565   0.992   1.654  12.398 -2.4124 -0.7453  1.1258
 5790TIP3    H241566   1.031   1.660  12.252  1.7732  0.9231  2.1607
 5791TIP3   OH241567   4.595   6.401  10.458  0.5533  0.1136  0.4030
 5791TIP3    H141568   4.510   6.357  10.446  0.9830 -0.1757 -2.4282
 5791TIP3    H241569   4.574   6.494  10.460  0.1571  0.1112 -1.3464
 5792TIP3   OH241570   1.999   4.786  12.085  0.1082  0.0345 -0.9715
 5792TIP3    H141571   1.939   4.860  12.088 -1.2734 -1.0452 -1.1503
 5792TIP3    H241572   2.073   4.813  12.140 -0.8254  1.1336 -0.2195
 5793TIP3   OH241573   3.246   2.933  12.099 -0.1696  0.2572  0.0954
 5793TIP3    H141574   3.175   2.997  12.102 -0.0545  0.3501  1.3223
 5793TIP3    H241575   3.282   2.932  12.188  0.2170 -1.0792 -0.0486
 5794TIP3   OH241576   6.069   5.876  10.680 -0.0245 -1.2128 -0.4140
 5794TIP3    H141577   6.084   5.804  10.618  0.6225 -0.1950 -1.4732
 5794TIP3    H241578   6.154   5.918  10.690 -0.4516 -0.4097 -0.0381
 5795TIP3   OH241579   1.777   0.759  12.027  0.0099  0.3950 -0.0299
 5795TIP3    H141580   1.801   0.840  12.072 -0.4435  0.2826  0.4316
 5795TIP3    H241581   1.799   0.774  11.936  1.1147  0.5714  0.2553
 5796TIP3   OH241582   1.230   0.193  12.171 -0.0593 -0.3682 -0.2004
 5796TIP3    H141583   1.306   0.252  12.176  0.0178 -0.3620 -1.1319
 5796TIP3    H241584   1.200   0.184  12.261 -0.3648  1.4789 -0.0767
 5797TIP3   OH241585   6.057   1.156  12.093  0.2390  0.3257  0.2133
 5797TIP3    H141586   6.021   1.067  12.097  0.9412  0.0404  0.3774
 5797TIP3    H241587   6.046   1.182  12.001  1.1775 -0.4334 -0.1323
 5798TIP3   OH241588   3.817   0.855  11.345 -0.6503  0.3391  0.0246
 5798TIP3    H141589   3.744   0.915  11.360 -0.1019  0.8778  0.5539
 5798TIP3    H241590   3.808   0.788  11.413 -0.5180  0.5310  0.2302
 5799TIP3   OH241591   0.815   3.364  11.458  0.0583 -0.2218  0.0783
 5799TIP3    H141592   0.896   3.402  11.424  0.1659  0.9173  1.4773
 5799TIP3    H241593   0.789   3.424  11.528 -1.1240 -1.4438  0.7262
 5800TIP3   OH241594   6.585   2.976  12.805  0.2624 -0.0835 -0.4328
 5800TIP3    H141595   6.576   2.890  12.847  2.5742  0.1546  0.7215
 5800TIP3    H241596   6.605   2.955  12.714  0.0197 -0.7525 -0.3437
 5801TIP3   OH241597   6.823   8.024  12.830  0.2838 -0.6782 -0.1393
 5801TIP3    H141598   6.752   7.965  12.802 -1.5499  0.5246  1.6548
 5801TIP3    H241599   6.878   7.970  12.886  0.5646 -1.5220 -1.1992
 5802TIP3   OH241600   0.866   6.995  11.438  0.4329  0.1570  0.2144
 5802TIP3    H141601   0.808   7.005  11.514 -0.5200 -1.0139 -0.3214
 5802TIP3    H241602   0.907   6.910  11.450 -1.0795 -0.8769 -1.4179
 5803TIP3   OH241603   6.937   1.514  12.697  0.4963 -0.4837  0.3249
 5803TIP3    H141604   6.867   1.568  12.660 -0.0626 -1.4158 -0.0080
 5803TIP3    H241605   7.017   1.549  12.657 -0.0316 -1.0462 -1.3210
 5804TIP3   OH241606   4.703   2.474  12.988  0.4663 -0.3160 -0.2996
 5804TIP3    H141607   4.773   2.510  12.934 -0.9535  2.5867 -0.4326
 5804TIP3    H241608   4.649   2.424  12.927  0.0355  1.1786 -1.2111
 5805TIP3   OH241609   0.541   0.958  12.293  0.5807  0.6791  0.0498
 5805TIP3    H141610   0.525   0.933  12.202  0.8963  2.7185 -0.6145
 5805TIP3    H241611   0.494   0.892  12.344 -0.5787  0.1442 -1.6021
 5806TIP3   OH241612   8.030   7.261  11.516 -0.2310  0.3763 -1.1148
 5806TIP3    H141613   8.109   7.207  11.524 -1.8214 -1.8249  3.3961
 5806TIP3    H241614   7.967   7.204  11.472 -0.4427  0.4920 -0.9634
 5807TIP3   OH241615   3.762   0.679  12.141 -0.1971  0.3890  0.1662
 5807TIP3    H141616   3.796   0.590  12.154  1.7614  0.9658 -0.6241
 5807TIP3    H241617   3.772   0.721  12.226  0.8715  0.4527  0.0274
 5808TIP3   OH241618   1.375   7.703  10.474  0.0097  0.4981 -0.1162
 5808TIP3    H141619   1.469   7.689  10.482 -0.0390  0.3666  0.2572
 5808TIP3    H241620   1.361   7.793  10.503 -0.0914  0.2161  0.7425
 5809TIP3   OH241621   6.477   6.472  11.233 -0.3490 -0.1223 -0.0465
 5809TIP3    H141622   6.456   6.557  11.195  0.2897  0.7045  1.3620
 5809TIP3    H241623   6.568   6.455  11.208 -0.3064 -0.1358  0.1135
 5810TIP3   OH241624   2.506   1.702  12.958  0.8394  0.1025 -0.0353
 5810TIP3    H141625   2.570   1.771  12.943  1.0115  0.0195  0.3169
 5810TIP3    H241626   2.558   1.627  12.986  0.5732  0.0760  0.3874
 5811TIP3   OH241627   2.895   4.716  12.370  0.6356  0.2353  0.3827
 5811TIP3    H141628   2.864   4.807  12.375  1.8097  0.6683  0.2738
 5811TIP3    H241629   2.817   4.665  12.348  0.0491  1.2872 -0.0786
 5812TIP3   OH241630   1.992   0.968  12.115  0.7371 -0.3015  0.0426
 5812TIP3    H141631   1.986   0.994  12.023 -1.6980 -0.2019  0.1850
 5812TIP3    H241632   1.972   1.047  12.165  0.5525 -0.7055  0.6267
 5813TIP3   OH241633   4.695   1.677  12.927  0.4562 -0.1443  0.3739
 5813TIP3    H141634   4.680   1.769  12.949  0.1913 -0.5923  2.2695
 5813TIP3    H241635   4.779   1.656  12.967 -0.1517 -1.0792  1.2052
 5814TIP3   OH241636   2.623   3.531  11.245 -0.0122 -0.4507  0.7464
 5814TIP3    H141637   2.685   3.552  11.175 -0.8992  1.0173  0.3675
 5814TIP3    H241638   2.644   3.592  11.315 -0.5697 -0.4238  0.8903
 5815TIP3   OH241639   6.595   1.249  11.652 -0.6020 -0.3093 -0.3544
 5815TIP3    H141640   6.623   1.169  11.608 -1.2815 -1.4510  1.1647
 5815TIP3    H241641   6.601   1.317  11.586  3.1942 -0.9173 -0.8740
 5816TIP3   OH241642   2.807   1.221  10.803 -0.3550  0.3250  0.3242
 5816TIP3    H141643   2.845   1.151  10.748 -0.9752  0.7906 -0.7372
 5816TIP3    H241644   2.810   1.186  10.892  0.6237 -0.4899 -0.0090
 5817TIP3   OH241645   4.004   5.091  11.401  0.0535 -0.5800  0.3296
 5817TIP3    H141646   3.988   5.122  11.490 -1.1151 -0.2877  0.0394
 5817TIP3    H241647   4.098   5.101  11.387  0.0419  0.6042  1.0720
 5818TIP3   OH241648   3.016   6.739  10.934  0.2001  0.0734  0.3779
 5818TIP3    H141649   3.070   6.803  10.980  0.6787  0.7363 -1.0376
 5818TIP3    H241650   3.029   6.759  10.841 -1.6802 -0.4049 -0.0385
 5819TIP3   OH241651   0.510   1.761  11.043  0.3700 -0.3559 -0.5846
 5819TIP3    H141652   0.476   1.848  11.062  0.2946 -0.5867  0.3467
 5819TIP3    H241653   0.541   1.727  11.127  1.9234 -0.5810 -1.2066
 5820TIP3   OH241654   7.707   2.330  11.241  0.2613 -0.2934 -0.6302
 5820TIP3    H141655   7.689   2.329  11.335  1.1196 -0.4758 -0.4621
 5820TIP3    H241656   7.801   2.315  11.234  0.2012 -0.3183 -1.5234
 5821TIP3   OH241657   4.143   2.510  10.851  0.7611  0.1204 -0.1550
 5821TIP3    H141658   4.180   2.432  10.809 -0.2723  0.1060 -1.1089
 5821TIP3    H241659   4.202   2.581  10.827  0.1267  0.1378 -1.8221
 5822TIP3   OH241660   0.054   2.841  11.637  0.1580  0.0926 -0.1144
 5822TIP3    H141661   0.059   2.764  11.694 -1.2208 -0.3834 -0.5846
 5822TIP3    H241662   0.115   2.821  11.565 -1.5859 -1.4975 -1.2470
 5823TIP3   OH241663   2.398   0.383  12.065  0.4005  0.0107 -0.4802
 5823TIP3    H141664   2.392   0.475  12.089 -0.0884 -0.2594  0.4725
 5823TIP3    H241665   2.459   0.345  12.128 -1.6750 -0.9177  1.0923
 5824TIP3   OH241666   1.302   5.813  11.624  0.1125 -0.2032 -0.0780
 5824TIP3    H141667   1.361   5.880  11.660  1.7369 -1.5402 -0.1036
 5824TIP3    H241668   1.326   5.807  11.532  0.3530 -1.1361  0.0284
 5825TIP3   OH241669   7.413   5.791  12.700  0.0456 -0.0837 -0.5715
 5825TIP3    H141670   7.330   5.801  12.654 -1.1455  0.0950  1.5097
 5825TIP3    H241671   7.454   5.877  12.695 -1.2834  0.6964  0.8262
 5826TIP3   OH241672   6.342   1.449  10.662  0.1014 -0.5091 -0.3304
 5826TIP3    H141673   6.405   1.509  10.703 -0.1610 -0.2049 -0.3706
 5826TIP3    H241674   6.394   1.399  10.599  0.0774  0.5568 -1.2149
 5827TIP3   OH241675   0.792   2.628  12.401 -0.0959 -0.2555 -0.1978
 5827TIP3    H141676   0.834   2.559  12.452 -1.3244  0.0539  1.2974
 5827TIP3    H241677   0.705   2.595  12.381  0.7015 -0.8538 -3.1963
 5828TIP3   OH241678   4.033   5.407  11.431  0.0152 -0.4379 -0.3096
 5828TIP3    H141679   4.004   5.360  11.509 -1.0219 -0.5336 -0.7294
 5828TIP3    H241680   3.958   5.403  11.372  0.0398  1.3646 -0.5205
 5829TIP3   OH241681   3.491   7.687  11.288 -0.0009  0.3486  0.6519
 5829TIP3    H141682   3.426   7.741  11.242 -0.1956 -2.5123 -2.8554
 5829TIP3    H241683   3.445   7.606  11.309  1.2404  0.0364  2.3645
 5830TIP3   OH241684   2.678   3.550  12.126  0.5408  0.1011  0.2743
 5830TIP3    H141685   2.773   3.534  12.123  0.5605 -0.1052  1.3525
 5830TIP3    H241686   2.669   3.623  12.187  0.0352  0.4607 -0.2285
 5831TIP3   OH241687   5.472   4.890  10.335  0.0830 -0.2136 -0.1299
 5831TIP3    H141688   5.410   4.944  10.285 -1.9224 -3.3178 -1.2713
 5831TIP3    H241689   5.495   4.819  10.275  1.1152 -1.6642  1.8908
 5832TIP3   OH241690   0.070   7.734  12.533  0.3314 -0.2898  0.2943
 5832TIP3    H141691   0.082   7.639  12.531  1.5992 -0.1456  0.3465
 5832TIP3    H241692   0.087   7.762  12.443  0.0977 -0.0918  0.3115
 5833TIP3   OH241693   0.140   3.589  11.710  0.2907  0.0091 -0.7315
 5833TIP3    H141694   0.071   3.526  11.689 -1.2802  1.9707 -1.7851
 5833TIP3    H241695   0.175   3.559  11.794 -2.5008 -0.5787  0.3211
 5834TIP3   OH241696   7.769   6.183  11.015 -0.2824  0.4081  0.2829
 5834TIP3    H141697   7.708   6.232  11.071  0.3067 -0.1988  1.4885
 5834TIP3    H241698   7.763   6.227  10.930 -2.8682  0.0026  0.1487
 5835TIP3   OH241699   2.871   2.603  11.220  0.2107 -0.3342 -0.1761
 5835TIP3    H141700   2.828   2.583  11.137 -0.4067  1.0136 -0.2151
 5835TIP3    H241701   2.881   2.698  11.219  1.5188 -0.4342  0.6683
 5836TIP3   OH241702   3.747   3.174  12.255 -0.3764 -0.1299 -0.0028
 5836TIP3    H141703   3.700   3.189  12.173  0.6120  0.0843 -0.5471
 5836TIP3    H241704   3.696   3.107  12.300 -2.9655  2.2289  0.8992
 5837TIP3   OH241705   0.554   4.651  13.177 -0.1917 -0.7171  0.2350
 5837TIP3    H141706   0.609   4.670  13.253  0.5259  1.9786 -0.8254
 5837TIP3    H241707   0.483   4.715  13.183 -0.9870 -1.5012 -0.5445
 5838TIP3   OH241708   1.191   3.904  11.545 -0.2883  0.0175 -0.0829
 5838TIP3    H141709   1.186   3.835  11.611  1.0178 -0.1181 -0.0923
 5838TIP3    H241710   1.235   3.863  11.470  1.9099  1.1903  0.4588
 5839TIP3   OH241711   5.852   5.513  10.456  0.1094  0.0692  0.3268
 5839TIP3    H141712   5.909   5.540  10.528  0.5314  1.1211 -0.3843
 5839TIP3    H241713   5.910   5.471  10.393  0.1869  1.4052 -0.5362
 5840TIP3   OH241714   1.654   3.014  10.702  0.2822  0.0099 -0.1898
 5840TIP3    H141715   1.626   3.052  10.619 -0.6896 -2.2158 -0.9383
 5840TIP3    H241716   1.735   3.060  10.723 -0.6798  2.3096 -1.0964
 5841TIP3   OH241717   4.433   6.741  12.022 -0.0361  0.3036  0.1586
 5841TIP3    H141718   4.351   6.781  11.994  0.8788  2.1286 -0.0470
 5841TIP3    H241719   4.461   6.792  12.098  1.0465 -0.1113  0.0618
 5842TIP3   OH241720   6.064   1.940  11.250 -0.1605 -0.0825 -0.1958
 5842TIP3    H141721   6.116   2.019  11.264  0.6885 -0.8471  1.1696
 5842TIP3    H241722   6.013   1.958  11.171 -0.1657  1.9192  0.2157
 5843TIP3   OH241723   5.383   4.750  10.592 -0.0694 -0.3210  0.4327
 5843TIP3    H141724   5.428   4.668  10.572  1.2648  0.2272  1.0207
 5843TIP3    H241725   5.411   4.809  10.522  2.9229  0.9936  2.5301
 5844TIP3   OH241726   0.010   7.151  11.296  0.1423 -0.3492 -0.0961
 5844TIP3    H141727   0.078   7.089  11.268  0.1335  1.0168 -3.6305
 5844TIP3    H241728   0.057   7.234  11.307 -0.5849  0.0843 -0.2402
 5845TIP3   OH241729   3.940   7.484  12.074  0.1723 -0.4866  0.0218
 5845TIP3    H141730   4.001   7.433  12.126  0.0876  0.4359  1.0673
 5845TIP3    H241731   3.861   7.491  12.128 -0.1503 -0.0466 -0.4900
 5846TIP3   OH241732   5.358   5.583  10.552  0.1480  0.1854  0.8221
 5846TIP3    H141733   5.391   5.604  10.639  1.2902  1.1190  0.2089
 5846TIP3    H241734   5.432   5.603  10.493 -0.6539 -0.2246 -0.3677
 5847TIP3   OH241735   2.733   7.151  10.765 -0.4618  0.4567 -0.2304
 5847TIP3    H141736   2.654   7.100  10.784 -0.3770 -0.4011 -1.9564
 5847TIP3    H241737   2.701   7.232  10.725 -0.5031  0.5294 -0.0485
 5848TIP3   OH241738   4.141   7.454  11.158  0.6802  0.6651  0.0395
 5848TIP3    H141739   4.118   7.514  11.087 -1.3533 -1.1112 -0.9391
 5848TIP3    H241740   4.075   7.471  11.225 -0.7040 -1.1700 -0.7529
 5849TIP3   OH241741   7.075   2.982  11.735 -0.3782  0.8813  1.2179
 5849TIP3    H141742   7.124   2.937  11.803 -0.6268  0.9117  1.4166
 5849TIP3    H241743   6.987   2.944  11.738 -0.8559  1.9738  1.9786
 5850TIP3   OH241744   7.883   4.811  11.313 -0.0019  0.0047  0.2708
 5850TIP3    H141745   7.913   4.874  11.248  1.3870 -1.2947 -0.4156
 5850TIP3    H241746   7.788   4.820  11.314  0.1938  2.8578  1.0282
 5851TIP3   OH241747   5.134   7.852  11.212 -0.5400 -0.6552  0.6875
 5851TIP3    H141748   5.105   7.796  11.284 -1.1880 -2.1874 -0.7040
 5851TIP3    H241749   5.215   7.812  11.182 -1.7203 -1.7838 -1.2225
 5852TIP3   OH241750   6.251   4.356  11.797 -0.1901 -0.9566 -0.5594
 5852TIP3    H141751   6.242   4.261  11.807 -4.4327 -1.0061 -2.4108
 5852TIP3    H241752   6.305   4.367  11.718  0.8635 -1.7561  0.0253
 5853TIP3   OH241753   6.205   0.500  11.652  0.1210  0.3376 -0.3090
 5853TIP3    H141754   6.149   0.529  11.724 -0.1271  1.2165 -0.8302
 5853TIP3    H241755   6.293   0.530  11.675  0.2942 -0.5999  0.2726
 5854TIP3   OH241756   2.563   0.553  11.464  0.1901  0.0023 -0.2986
 5854TIP3    H141757   2.506   0.602  11.524 -1.4014 -1.7585 -0.2608
 5854TIP3    H241758   2.519   0.561  11.379  0.0619 -1.0664 -0.3438
 5855TIP3   OH241759   0.001   0.612  12.689  0.2115 -0.6586 -0.1317
 5855TIP3    H141760  -0.017   0.524  12.655  0.4323 -1.0979  0.8490
 5855TIP3    H241761  -0.076   0.634  12.741 -0.9077  0.7304 -2.2340
 5856TIP3   OH241762   6.158   0.123  10.868  0.5264  0.1220  0.5619
 5856TIP3    H141763   6.107   0.048  10.900  0.6696  0.0849  0.7046
 5856TIP3    H241764   6.240   0.119  10.917  1.8530 -1.4630 -1.5970
 5857TIP3   OH241765   3.170   7.196  12.046  0.2122 -0.5252 -0.3002
 5857TIP3    H141766   3.099   7.257  12.065 -0.6310 -2.3347  3.3040
 5857TIP3    H241767   3.235   7.213  12.115  1.8967 -0.9722 -1.7009
 5858TIP3   OH241768   1.715   1.852  10.642  0.4327  0.9954  0.1632
 5858TIP3    H141769   1.785   1.847  10.707  1.2254  0.6323 -0.6851
 5858TIP3    H241770   1.743   1.791  10.573 -0.7073  0.8771 -0.2118
 5859TIP3   OH241771   7.170   4.136  11.520  0.2526  0.5387 -0.1539
 5859TIP3    H141772   7.249   4.153  11.468  0.2164 -0.8002 -0.6766
 5859TIP3    H241773   7.201   4.139  11.610  0.3518  2.7241 -0.1987
 5860TIP3   OH241774   4.386   1.543  10.755  0.3885  0.1400 -0.0313
 5860TIP3    H141775   4.442   1.474  10.720  0.7479  0.7280 -0.6490
 5860TIP3    H241776   4.428   1.624  10.726 -2.6520  0.6984 -3.7892
 5861TIP3   OH241777   5.313   7.769  11.538  0.1358 -0.3192 -0.0800
 5861TIP3    H141778   5.406   7.763  11.520  0.5957  1.1689  1.5096
 5861TIP3    H241779   5.300   7.859  11.570 -1.5729 -0.9190  1.0807
 5862TIP3   OH241780   0.945   5.194  11.096  0.1764  0.8435  0.2654
 5862TIP3    H141781   0.898   5.238  11.024 -0.2074  0.3647  0.2187
 5862TIP3    H241782   0.896   5.219  11.174 -0.7736 -0.4465  0.1160
 5863TIP3   OH241783   4.446   2.964  10.767  0.2501  0.1628 -0.4202
 5863TIP3    H141784   4.433   3.032  10.833 -1.0757 -0.7277  0.2826
 5863TIP3    H241785   4.443   2.882  10.816  2.4270 -0.4196 -1.1658
 5864TIP3   OH241786   2.225   7.213  12.240  0.2332  0.3218 -0.7430
 5864TIP3    H141787   2.241   7.137  12.184 -0.8053 -1.7939  1.6296
 5864TIP3    H241788   2.312   7.242  12.267  0.6356 -1.7416  0.3662
 5865TIP3   OH241789   7.585   1.527  11.190  0.0792  0.3098  0.4952
 5865TIP3    H141790   7.550   1.557  11.274 -0.3994  1.0982  0.0250
 5865TIP3    H241791   7.679   1.519  11.206 -0.1741 -0.9803  1.5126
 5866TIP3   OH241792   0.316   4.564  12.152 -0.1535 -0.1233  0.7853
 5866TIP3    H141793   0.356   4.599  12.232  1.0498 -0.0180  0.1559
 5866TIP3    H241794   0.340   4.626  12.084 -0.0263 -0.9226  0.0874
 5867TIP3   OH241795   6.233   4.697  10.694 -0.0548  0.5409 -0.1211
 5867TIP3    H141796   6.185   4.775  10.666  0.5107  1.5557  1.6005
 5867TIP3    H241797   6.219   4.692  10.788 -0.7403 -1.9414 -0.2882
 5868TIP3   OH241798   1.970   4.142  12.562 -0.5274  0.0502 -0.1290
 5868TIP3    H141799   2.021   4.187  12.495 -2.6313 -0.0597 -1.9116
 5868TIP3    H241800   2.010   4.055  12.568  0.7393  0.6319  0.0310
 5869TIP3   OH241801   4.109   1.387  11.621  0.7667  0.1048  0.1233
 5869TIP3    H141802   4.140   1.352  11.537 -1.5061  1.3990 -1.3850
 5869TIP3    H241803   4.075   1.474  11.599 -2.9103 -0.7443  1.6489
 5870TIP3   OH241804   7.843   6.017  10.580 -0.2563  0.3299 -0.3560
 5870TIP3    H141805   7.863   5.987  10.669 -0.2208  0.2777 -0.3821
 5870TIP3    H241806   7.928   6.020  10.536 -0.5860 -2.9648 -1.4679
 5871TIP3   OH241807   3.173   0.064  12.382 -0.3963  0.3231 -0.3730
 5871TIP3    H141808   3.131   0.125  12.321  0.8684  0.9079 -0.6966
 5871TIP3    H241809   3.169   0.109  12.466  1.1065  1.1775 -0.7288
 5872TIP3   OH241810   8.342   0.275  11.271  0.1333  0.2020  0.1662
 5872TIP3    H141811   8.405   0.282  11.343 -0.6869 -0.7584  0.9890
 5872TIP3    H241812   8.318   0.183  11.269 -0.5884  0.4012 -0.7209
 5873TIP3   OH241813   4.484   5.151  11.725  0.3109  0.2151 -0.0324
 5873TIP3    H141814   4.405   5.131  11.675 -0.0731  0.4783  0.4595
 5873TIP3    H241815   4.455   5.149  11.817  0.6947  1.1062  0.1166
 5874TIP3   OH241816   5.997   5.577  10.922 -0.2115 -0.2214  0.3072
 5874TIP3    H141817   6.022   5.646  10.983 -0.9572 -1.6729  2.3390
 5874TIP3    H241818   6.010   5.495  10.970 -0.2482 -1.4790 -1.6953
 5875TIP3   OH241819   5.768   5.120  11.821 -0.0372 -0.1739 -0.1409
 5875TIP3    H141820   5.688   5.093  11.775 -1.4419  1.8115  0.9789
 5875TIP3    H241821   5.763   5.074  11.905 -0.5663  0.7341  0.3366
 5876TIP3   OH241822   0.556   6.672  11.073  0.6535 -0.6611 -0.2252
 5876TIP3    H141823   0.531   6.647  10.984 -1.3401 -0.5033  0.2418
 5876TIP3    H241824   0.514   6.608  11.129  0.1847  0.4167  0.7034
 5877TIP3   OH241825   6.250   0.994  10.361 -0.4209 -0.3103 -0.2742
 5877TIP3    H141826   6.331   1.031  10.394 -0.3996 -1.4013  0.9932
 5877TIP3    H241827   6.183   1.059  10.383 -0.7325 -1.7242  3.8668
 5878TIP3   OH241828   4.298   3.019  12.398  0.2620 -0.4047 -0.0638
 5878TIP3    H141829   4.386   3.053  12.383  0.2683 -1.1606 -1.9402
 5878TIP3    H241830   4.248   3.094  12.431  1.1150  0.5586 -0.9064
 5879TIP3   OH241831   7.785   3.253  11.392  0.2333  0.3350  0.3312
 5879TIP3    H141832   7.767   3.321  11.457 -2.0931 -0.3900  0.5537
 5879TIP3    H241833   7.722   3.270  11.322 -1.7866 -2.5883  1.2351
 5880TIP3   OH241834   4.233   7.878  11.783 -0.3076  0.2842 -0.1578
 5880TIP3    H141835   4.218   7.783  11.790 -0.3898  0.0895 -2.4006
 5880TIP3    H241836   4.325   7.889  11.807 -0.6025 -0.1681  1.3110
 5881TIP3   OH241837   7.114   7.762  11.894  0.0581  0.0448 -0.2157
 5881TIP3    H141838   7.054   7.837  11.896 -0.5427 -0.4189  1.7195
 5881TIP3    H241839   7.181   7.787  11.830 -1.1759  1.3808 -1.0649
 5882TIP3   OH241840   5.853   3.693  11.259 -0.5937 -0.1205 -0.1577
 5882TIP3    H141841   5.762   3.678  11.284 -0.1350 -3.0436  0.2003
 5882TIP3    H241842   5.896   3.720  11.341 -0.6404 -1.6907  0.4303
 5883TIP3   OH241843   2.462   5.018  12.597  0.4184 -0.0387 -1.5176
 5883TIP3    H141844   2.502   5.080  12.658  2.8332 -2.5616 -0.2971
 5883TIP3    H241845   2.509   5.032  12.515  1.3599 -0.5447 -1.0892
 5884TIP3   OH241846   4.998   6.804  12.693  0.1230 -0.1405 -0.0271
 5884TIP3    H141847   5.063   6.802  12.623  0.0099 -2.2785 -0.1433
 5884TIP3    H241848   5.046   6.840  12.768  0.8720  0.1197 -0.6089
 5885TIP3   OH241849   8.447   8.093  11.509 -0.2553 -0.2786  0.1566
 5885TIP3    H141850   8.515   8.047  11.559  0.6845  1.3666  0.4617
 5885TIP3    H241851   8.439   8.041  11.429  1.6715 -0.3384 -0.0639
 5886TIP3   OH241852   7.002   7.908  12.581 -0.2279 -0.0793 -0.7181
 5886TIP3    H141853   6.929   7.961  12.550 -0.5075  0.2973  0.5436
 5886TIP3    H241854   7.001   7.918  12.676 -0.4024 -2.4701 -0.3989
 5887TIP3   OH241855   2.139   7.033  11.580 -0.3247  0.0925  0.3135
 5887TIP3    H141856   2.165   6.979  11.506  0.5394 -0.3266  0.9052
 5887TIP3    H241857   2.220   7.073  11.610 -1.0413  2.4347 -0.6308
 5888TIP3   OH241858   3.126   6.949  11.061  0.7073 -0.2155  0.2363
 5888TIP3    H141859   3.175   6.948  11.143  1.7694 -0.3449 -0.3820
 5888TIP3    H241860   3.122   7.042  11.038 -3.9087  0.5254  2.8760
 5889TIP3   OH241861   3.647   1.160  11.634  0.4100  0.5912  0.2538
 5889TIP3    H141862   3.623   1.252  11.635  1.7720  0.9676  0.1906
 5889TIP3    H241863   3.587   1.119  11.697 -1.9284  1.0287 -1.5332
 5890TIP3   OH241864   2.886   0.128  11.182 -0.0148  0.2180  0.6921
 5890TIP3    H141865   2.834   0.051  11.162 -0.5206  0.0847  2.3346
 5890TIP3    H241866   2.833   0.202  11.149  1.5812 -0.1125 -3.1804
 5891TIP3   OH241867   7.870   0.436  12.830  0.5685  0.0732  0.5742
 5891TIP3    H141868   7.897   0.345  12.844  2.5278  0.2504 -1.4111
 5891TIP3    H241869   7.951   0.486  12.843 -0.2979  1.4475  0.8159
 5892TIP3   OH241870   0.720   4.512  10.847  0.0888 -0.1800  0.0682
 5892TIP3    H141871   0.796   4.514  10.790 -2.4239  0.0286 -3.6584
 5892TIP3    H241872   0.729   4.431  10.898  2.6993 -0.1503 -0.2259
 5893TIP3   OH241873   0.125   1.912  10.978  0.0704 -0.4798 -0.1130
 5893TIP3    H141874   0.059   1.943  11.040 -0.3539 -0.4098 -0.5909
 5893TIP3    H241875   0.088   1.832  10.941  0.9258 -1.2872  0.7190
 5894TIP3   OH241876   4.386   2.556  10.672 -0.4427 -0.3939 -0.2121
 5894TIP3    H141877   4.466   2.601  10.699 -1.7059  1.1898  1.0988
 5894TIP3    H241878   4.391   2.471  10.716 -0.1907  0.3020  1.1625
 5895TIP3   OH241879   6.676   3.381  11.175 -0.5639 -0.1324  0.0716
 5895TIP3    H141880   6.723   3.321  11.117 -0.3747  0.3046 -0.2305
 5895TIP3    H241881   6.634   3.324  11.240  2.5066 -0.4559  2.0059
 5896TIP3   OH241882   6.375   0.064  10.993  0.0163  0.0669  0.3001
 5896TIP3    H141883   6.431   0.096  10.923 -0.3087  0.6053  0.2804
 5896TIP3    H241884   6.429   0.001  11.040  0.9303  1.1577  0.7667
 5897TIP3   OH241885   6.628   5.892  11.323 -0.7051 -0.3665  0.4426
 5897TIP3    H141886   6.674   5.846  11.254  0.1892  0.8725  0.1779
 5897TIP3    H241887   6.632   5.833  11.398 -1.8414 -1.8062 -0.5738
 5898TIP3   OH241888   3.531   3.393  11.275  0.0801  0.5274 -0.3058
 5898TIP3    H141889   3.593   3.427  11.340 -0.2273 -0.7939  0.7233
 5898TIP3    H241890   3.568   3.309  11.248 -1.2987 -0.3626  0.4544
 5899TIP3   OH241891   5.193   0.961  11.609  0.1908  0.4132  0.3035
 5899TIP3    H141892   5.166   1.048  11.637  0.1704  0.7915 -0.8499
 5899TIP3    H241893   5.288   0.960  11.620  0.0492  0.0673  1.6695
 5900TIP3   OH241894   4.130   8.330  12.764  0.2292  0.2473 -0.3052
 5900TIP3    H141895   4.129   8.423  12.744 -2.6473  0.5465  0.7212
 5900TIP3    H241896   4.086   8.323  12.849  1.4566 -1.9683  0.2410
 5901TIP3   OH241897   5.627   5.085  11.124 -0.0875 -0.1020  0.1920
 5901TIP3    H141898   5.682   5.116  11.197  0.2118  0.5000 -0.2766
 5901TIP3    H241899   5.578   5.163  11.097 -1.5471 -0.7340  0.9051
 5902TIP3   OH241900   4.630   8.040  12.445  0.3072 -0.2868  0.0275
 5902TIP3    H141901   4.690   8.033  12.371  0.6049 -0.7152  0.3058
 5902TIP3    H241902   4.670   7.987  12.514 -0.7082 -1.1156  0.0046
 5903TIP3   OH241903   4.283   1.236  12.580  0.5610  0.6155  0.3296
 5903TIP3    H141904   4.346   1.175  12.618 -0.4775  0.6052  2.1769
 5903TIP3    H241905   4.208   1.181  12.556 -0.0933  1.0217  1.3467
 5904TIP3   OH241906   2.150   1.242  12.571 -0.5138  0.1512 -0.5528
 5904TIP3    H141907   2.108   1.286  12.497  0.0909 -0.1984 -1.1186
 5904TIP3    H241908   2.210   1.307  12.607 -0.1662  0.0499 -0.9287
 5905TIP3   OH241909   7.809   1.321  12.198  0.4505 -0.1715 -0.4250
 5905TIP3    H141910   7.888   1.363  12.165 -0.9494  1.2982 -2.0475
 5905TIP3    H241911   7.801   1.352  12.288  2.4638 -1.5226  0.2892
 5906TIP3   OH241912   5.910   1.475  12.200 -0.1827  0.7807 -0.1907
 5906TIP3    H141913   5.920   1.388  12.161  1.0021  0.5788  0.5459
 5906TIP3    H241914   5.966   1.474  12.277 -1.3502  1.6858  0.7085
 5907TIP3   OH241915   8.290   2.720  11.146  0.2625 -0.5933  0.1838
 5907TIP3    H141916   8.249   2.634  11.144  0.9817 -1.0049  1.6705
 5907TIP3    H241917   8.330   2.726  11.233 -2.3058  2.4537  1.3334
 5908TIP3   OH241918   4.758   2.146  12.288 -0.0233  0.0723 -0.1385
 5908TIP3    H141919   4.786   2.212  12.226  1.2567 -0.6926 -0.4113
 5908TIP3    H241920   4.816   2.157  12.363 -1.4929  0.9316  0.9276
 5909TIP3   OH241921   5.158   4.767  10.766  0.1847 -0.2391  0.6131
 5909TIP3    H141922   5.082   4.812  10.728  1.1697  1.0794  0.1318
 5909TIP3    H241923   5.217   4.754  10.692  0.5865 -0.9483  1.0478
 5910TIP3   OH241924   4.864   6.118  11.866  0.0131  0.3326 -0.1091
 5910TIP3    H141925   4.922   6.187  11.834  0.7254  0.2055  0.8550
 5910TIP3    H241926   4.900   6.038  11.829 -0.8409  0.4561 -1.2655
 5911TIP3   OH241927   3.978   7.515  11.393  0.2025  0.1684  0.4820
 5911TIP3    H141928   3.909   7.451  11.405  0.1688 -0.1094 -0.9904
 5911TIP3    H241929   3.944   7.596  11.431 -0.9925  0.0587 -0.3074
 5912TIP3   OH241930   8.364   6.469  10.435  0.7739 -0.4768  0.1958
 5912TIP3    H141931   8.408   6.552  10.415 -2.9263  1.7679  0.5378
 5912TIP3    H241932   8.310   6.451  10.359 -2.1523  0.1600  1.9746
 5913TIP3   OH241933   6.083   6.115  10.875  0.1502  0.0411 -0.0847
 5913TIP3    H141934   6.068   6.098  10.968  0.4921 -0.0184 -0.0385
 5913TIP3    H241935   6.069   6.030  10.832 -0.1256  0.0939 -0.1061
 5914TIP3   OH241936   6.654   7.167  11.940  0.3902  0.2959 -0.0051
 5914TIP3    H141937   6.605   7.167  11.858  1.1650  2.7220 -0.5579
 5914TIP3    H241938   6.677   7.076  11.954  0.4983 -0.1677 -2.6547
 5915TIP3   OH241939   3.494   7.471  11.482  0.8513 -0.5791 -0.1392
 5915TIP3    H141940   3.434   7.440  11.551 -2.3769  0.7845 -2.0839
 5915TIP3    H241941   3.503   7.565  11.499  1.0268 -0.4629 -0.8707
 5916TIP3   OH241942   0.993   4.858  10.956  0.2938  0.6525  0.3327
 5916TIP3    H141943   1.064   4.914  10.927  0.6372 -0.6356 -1.4705
 5916TIP3    H241944   0.947   4.833  10.876 -1.1728  0.1093  1.3010
 5917TIP3   OH241945   4.543   0.567  12.651 -0.0641 -0.4427 -0.3042
 5917TIP3    H141946   4.450   0.592  12.658  0.1106  0.3045 -0.6277
 5917TIP3    H241947   4.551   0.492  12.709 -1.2111 -1.4651 -1.4015
 5918TIP3   OH241948   3.434   5.450  12.466 -0.1678 -0.1953  0.2257
 5918TIP3    H141949   3.509   5.485  12.418  0.2876 -0.8964  0.4082
 5918TIP3    H241950   3.426   5.507  12.543 -1.8415  1.8734 -1.3796
 5919TIP3   OH241951   0.398   3.032  12.016  0.5499 -0.1279 -0.2760
 5919TIP3    H141952   0.366   2.956  11.966 -1.7868  0.8656 -0.4246
 5919TIP3    H241953   0.386   3.007  12.108 -2.4670  0.7919 -0.2967
 5920TIP3   OH241954   7.887   3.676  12.393  0.2259 -0.2536  0.2277
 5920TIP3    H141955   7.906   3.585  12.418  1.6643 -0.6031 -1.9249
 5920TIP3    H241956   7.885   3.723  12.477 -0.3579 -2.2007  1.3850
 5921TIP3   OH241957   2.252   0.729  11.078  0.0495  0.6763 -0.5017
 5921TIP3    H141958   2.317   0.666  11.047 -0.7160  0.1066 -0.9571
 5921TIP3    H241959   2.226   0.777  11.000  2.8763  3.7599  0.2306
 5922TIP3   OH241960   2.642   6.151  10.707 -0.4071 -0.1633 -0.1233
 5922TIP3    H141961   2.597   6.155  10.623 -3.1035 -1.6046  1.1257
 5922TIP3    H241962   2.613   6.068  10.746  1.4072  0.0484  1.8867
 5923TIP3   OH241963   0.876   1.905  12.175  0.7888  0.4755  0.4215
 5923TIP3    H141964   0.889   1.829  12.231  0.3952 -0.2678 -0.4573
 5923TIP3    H241965   0.890   1.871  12.086  0.5935  1.4275  0.0179
 5924TIP3   OH241966   3.384   6.684  11.063 -0.0893 -0.1901  0.1999
 5924TIP3    H141967   3.297   6.723  11.058 -0.8635 -1.9051 -0.9152
 5924TIP3    H241968   3.420   6.695  10.975 -0.9777 -3.2186 -0.6617
 5925TIP3   OH241969   2.286   4.494  12.200 -0.2199 -0.1004 -0.5313
 5925TIP3    H141970   2.217   4.561  12.204 -0.2905 -0.2300  1.3752
 5925TIP3    H241971   2.291   4.471  12.107 -0.6060  2.1153 -1.1841
 5926TIP3   OH241972   8.129   4.107  11.955  0.2067  0.0637 -0.2635
 5926TIP3    H141973   8.202   4.085  11.897  1.9091  0.2779  1.6914
 5926TIP3    H241974   8.118   4.031  12.010 -0.3655  0.4426  0.1561
 5927TIP3   OH241975   3.051   6.040  10.556 -0.2040  0.3708 -0.0935
 5927TIP3    H141976   3.094   6.025  10.640 -2.7768  0.1675  1.3089
 5927TIP3    H241977   3.040   6.135  10.551 -2.0650  0.2485  0.9614
 5928TIP3   OH241978   1.118   4.043  12.020 -0.1748 -0.0812 -0.0377
 5928TIP3    H141979   1.092   4.033  11.928  2.1379 -0.0022 -0.7681
 5928TIP3    H241980   1.172   4.122  12.021  1.4059 -1.1086  0.9917
 5929TIP3   OH241981   8.316   7.716  11.724  0.0719  0.0007 -0.0543
 5929TIP3    H141982   8.284   7.638  11.679  1.5500 -1.7246  1.6693
 5929TIP3    H241983   8.410   7.716  11.709  0.2236  0.8926  0.7622
 5930TIP3   OH241984   8.086   1.605  10.505 -0.6507 -0.0112 -0.3025
 5930TIP3    H141985   8.140   1.673  10.465  1.1886 -0.8327  0.6767
 5930TIP3    H241986   8.112   1.524  10.461 -1.3498 -0.3660 -0.0756
 5931TIP3   OH241987   3.083   7.836  11.753  0.0529 -0.0458 -0.2713
 5931TIP3    H141988   2.990   7.861  11.757  0.4094  1.2142  1.7036
 5931TIP3    H241989   3.118   7.861  11.838  1.9478 -1.7100 -0.4899
 5932TIP3   OH241990   2.008   0.840  11.422  0.2500  0.6234  0.0590
 5932TIP3    H141991   1.945   0.894  11.375  0.3916 -1.0402 -2.2446
 5932TIP3    H241992   2.093   0.867  11.388  0.4398  0.0488  0.0641
 5933TIP3   OH241993   6.309   8.081  11.823 -0.4932 -0.1931  0.2371
 5933TIP3    H141994   6.217   8.075  11.848 -0.4279 -1.1016  0.3154
 5933TIP3    H241995   6.323   8.003  11.768 -0.2026  0.8236 -1.1894
 5934TIP3   OH241996   7.701   2.643  11.612  0.0760  0.5397 -0.7183
 5934TIP3    H141997   7.686   2.706  11.683  0.4439  0.4367 -0.5486
 5934TIP3    H241998   7.746   2.693  11.544  1.8105  0.1015  0.0545
 5935TIP3   OH241999   2.582   5.373  10.490 -0.4777 -0.1272  0.1493
 5935TIP3    H142000   2.661   5.405  10.446 -0.4947 -1.4749 -0.9232
 5935TIP3    H242001   2.513   5.435  10.464 -0.3364 -0.5078 -1.1995
 5936TIP3   OH242002   6.108   4.574  10.940  0.3165 -0.3150  0.2177
 5936TIP3    H142003   6.097   4.483  10.911  0.3450 -0.0201 -0.7730
 5936TIP3    H242004   6.023   4.598  10.976  0.8502 -1.3237  2.2975
 5937TIP3   OH242005   8.041   3.841  11.764 -0.3966  0.1866 -0.5890
 5937TIP3    H142006   8.029   3.760  11.715 -1.1322  0.9899 -1.7774
 5937TIP3    H242007   7.967   3.896  11.738  0.6176  1.6159 -0.5710
 5938TIP3   OH242008   8.064   1.403  12.418 -0.5006  0.6353 -0.1072
 5938TIP3    H142009   8.072   1.482  12.472  1.5928 -1.1342  2.4208
 5938TIP3    H242010   8.009   1.344  12.471  0.5117 -0.6897 -0.5001
 5939TIP3   OH242011   6.368   2.817  11.857  0.5110 -0.3516  0.1658
 5939TIP3    H142012   6.438   2.768  11.901  1.5772  0.2837 -0.7468
 5939TIP3    H242013   6.339   2.757  11.788  1.4680  0.0612 -0.6302
 5940TIP3   OH242014   3.930   4.363  10.492  0.1182  0.1188  0.4129
 5940TIP3    H142015   3.964   4.437  10.543  2.2390 -0.0905 -0.5576
 5940TIP3    H242016   3.968   4.286  10.534 -0.4286 -0.2675  0.2097
 5941TIP3   OH242017   8.081   6.812  12.464 -0.1767  0.7573  0.0330
 5941TIP3    H142018   8.067   6.723  12.496  0.5127  0.6278 -0.0185
 5941TIP3    H242019   8.010   6.863  12.504  1.5274  0.9402  3.1807
 5942TIP3   OH242020   7.995   7.915  10.465  0.1934  0.3578  0.4499
 5942TIP3    H142021   7.938   7.992  10.475  1.1346  0.8539  2.3478
 5942TIP3    H242022   8.075   7.949  10.425 -0.0348  0.0260 -0.3130
 5943TIP3   OH242023   5.093   7.065  11.205  0.2981 -0.6198  0.1902
 5943TIP3    H142024   5.007   7.023  11.204  1.1261 -2.6071 -2.5020
 5943TIP3    H242025   5.130   7.041  11.290 -1.1179 -1.2992  0.6522
 5944TIP3   OH242026   1.203   2.441  12.303  0.3028  0.6591  0.0719
 5944TIP3    H142027   1.122   2.412  12.344  0.5583 -0.1489  0.0227
 5944TIP3    H242028   1.224   2.523  12.348 -0.4499  0.7919  0.1963
 5945TIP3   OH242029   4.796   4.716  11.345 -0.2639 -0.4311 -0.3002
 5945TIP3    H142030   4.766   4.642  11.398 -0.8577 -0.5727 -0.8248
 5945TIP3    H242031   4.722   4.736  11.288  0.0158  0.3579 -0.3911
 5946TIP3   OH242032   4.153   7.396  10.390  0.2337 -0.1137  0.0572
 5946TIP3    H142033   4.244   7.387  10.362 -0.4810 -1.7611 -1.9836
 5946TIP3    H242034   4.139   7.491  10.397  1.5330  0.2592 -1.6742
 5947TIP3   OH242035   3.397   4.312  10.628 -0.1020  0.2164  0.6401
 5947TIP3    H142036   3.464   4.362  10.675 -2.2062  3.4366  0.5201
 5947TIP3    H242037   3.323   4.310  10.688 -0.6815 -1.3792 -0.0693
 5948TIP3   OH242038   0.568   6.372  10.600 -0.3869 -0.5133  0.6217
 5948TIP3    H142039   0.642   6.429  10.583  0.0385 -0.6976  1.7554
 5948TIP3    H242040   0.498   6.431  10.628 -0.8493 -0.2884 -0.9357
 5949TIP3   OH242041   8.135   0.715  12.597  0.4847  0.4099 -0.2869
 5949TIP3    H142042   8.082   0.708  12.676 -1.2008 -1.1571 -1.4511
 5949TIP3    H242043   8.183   0.632  12.593  0.9361  0.6808 -0.6522
 5950TIP3   OH242044   2.492   7.169  12.092 -0.5573  0.0086  0.0948
 5950TIP3    H142045   2.524   7.178  12.182 -0.1964 -0.1720 -0.0127
 5950TIP3    H242046   2.462   7.078  12.086 -0.7464  0.0706  0.0840
 5951TIP3   OH242047   1.071   2.786  10.910 -0.2018  0.4320  1.0201
 5951TIP3    H142048   1.032   2.714  10.960  0.9296 -0.3278  0.8538
 5951TIP3    H242049   0.997   2.827  10.864 -0.7417 -1.3806  0.1739
 5952TIP3   OH242050   4.355   2.267  10.765 -0.1599  0.5291  0.0521
 5952TIP3    H142051   4.284   2.233  10.820  0.9548 -0.2386  1.0592
 5952TIP3    H242052   4.398   2.188  10.732  0.5191  0.9909 -0.1706
 5953TIP3   OH242053   4.355   0.878  11.842 -0.4582  0.3436 -0.0701
 5953TIP3    H142054   4.354   0.788  11.874 -3.1388 -0.3512 -1.7088
 5953TIP3    H242055   4.422   0.878  11.773 -1.1981 -0.7588 -0.8278
 5954TIP3   OH242056   2.339   1.994  10.712  0.0102  0.5745 -0.1651
 5954TIP3    H142057   2.301   2.020  10.796  0.5483 -0.2845  0.3571
 5954TIP3    H242058   2.263   1.975  10.657 -0.3409  0.5181  0.3334
 5955TIP3   OH242059   4.753   8.188  12.103 -0.4783 -0.3180  0.4041
 5955TIP3    H142060   4.677   8.129  12.109 -1.2812  0.7164  0.6278
 5955TIP3    H242061   4.759   8.228  12.190 -0.0622  0.0818  0.1933
 5956TIP3   OH242062   4.188   6.980  17.799 -0.2265 -0.1548  0.2249
 5956TIP3    H142063   4.108   7.031  17.816  1.0904  1.6097  1.5834
 5956TIP3    H242064   4.229   6.972  17.885  0.9892 -1.1965 -0.4231
 5957TIP3   OH242065   5.563   3.462  10.586  0.0794  0.4078  0.5994
 5957TIP3    H142066   5.558   3.505  10.671  2.0511  0.5373  0.7025
 5957TIP3    H242067   5.472   3.447  10.561 -0.6944  3.6858  1.0119
 5958TIP3   OH242068   6.585   5.323  11.442 -0.3070 -0.3966 -0.0305
 5958TIP3    H142069   6.594   5.254  11.376  1.1783 -0.6285  0.3906
 5958TIP3    H242070   6.495   5.313  11.474 -0.5991 -1.1600 -1.0357
 5959TIP3   OH242071   2.968   0.690  11.372  0.3075 -0.6388 -0.5825
 5959TIP3    H142072   3.053   0.659  11.403  0.3590 -1.9126 -1.8605
 5959TIP3    H242073   2.989   0.740  11.293  0.2255  2.8746  1.4092
 5960TIP3   OH242074   6.688   7.204  11.250 -0.3217 -0.5310 -0.5270
 5960TIP3    H142075   6.768   7.200  11.199 -0.8665 -0.2804 -1.4286
 5960TIP3    H242076   6.692   7.288  11.295  2.3152 -2.5358  3.5813
 5961TIP3   OH242077   0.054   4.528  10.569 -0.0878 -0.2696 -0.0202
 5961TIP3    H142078   0.047   4.592  10.498 -0.6780 -1.2759 -0.8936
 5961TIP3    H242079  -0.023   4.472  10.560  0.2410 -0.9201  0.9235
 5962TIP3   OH242080   7.729   4.510  10.693 -0.5506 -0.6076 -0.5476
 5962TIP3    H142081   7.676   4.563  10.754 -0.6061 -1.7767  0.4590
 5962TIP3    H242082   7.748   4.430  10.741  2.9434  0.0917 -0.5070
 5963TIP3   OH242083   1.007   3.496  12.323 -0.2761  0.0651 -0.1839
 5963TIP3    H142084   1.028   3.499  12.417 -1.6107  2.4377  0.1100
 5963TIP3    H242085   0.916   3.523  12.318 -0.7422 -1.6545 -2.0839
 5964TIP3   OH242086   0.382   6.714  12.126  0.1639 -0.1434 -0.0385
 5964TIP3    H142087   0.351   6.624  12.112  1.1409 -0.2789 -1.7092
 5964TIP3    H242088   0.391   6.722  12.221 -2.4424 -0.8983  0.3417
 5965TIP3   OH242089   2.161   0.776  12.261 -0.5370  0.5500  0.2537
 5965TIP3    H142090   2.090   0.817  12.211 -0.3235  0.5803 -0.0318
 5965TIP3    H242091   2.174   0.834  12.336 -0.1916  1.0493 -0.1833
 5966TIP3   OH242092   0.743   1.132  10.797 -0.5769  0.4384  0.0430
 5966TIP3    H142093   0.725   1.208  10.852 -1.3702  0.3775 -0.1214
 5966TIP3    H242094   0.788   1.071  10.854 -1.2943  0.4196  0.6046
 5967TIP3   OH242095   1.711   5.541  12.067 -0.7943 -0.1769  0.3750
 5967TIP3    H142096   1.653   5.617  12.073 -1.0716 -0.4410  1.2038
 5967TIP3    H242097   1.652   5.467  12.052 -0.5003 -0.1973 -0.7399
 5968TIP3   OH242098   3.288   2.915  11.761 -0.5926  0.6366 -0.2519
 5968TIP3    H142099   3.293   2.832  11.714 -0.8350  0.1162  0.6241
 5968TIP3    H242100   3.359   2.968  11.724  0.1950 -0.3131 -0.1404
 5969TIP3   OH242101   4.577   6.168  11.815 -0.0798  0.2894 -0.1502
 5969TIP3    H142102   4.549   6.229  11.884 -0.1528 -1.6276  1.6085
 5969TIP3    H242103   4.670   6.153  11.834 -0.1542 -0.4139 -0.3307
 5970TIP3   OH242104   6.775   0.658  11.158  0.6612 -0.4967  0.2156
 5970TIP3    H142105   6.792   0.684  11.068 -1.8916 -1.2446 -0.5697
 5970TIP3    H242106   6.793   0.564  11.160 -1.8681 -1.0724 -0.3442
 5971TIP3   OH242107   7.326   3.490  11.219 -0.4918  0.0274 -0.1012
 5971TIP3    H142108   7.326   3.462  11.311 -0.5874  0.9115  0.1770
 5971TIP3    H242109   7.417   3.507  11.199 -0.2098 -1.9218 -0.7509
 5972TIP3   OH242110   3.577   6.344  11.432 -0.4200 -0.4353  0.0269
 5972TIP3    H142111   3.567   6.420  11.376  0.6240 -0.2183  0.1191
 5972TIP3    H242112   3.501   6.347  11.491  0.4502  1.4642  1.1258
 5973TIP3   OH242113   0.499   4.268  12.836 -0.1852  0.1410  0.0796
 5973TIP3    H142114   0.427   4.274  12.772 -0.6115 -0.7734  0.4474
 5973TIP3    H242115   0.491   4.347  12.888  0.1350  0.8821 -0.9597
 5974TIP3   OH242116   6.199   7.574  11.864 -0.4547 -0.4887 -0.0626
 5974TIP3    H142117   6.151   7.523  11.798 -2.2978 -0.6932  1.3551
 5974TIP3    H242118   6.283   7.530  11.871 -0.7065 -1.2471 -1.3301
 5975TIP3   OH242119   0.741   0.979  12.539  0.0294  0.2144 -0.6157
 5975TIP3    H142120   0.766   0.951  12.451 -0.1206 -0.7079 -0.3690
 5975TIP3    H242121   0.694   0.905  12.576  0.1440  0.5724  0.2713
 5976TIP3   OH242122   5.647   5.274  10.504 -0.1419 -0.4293 -0.0298
 5976TIP3    H142123   5.709   5.339  10.473  0.6134 -0.9524  0.3577
 5976TIP3    H242124   5.638   5.292  10.597  1.0493 -1.6435  0.3484
 5977TIP3   OH242125   1.657   3.802  10.612  0.0803  0.0181 -0.0107
 5977TIP3    H142126   1.691   3.745  10.544 -0.2564  0.0942 -0.2461
 5977TIP3    H242127   1.725   3.869  10.624 -0.5031  0.9001 -1.3636
 5978TIP3   OH242128   5.509   1.982  11.617  0.2668  0.4128 -0.1589
 5978TIP3    H142129   5.431   2.025  11.652 -0.6748 -2.4447  1.5618
 5978TIP3    H242130   5.494   1.979  11.522 -0.9842  1.2544 -0.0038
 5979TIP3   OH242131   5.173   6.189  11.189  0.1812 -0.3068 -0.2825
 5979TIP3    H142132   5.209   6.128  11.253  0.4136  0.1880  0.0685
 5979TIP3    H242133   5.246   6.248  11.168 -0.2662  0.3725  0.0215
 5980TIP3   OH242134   6.729   2.187  12.080 -0.3133 -0.2024  1.0910
 5980TIP3    H142135   6.655   2.148  12.033  0.8148 -0.5867 -0.4453
 5980TIP3    H242136   6.730   2.142  12.165 -2.4639  0.5855  1.5907
 5981TIP3   OH242137   4.409   3.800  12.323  0.4427 -0.3017 -0.0223
 5981TIP3    H142138   4.455   3.808  12.240  0.6273  1.3187  0.2117
 5981TIP3    H242139   4.474   3.824  12.389  0.6260 -2.6053  0.7301
 5982TIP3   OH242140   3.062   2.044  11.775  0.2748  0.6486  0.2972
 5982TIP3    H142141   3.027   2.123  11.817  0.0916  0.8967 -0.3120
 5982TIP3    H242142   3.155   2.062  11.765 -0.1344  1.8248 -2.0210
 5983TIP3   OH242143   7.148   1.527  11.904  0.0878 -0.4386 -1.0748
 5983TIP3    H142144   7.155   1.509  11.998 -3.3974  0.8186 -0.4285
 5983TIP3    H242145   7.139   1.440  11.864  0.1356 -0.9234 -0.0729
 5984TIP3   OH242146   4.555   0.627  12.232  0.0626 -0.0740  0.0914
 5984TIP3    H142147   4.625   0.647  12.170 -1.4200  1.5024 -1.1751
 5984TIP3    H242148   4.476   0.624  12.178 -0.9324 -1.3151  1.5532
 5985TIP3   OH242149   6.427   3.719  11.097 -0.0245  0.3478 -0.4958
 5985TIP3    H142150   6.349   3.698  11.046  1.0152  0.3013 -2.1297
 5985TIP3    H242151   6.417   3.668  11.177 -0.2620 -2.0193 -1.9410
 5986TIP3   OH242152   2.171   1.160  10.937  0.1206  0.1004 -0.2934
 5986TIP3    H142153   2.098   1.223  10.933  0.4292  0.5424  0.6599
 5986TIP3    H242154   2.219   1.174  10.855 -1.2213 -0.6760 -1.2677
 5987TIP3   OH242155   3.135   7.272  10.692  0.1393 -0.0829 -0.1326
 5987TIP3    H142156   3.212   7.324  10.668 -0.3706  0.0007 -1.6450
 5987TIP3    H242157   3.102   7.314  10.772  0.4357  1.1806 -0.6460
 5988TIP3   OH242158   4.904   5.243  12.134  0.0021 -1.1280  0.2347
 5988TIP3    H142159   4.880   5.234  12.226 -0.4109 -1.4952  0.0962
 5988TIP3    H242160   4.857   5.172  12.090  0.5618 -1.2410 -0.1923
 5989TIP3   OH242161   4.282   6.070  11.962  0.0517 -0.1012  0.4619
 5989TIP3    H142162   4.278   6.131  12.036 -0.8797  2.5139 -1.5684
 5989TIP3    H242163   4.320   6.122  11.891 -0.3256 -2.0782 -1.2759
 5990TIP3   OH242164   4.835   2.884  12.224 -0.0682 -0.3321  0.8478
 5990TIP3    H142165   4.909   2.939  12.250 -0.2483  0.8734 -0.9979
 5990TIP3    H242166   4.804   2.923  12.142 -3.8037  0.2837  2.3520
 5991TIP3   OH242167   1.760   2.691  10.745  0.0504 -0.1403  0.3632
 5991TIP3    H142168   1.807   2.762  10.789  1.2380 -0.3551 -0.4924
 5991TIP3    H242169   1.813   2.613  10.763 -1.2340 -0.8239  1.2812
 5992TIP3   OH242170   4.394   7.094  12.692  0.0690  0.0069  0.6304
 5992TIP3    H142171   4.448   7.022  12.725 -0.2011 -0.6169 -0.2561
 5992TIP3    H242172   4.310   7.054  12.671  0.0858  0.4716 -0.3821
 5993TIP3   OH242173   6.885   7.155  12.149 -0.3730  0.3727 -0.0609
 5993TIP3    H142174   6.893   7.247  12.173  0.6337  0.4130 -0.5021
 5993TIP3    H242175   6.792   7.135  12.160 -0.2439  0.7950  2.3851
 5994TIP3   OH242176   1.427   1.372  11.629 -0.1104 -0.3215  0.8286
 5994TIP3    H142177   1.499   1.341  11.684  1.7552  1.7552 -0.2694
 5994TIP3    H242178   1.397   1.451  11.673  1.1361  1.1395 -0.8103
 5995TIP3   OH242179   0.802   8.168  12.266 -0.2377  0.4851 -0.6640
 5995TIP3    H142180   0.717   8.208  12.285 -0.1982  0.6448 -0.8149
 5995TIP3    H242181   0.822   8.116  12.343  0.5416  2.1643  0.3083
 5996TIP3   OH242182   5.399   2.200  10.266 -0.3699  0.3198  0.0365
 5996TIP3    H142183   5.473   2.257  10.284  1.6145 -0.8388 -3.4399
 5996TIP3    H242184   5.348   2.246  10.199  0.6435 -1.3174 -1.9866
 5997TIP3   OH242185   4.340   0.701  11.525  0.4535 -0.1167  0.2558
 5997TIP3    H142186   4.379   0.617  11.502 -1.6399 -0.4050 -2.7402
 5997TIP3    H242187   4.255   0.679  11.563 -0.2085  0.5865 -0.7544
 5998TIP3   OH242188   1.488   1.746  11.595 -0.2442 -0.0618  0.2458
 5998TIP3    H142189   1.497   1.841  11.606 -1.3828  0.1071 -0.1683
 5998TIP3    H242190   1.401   1.734  11.558  0.0463 -1.2497 -0.1062
 5999TIP3   OH242191   3.316   5.741  10.738  0.1616  0.3728  0.0278
 5999TIP3    H142192   3.319   5.789  10.821 -0.0709 -0.3134  0.4439
 5999TIP3    H242193   3.354   5.801  10.674  0.3713  0.9026  0.6377
 6000TIP3   OH242194   5.119   0.715  11.835 -0.5406 -0.1405 -0.7994
 6000TIP3    H142195   5.054   0.783  11.819  1.4020  1.7193 -1.3672
 6000TIP3    H242196   5.130   0.672  11.751 -0.0646  0.4844 -1.0641
 6001TIP3   OH242197   1.866   4.365  10.478 -0.0172  0.1494 -0.0092
 6001TIP3    H142198   1.917   4.391  10.401 -0.6865  2.1558  0.1646
 6001TIP3    H242199   1.803   4.436  10.489 -0.0132 -0.1537  2.3404
 6002TIP3   OH242200   3.822   0.593  11.521 -0.2878  0.3742  0.4102
 6002TIP3    H142201   3.866   0.511  11.543 -1.1439 -0.4870 -0.9121
 6002TIP3    H242202   3.844   0.652  11.593  2.0891 -0.3345  0.3554
 6003TIP3   OH242203   5.065   7.116  11.818  0.3718 -0.3536  1.0392
 6003TIP3    H142204   5.024   7.152  11.739 -0.1291  0.1509  1.5179
 6003TIP3    H242205   5.102   7.193  11.862  1.6963 -0.7839  0.6991
 6004TIP3   OH242206   7.444   7.708  11.963  0.1840 -0.2724 -0.2905
 6004TIP3    H142207   7.412   7.629  11.921  1.1443  0.7556 -3.2268
 6004TIP3    H242208   7.390   7.778  11.927 -1.1756  0.4554  2.8327
 6005TIP3   OH242209   4.935   5.523  10.538 -0.1680  0.5618 -0.0717
 6005TIP3    H142210   5.021   5.502  10.575 -1.2321 -1.4548  1.4806
 6005TIP3    H242211   4.939   5.488  10.449  0.3170 -0.3938  0.3096
 6006TIP3   OH242212   2.373   4.254  10.715  0.1418  0.0911  0.1276
 6006TIP3    H142213   2.366   4.298  10.799 -0.9285 -1.5452  0.9381
 6006TIP3    H242214   2.456   4.284  10.679  0.4900  1.0331  1.6371
 6007TIP3   OH242215   7.426   5.671  11.295  0.0272  0.0955 -0.2674
 6007TIP3    H142216   7.424   5.681  11.199  2.3036  3.4118 -0.1375
 6007TIP3    H242217   7.470   5.588  11.309 -2.1036 -1.4441 -2.0303
 6008TIP3   OH242218   2.967   1.768  13.056  0.1002 -0.1662 -0.4029
 6008TIP3    H142219   3.057   1.775  13.023  0.0405 -2.4678 -1.2376
 6008TIP3    H242220   2.974   1.715  13.135 -0.3827  0.9934  0.4534
 6009TIP3   OH242221   5.175   3.508  10.288 -0.1291  0.2633  0.4754
 6009TIP3    H142222   5.128   3.430  10.319  0.6956 -0.4724 -0.0834
 6009TIP3    H242223   5.211   3.483  10.203 -0.1345  1.3780  0.1239
 6010TIP3   OH242224   3.675   4.866  12.341  0.4808  0.0287 -0.1941
 6010TIP3    H142225   3.689   4.945  12.394 -1.1263  0.1855  0.0527
 6010TIP3    H242226   3.740   4.872  12.272  0.3013  1.6640 -0.2635
 6011TIP3   OH242227   0.804   7.235  10.879 -0.2335  0.3439 -0.2743
 6011TIP3    H142228   0.762   7.227  10.793 -1.1489 -0.1565  0.2010
 6011TIP3    H242229   0.895   7.258  10.860 -0.0552 -1.1970 -1.4447
 6012TIP3   OH242230   0.666   3.026  11.949  0.4184 -0.3438 -0.6294
 6012TIP3    H142231   0.577   3.054  11.972  0.8227  0.6608 -0.2291
 6012TIP3    H242232   0.716   3.038  12.030  1.1569  0.1524 -1.1501
 6013TIP3   OH242233   1.587   0.076  10.584 -0.0798 -0.1409  0.0826
 6013TIP3    H142234   1.609   0.033  10.502  0.5552 -1.6272  0.9884
 6013TIP3    H242235   1.527   0.015  10.628  0.1411  0.2921  1.0158
 6014TIP3   OH242236   0.356   1.667  10.793 -0.0909 -0.7702  0.3513
 6014TIP3    H142237   0.399   1.720  10.861  0.9001 -1.4820  0.2979
 6014TIP3    H242238   0.352   1.579  10.830 -0.3821 -0.9746 -0.1583
 6015TIP3   OH242239   0.322   0.144  12.070  0.1078  0.3498 -0.2231
 6015TIP3    H142240   0.260   0.080  12.104  1.9444 -0.9705  0.8922
 6015TIP3    H242241   0.299   0.154  11.977 -0.1150 -2.1373 -0.4973
 6016TIP3   OH242242   4.946   4.761  12.087 -0.5129  0.1435  0.1136
 6016TIP3    H142243   5.012   4.721  12.144 -1.1827 -1.8081 -0.4072
 6016TIP3    H242244   4.867   4.763  12.141 -0.7991 -0.4329 -0.2768
 6017TIP3   OH242245   2.599   4.831  12.328  0.3116  0.4396 -0.5499
 6017TIP3    H142246   2.512   4.831  12.288 -0.1733 -1.9043  0.3497
 6017TIP3    H242247   2.623   4.924  12.332 -1.2666  1.0153 -2.6255
 6018TIP3   OH242248   6.076   0.069  12.570  0.3918 -0.0364 -0.5539
 6018TIP3    H142249   6.163   0.038  12.594  0.6790 -1.4182 -3.1158
 6018TIP3    H242250   6.091   0.149  12.520 -0.0691  1.5261  1.6592
 6019TIP3   OH242251   0.756   3.736  11.194 -0.3723  0.3807  0.0214
 6019TIP3    H142252   0.818   3.674  11.155  0.4229  1.5668 -0.6587
 6019TIP3    H242253   0.806   3.817  11.203 -1.4215  0.9571  0.8030
 6020TIP3   OH242254   5.899   2.440  12.258  0.3140  0.1185 -0.6934
 6020TIP3    H142255   5.977   2.410  12.305  1.2462  3.1941 -0.0110
 6020TIP3    H242256   5.826   2.402  12.307  1.3551 -0.9334  0.1067
 6021TIP3   OH242257   0.378   7.836  11.105  0.1699 -0.0095  0.0870
 6021TIP3    H142258   0.469   7.809  11.093  0.5711  1.3973 -0.1514
 6021TIP3    H242259   0.377   7.880  11.190 -0.0214  1.0688 -0.4664
 6022TIP3   OH242260   3.354   2.646  10.906 -0.5005 -0.1027  0.6295
 6022TIP3    H142261   3.302   2.597  10.843 -0.5942 -2.2439  2.2660
 6022TIP3    H242262   3.367   2.732  10.865 -2.6419 -0.5493 -1.1733
 6023TIP3   OH242263   0.738   3.488  11.745  0.2717  0.0955 -0.2821
 6023TIP3    H142264   0.721   3.399  11.777 -0.7686  0.5381  0.4532
 6023TIP3    H242265   0.654   3.517  11.710  0.5078  0.9174 -0.1786
 6024TIP3   OH242266   4.330   0.002  11.105  0.4354  0.4083 -0.1971
 6024TIP3    H142267   4.277  -0.069  11.069 -1.8461  2.0421 -0.2321
 6024TIP3    H242268   4.409   0.003  11.051  0.6671 -2.1968 -0.0366
 6025TIP3   OH242269   3.595   4.011  12.125  0.3936  0.3464 -0.1017
 6025TIP3    H142270   3.608   4.078  12.057 -0.0348  1.7970  1.1793
 6025TIP3    H242271   3.499   4.001  12.130  0.3823  0.8052  0.7793
 6026TIP3   OH242272   6.636   2.815  11.015  0.5417  0.0304  0.5374
 6026TIP3    H142273   6.616   2.909  11.012  1.7759  0.3107  0.4735
 6026TIP3    H242274   6.644   2.790  10.923 -0.5198 -0.3185  0.5308
 6027TIP3   OH242275   0.072   3.036  11.354  0.1192  0.5291  0.7965
 6027TIP3    H142276   0.081   3.032  11.259 -0.1009  0.4850  0.7774
 6027TIP3    H242277  -0.013   3.078  11.368  0.6608  1.6012  0.9776
 6028TIP3   OH242278   0.083   0.677  11.422 -0.0985  0.1502 -0.0525
 6028TIP3    H142279   0.032   0.612  11.471  0.5499 -1.3879 -1.3307
 6028TIP3    H242280   0.039   0.683  11.337  1.1944 -0.3920 -0.7809
 6029TIP3   OH242281   7.776   2.088  11.910 -0.3907  0.1269 -0.7506
 6029TIP3    H142282   7.832   2.137  11.850 -0.5832  0.8818 -0.3314
 6029TIP3    H242283   7.823   2.007  11.927  0.2828  0.4827 -0.8905
 6030TIP3   OH242284   2.706   6.813  11.458  0.1335 -0.7907 -0.0719
 6030TIP3    H142285   2.668   6.880  11.400  3.0821  0.6448 -0.5219
 6030TIP3    H242286   2.725   6.740  11.400 -1.4663 -1.3809  0.0923
 6031TIP3   OH242287   5.929   1.388  10.505  0.6513 -0.1952 -0.4875
 6031TIP3    H142288   5.840   1.367  10.477  0.1336  0.7502  0.3557
 6031TIP3    H242289   5.957   1.312  10.556 -0.7811  0.5955  1.6349
 6032TIP3   OH242290   3.249   0.882  11.637  0.2716  0.9851  0.1466
 6032TIP3    H142291   3.279   0.794  11.613 -1.4016  0.6806 -0.9862
 6032TIP3    H242292   3.183   0.867  11.704 -0.7671  1.2898 -0.7878
 6033TIP3   OH242293   5.183   1.429  10.691 -0.1416  0.8859 -0.5247
 6033TIP3    H142294   5.215   1.475  10.768  0.2618  0.6430 -0.5415
 6033TIP3    H242295   5.098   1.394  10.717  1.2672 -1.8325  0.9015
 6034TIP3   OH242296   6.446   3.891  11.805 -0.0249 -0.1083 -0.6076
 6034TIP3    H142297   6.418   3.814  11.856  2.2676 -1.4919 -1.2771
 6034TIP3    H242298   6.367   3.919  11.759 -0.9271 -2.1707 -0.4307
 6035TIP3   OH242299   2.887   7.514  10.308  0.1365  0.4499  0.4157
 6035TIP3    H142300   2.859   7.575  10.241 -0.8663 -1.2983 -0.8485
 6035TIP3    H242301   2.983   7.516  10.304  0.1019  0.2473 -1.2411
 6036TIP3   OH242302   2.360   0.049  10.842  0.6263 -0.0644 -0.0936
 6036TIP3    H142303   2.346  -0.039  10.806 -1.8093 -0.2715  1.1475
 6036TIP3    H242304   2.359   0.106  10.765 -2.5645 -0.6942 -0.6566
 6037TIP3   OH242305   7.089   7.047  11.435  0.2140 -0.2298 -0.0999
 6037TIP3    H142306   7.146   6.971  11.422 -0.4558 -0.9205  0.8314
 6037TIP3    H242307   7.001   7.012  11.430 -0.1287  0.6672 -0.6044
 6038TIP3   OH242308   8.188   4.685  10.512 -0.1578 -0.8470  0.8820
 6038TIP3    H142309   8.216   4.704  10.602 -2.3149  1.3254  1.2224
 6038TIP3    H242310   8.096   4.659  10.521  0.1037 -2.4100 -0.5888
 6039TIP3   OH242311   8.372   7.896  11.330 -0.4041  0.1216  0.0197
 6039TIP3    H142312   8.346   7.808  11.357  2.7727 -0.7482  0.6006
 6039TIP3    H242313   8.402   7.886  11.240  1.7147  0.1433  0.6734
 6040TIP3   OH242314   7.733   6.709  10.560  0.0862  0.2743 -0.0655
 6040TIP3    H142315   7.749   6.687  10.652 -0.4278 -1.1926 -0.2951
 6040TIP3    H242316   7.797   6.657  10.512 -2.1437 -2.0536 -0.7274
 6041TIP3   OH242317   3.326   5.917  10.508  0.3284 -0.3738 -0.1713
 6041TIP3    H142318   3.366   5.998  10.476  0.0571 -0.2221 -0.1297
 6041TIP3    H242319   3.234   5.925  10.483  0.5543 -1.2600 -1.3536
 6042TIP3   OH242320   6.597   2.974  11.755 -0.4890 -0.1425  0.5846
 6042TIP3    H142321   6.545   3.028  11.697  0.7742  0.1427 -0.3319
 6042TIP3    H242322   6.535   2.913  11.794 -1.3520 -0.5082 -1.2720
 6043TIP3   OH242323   7.763   6.309  12.393  0.1700  0.1511  0.0510
 6043TIP3    H142324   7.723   6.372  12.332 -0.0957  1.1411  1.2143
 6043TIP3    H242325   7.758   6.352  12.478 -0.2885 -1.5846  0.9353
 6044TIP3   OH242326   7.712   7.545  11.699  0.6154  0.2759 -0.1210
 6044TIP3    H142327   7.776   7.485  11.737  0.5754  0.5922  0.4488
 6044TIP3    H242328   7.657   7.490  11.643 -1.0448 -0.7136  2.3623
 6045TIP3   OH242329   5.507   0.478  12.109 -0.1018 -0.1223 -0.0728
 6045TIP3    H142330   5.448   0.542  12.148  1.3447 -0.1267  2.3082
 6045TIP3    H242331   5.512   0.407  12.173  1.1076 -0.9429 -1.0124
 6046TIP3   OH242332   6.449   5.808  12.453  0.2152 -1.1349 -0.3936
 6046TIP3    H142333   6.399   5.736  12.414 -1.7350  0.7955 -1.6781
 6046TIP3    H242334   6.383   5.875  12.473  1.8973  0.1748  1.1410
 6047TIP3   OH242335   0.852   7.807  11.853  0.1833 -0.3619  0.6519
 6047TIP3    H142336   0.921   7.796  11.787 -0.8544  1.4491 -0.8263
 6047TIP3    H242337   0.822   7.897  11.841 -1.4466 -0.6457  2.2562
 6048TIP3   OH242338   1.446   0.882  11.381 -0.3124 -0.5479  0.3159
 6048TIP3    H142339   1.398   0.888  11.298 -0.4107  0.1527  0.4198
 6048TIP3    H242340   1.403   0.811  11.429 -0.6965 -0.4946  0.0524
 6049TIP3   OH242341   1.305   8.145  10.904 -0.4011  0.3010  0.2057
 6049TIP3    H142342   1.226   8.178  10.946 -0.6023 -0.3546  0.3492
 6049TIP3    H242343   1.288   8.052  10.888  0.0872  0.2960 -0.3528
 6050TIP3   OH242344   3.332   6.797  11.695  0.5508  0.0708 -0.1006
 6050TIP3    H142345   3.406   6.858  11.697 -0.9830  2.0013  1.7954
 6050TIP3    H242346   3.354   6.732  11.762  0.0172  1.3682  1.3900
 6051TIP3   OH242347   7.535   3.838  11.604  0.2686  0.0264  0.4289
 6051TIP3    H142348   7.494   3.883  11.679 -0.1623  0.1628  0.1176
 6051TIP3    H242349   7.620   3.880  11.594 -1.0632  2.5581 -1.4022
 6052TIP3   OH242350   4.809   7.360  10.593 -0.2064  0.3098  0.9954
 6052TIP3    H142351   4.821   7.287  10.653  2.3682  0.3518  0.6541
 6052TIP3    H242352   4.870   7.427  10.624  0.2786  0.8157 -0.8932
 6053TIP3   OH242353   4.309   1.504  12.532  0.3601 -0.2101 -0.3108
 6053TIP3    H142354   4.365   1.477  12.460  2.4745  0.6332  0.9184
 6053TIP3    H242355   4.310   1.429  12.592 -1.7459 -1.0872 -1.2413
 6054TIP3   OH242356   2.595   6.160  11.730 -0.2079 -0.1882  0.0763
 6054TIP3    H142357   2.562   6.248  11.749  0.1679  0.1058 -0.5863
 6054TIP3    H242358   2.526   6.119  11.679 -0.8867 -0.7042  1.3774
 6055TIP3   OH242359   1.571   4.264  10.628  0.6524 -0.2747 -0.2180
 6055TIP3    H142360   1.575   4.324  10.702 -0.7957 -1.2248  0.6694
 6055TIP3    H242361   1.657   4.224  10.625  1.2375  0.9136 -0.0608
 6056TIP3   OH242362   3.423   1.024  11.243  0.3114 -0.5137  0.1389
 6056TIP3    H142363   3.467   0.949  11.285  1.6563  0.1413 -0.0548
 6056TIP3    H242364   3.426   1.093  11.309 -0.0106 -0.3186 -0.0522
 6057TIP3   OH242365   6.309   2.181  10.954 -0.2641  0.4823  0.0146
 6057TIP3    H142366   6.254   2.216  11.024  0.6936  0.7207  0.6759
 6057TIP3    H242367   6.370   2.123  11.000 -0.0347  0.1390 -0.7156
 6058TIP3   OH242368   0.935   4.926  11.252 -0.1577 -0.2272  0.2665
 6058TIP3    H142369   0.899   5.012  11.276  0.8306 -0.1139  1.4338
 6058TIP3    H242370   0.964   4.937  11.161 -0.0538  0.6692  0.4012
 6059TIP3   OH242371   0.278   1.417  12.393 -0.1755  0.1320 -0.1037
 6059TIP3    H142372   0.331   1.491  12.425 -1.2090  0.9698 -0.2759
 6059TIP3    H242373   0.337   1.342  12.398  0.6320  0.8003  0.9051
 6060TIP3   OH242374   1.020   2.314  10.798  0.7076 -0.0053  0.3206
 6060TIP3    H142375   1.001   2.220  10.805  2.2413 -0.3070  0.6584
 6060TIP3    H242376   0.940   2.357  10.830 -0.5269 -1.1510 -1.0495
 6061TIP3   OH242377   0.236   0.259  10.474 -0.2743  0.3137  0.0732
 6061TIP3    H142378   0.245   0.348  10.442 -0.8817  0.5170  0.4606
 6061TIP3    H242379   0.301   0.209  10.423  0.1241  0.9791 -0.0856
 6062TIP3   OH242380   5.884   1.350  11.697  0.3198  0.6747  0.2772
 6062TIP3    H142381   5.848   1.435  11.721  0.4986  0.9290 -0.3559
 6062TIP3    H242382   5.820   1.312  11.638  1.2907  1.3550 -1.2892
 6063TIP3   OH242383   5.403   6.316  11.091 -0.6269  0.1099  0.1370
 6063TIP3    H142384   5.414   6.312  10.996  0.3564  0.3628  0.2321
 6063TIP3    H242385   5.431   6.405  11.114 -0.3321 -0.1352  0.7302
 6064TIP3   OH242386   5.698   0.329  10.454  0.4975 -0.0438 -0.2959
 6064TIP3    H142387   5.656   0.338  10.369 -2.5464  2.2760  1.2675
 6064TIP3    H242388   5.752   0.407  10.463 -0.4592  0.5639  0.4605
 6065TIP3   OH242389   6.391   7.387  11.677 -0.0276 -0.0406  0.5233
 6065TIP3    H142390   6.318   7.329  11.654 -0.0817  0.4457 -0.5767
 6065TIP3    H242391   6.466   7.329  11.684 -0.3598 -0.4371  0.8557
 6066TIP3   OH242392   2.354   4.422  10.949  0.6301 -0.4285  0.1013
 6066TIP3    H142393   2.430   4.448  11.001  0.3511 -2.7753  1.8672
 6066TIP3    H242394   2.280   4.427  11.009 -0.3773  0.2986 -1.1399
 6067TIP3   OH242395   2.500   2.277  10.372  0.3223  0.4850 -0.1524
 6067TIP3    H142396   2.414   2.303  10.403 -2.0939 -3.6104 -2.4786
 6067TIP3    H242397   2.535   2.223  10.443  0.4033  1.0638  0.2564
 6068TIP3   OH242398   3.233   3.384  11.037  0.8414  0.0159  0.2170
 6068TIP3    H142399   3.242   3.356  10.946  1.7286 -0.3944  0.4189
 6068TIP3    H242400   3.302   3.449  11.048 -0.2049  1.1684  0.1947
 6069TIP3   OH242401   3.920   1.045  11.756 -0.0846  0.0717 -0.3977
 6069TIP3    H142402   3.860   1.096  11.810 -0.2992 -1.3362  0.7504
 6069TIP3    H242403   3.954   0.977  11.815  0.7710 -0.6507 -1.6670
 6070TIP3   OH242404   5.727   7.223  11.299  0.3556 -0.3795 -0.0331
 6070TIP3    H142405   5.703   7.185  11.215 -1.0355 -1.1588  0.6762
 6070TIP3    H242406   5.817   7.195  11.313  0.0166 -1.7731 -0.4573
 6071TIP3   OH242407   5.543   7.721  11.828 -0.2275 -0.2652  0.3726
 6071TIP3    H142408   5.605   7.735  11.900 -1.2064 -3.8678  2.2083
 6071TIP3    H242409   5.581   7.648  11.779 -2.1313 -1.4867  0.6069
 6072TIP3   OH242410   7.221   8.168  11.392  0.3624  0.3405  0.4195
 6072TIP3    H142411   7.199   8.116  11.470  2.1003 -0.1850  0.6022
 6072TIP3    H242412   7.209   8.107  11.319  1.5906 -0.0906  0.5598
 6073TIP3   OH242413   2.207   4.213  12.429  0.0997  0.2574  0.1331
 6073TIP3    H142414   2.289   4.201  12.381 -0.1891 -0.5045 -0.1934
 6073TIP3    H242415   2.218   4.296  12.476  0.5402  0.8408 -0.9518
 6074TIP3   OH242416   1.979   5.798  11.738 -0.0668 -0.1413 -0.7454
 6074TIP3    H142417   1.932   5.858  11.681 -1.2521 -0.3259 -0.0054
 6074TIP3    H242418   1.913   5.734  11.765  0.7301 -0.6983 -0.0674
 6075TIP3   OH242419   1.369   1.405  10.252  0.3591  0.1971  0.8315
 6075TIP3    H142420   1.306   1.337  10.272  0.1411  0.2766  0.4394
 6075TIP3    H242421   1.332   1.450  10.176  0.5197  0.7264  1.0611
 6076TIP3   OH242422   4.220   8.312  10.682 -0.7971 -0.0015  0.4113
 6076TIP3    H142423   4.135   8.354  10.694 -0.4498  0.7370  0.3243
 6076TIP3    H242424   4.242   8.328  10.590  0.1434  1.1869  0.8170
 6077TIP3   OH242425   5.787   0.039  10.901  0.4294 -0.5544 -0.0789
 6077TIP3    H142426   5.805   0.069  10.812  2.7210 -0.3775  0.3691
 6077TIP3    H242427   5.789  -0.057  10.895  0.3263 -0.5448 -0.2667
 6078TIP3   OH242428   4.257   3.164  11.954  0.2839  0.3951  0.0083
 6078TIP3    H142429   4.313   3.185  12.029 -0.5858  0.2285  0.7204
 6078TIP3    H242430   4.235   3.249  11.916 -0.2059  0.5640  0.6472
 6079TIP3   OH242431   5.557   3.090  11.118 -0.0063 -0.8487  0.5874
 6079TIP3    H142432   5.518   3.042  11.190 -2.6268 -1.2556 -0.9558
 6079TIP3    H242433   5.498   3.075  11.044  0.7492  2.1944 -0.8067
 6080TIP3   OH242434   6.056   7.685  10.976  0.0302 -0.4735 -0.0177
 6080TIP3    H142435   6.043   7.780  10.977  4.5841  0.4418 -2.0018
 6080TIP3    H242436   6.016   7.656  10.894 -0.8471 -0.1931  0.3048
 6081TIP3   OH242437   6.723   5.145  11.252  0.5996  0.0862  0.7851
 6081TIP3    H142438   6.774   5.183  11.181 -1.0151 -1.0330 -1.0862
 6081TIP3    H242439   6.785   5.092  11.302  1.0271 -3.2210 -2.8108
 6082TIP3   OH242440   6.251   8.043  11.132 -0.8907 -0.1682  0.2671
 6082TIP3    H142441   6.327   8.029  11.188  0.0445  2.1417 -0.3020
 6082TIP3    H242442   6.184   7.983  11.166  0.2096 -0.1391  2.6590
 6083TIP3   OH242443   7.599   7.949  11.800  0.0369 -0.3413 -0.0909
 6083TIP3    H142444   7.651   7.872  11.821  0.2715 -0.3541 -0.7155
 6083TIP3    H242445   7.528   7.948  11.864 -0.0666 -1.1703 -0.2061
 6084TIP3   OH242446   2.018   6.685  12.414  0.3395  0.0612 -0.0596
 6084TIP3    H142447   1.929   6.663  12.386  0.4605 -1.0952  0.4142
 6084TIP3    H242448   2.029   6.776  12.388 -1.3072  0.5052  0.6621
 6085TIP3   OH242449   3.429   5.668  10.310 -0.3565 -0.2346 -0.1848
 6085TIP3    H142450   3.358   5.705  10.362  0.4028 -3.2226  3.3401
 6085TIP3    H242451   3.503   5.726  10.325 -1.2242  1.3317 -1.6178
 6086TIP3   OH242452   3.560   4.490  11.159  0.0268 -0.3119  0.1911
 6086TIP3    H142453   3.547   4.553  11.231  1.8950 -0.0517  0.3366
 6086TIP3    H242454   3.564   4.405  11.202 -0.6625 -0.3547  0.1852
 6087TIP3   OH242455   3.878   8.211  11.881  0.1400  0.5712 -0.5924
 6087TIP3    H142456   3.966   8.177  11.869  0.8530  1.8597  0.6002
 6087TIP3    H242457   3.836   8.150  11.942  0.8041  0.8326  0.1530
 6088TIP3   OH242458   6.889   4.900  10.648  0.1155  0.3140  0.1862
 6088TIP3    H142459   6.844   4.900  10.732 -2.8654 -1.0020 -1.2813
 6088TIP3    H242460   6.824   4.871  10.585  3.0781 -1.9827 -2.1658
 6089TIP3   OH242461   4.072   0.771  11.304  0.1339 -0.3047 -0.1482
 6089TIP3    H142462   4.117   0.815  11.376 -0.3208 -1.7132  1.0445
 6089TIP3    H242463   3.992   0.823  11.291  0.2452 -0.0093  0.3268
 6090TIP3   OH242464   0.807   6.796  10.949  0.2064  0.6985 -0.0832
 6090TIP3    H142465   0.718   6.768  10.970 -0.2834  1.6509 -0.7956
 6090TIP3    H242466   0.832   6.853  11.022  0.3578  0.1892  0.2684
 6091TIP3   OH242467   4.268   7.061  10.930 -0.1044  1.1277 -0.3448
 6091TIP3    H142468   4.246   7.083  11.021 -2.0476  0.4476 -0.6152
 6091TIP3    H242469   4.222   7.127  10.878  2.6832  2.8482 -0.8698
 6092TIP3   OH242470   4.471   5.474  12.173  0.1122  0.3959  0.0403
 6092TIP3    H142471   4.544   5.447  12.117  0.3890 -0.6534  0.8776
 6092TIP3    H242472   4.510   5.536  12.235  0.5207 -0.7924  1.0223
 6093TIP3   OH242473   6.856   3.032  10.695  0.3186  0.0669  0.5382
 6093TIP3    H142474   6.935   2.987  10.664  0.3361  0.9049 -0.6800
 6093TIP3    H242475   6.821   3.076  10.618 -0.2943  1.2525  1.4528
 6094TIP3   OH242476   1.729   6.869  10.658  0.6874 -0.5502  0.3458
 6094TIP3    H142477   1.721   6.865  10.753 -0.0098 -0.5909  0.2887
 6094TIP3    H242478   1.652   6.823  10.625  0.2061  0.6481 -0.2496
 6095TIP3   OH242479   8.204   7.962  10.828 -0.7000  0.3028 -0.0535
 6095TIP3    H142480   8.299   7.959  10.815 -0.7067 -1.6270 -0.0162
 6095TIP3    H242481   8.190   8.035  10.888  0.9240 -0.2118  1.0135
 6096TIP3   OH242482   6.972   2.641  11.929  0.6731 -0.2275  0.0589
 6096TIP3    H142483   6.922   2.577  11.979  0.4434  0.1533  0.3237
 6096TIP3    H242484   7.063   2.627  11.955  0.9147 -1.8725 -1.4642
 6097TIP3   OH242485   2.838   1.917  11.671 -0.3449 -0.2442  0.7011
 6097TIP3    H142486   2.868   1.832  11.703 -2.4694 -0.7103  1.6633
 6097TIP3    H242487   2.906   1.979  11.698  1.5450 -1.6581 -0.5556
 6098TIP3   OH242488   5.198   5.149  11.751  0.6235 -0.0421 -0.4136
 6098TIP3    H142489   5.160   5.106  11.827 -0.0799  1.2056 -0.0407
 6098TIP3    H242490   5.145   5.118  11.677  0.3151 -0.0416 -0.1926
 6099TIP3   OH242491   2.507   6.407  11.784  0.6799  0.3160 -0.9446
 6099TIP3    H142492   2.523   6.464  11.860 -0.5346 -0.2621 -0.2206
 6099TIP3    H242493   2.414   6.417  11.765  0.5478 -1.0142 -1.1284
 6100TIP3   OH242494   3.878   3.026  11.783  0.2960 -0.1139 -0.3514
 6100TIP3    H142495   3.922   3.088  11.725  0.8494 -0.8511 -0.7411
 6100TIP3    H242496   3.790   3.062  11.795  0.6234  0.7691 -0.5122
 6101TIP3   OH242497   7.401   4.842  11.090  0.4074 -0.5537 -0.2581
 6101TIP3    H142498   7.371   4.900  11.021 -0.7465 -1.5575 -0.6397
 6101TIP3    H242499   7.320   4.806  11.128  1.0131 -3.7086 -1.6073
 6102TIP3   OH242500   7.340   6.101  12.454  0.0368  0.2241 -0.4175
 6102TIP3    H142501   7.427   6.082  12.489 -0.4839  0.3897  1.0272
 6102TIP3    H242502   7.293   6.018  12.460 -0.2018  0.3675 -0.2750
 6103TIP3   OH242503   5.459   3.666  12.644  0.6408  0.4039 -0.2574
 6103TIP3    H142504   5.481   3.750  12.604 -0.7967  1.0746  0.2813
 6103TIP3    H242505   5.543   3.623  12.658  1.4057  1.7788 -0.4763
 6104TIP3   OH242506   0.287   5.738  11.163 -0.1086 -0.1983 -0.3638
 6104TIP3    H142507   0.280   5.754  11.257 -0.0915 -0.1902 -0.3640
 6104TIP3    H242508   0.378   5.715  11.149 -0.7138 -3.2669  0.0855
 6105TIP3   OH242509   6.224   0.520  12.030  0.2135 -0.4572 -0.2891
 6105TIP3    H142510   6.251   0.460  11.961  1.0880  2.2353 -2.5006
 6105TIP3    H242511   6.162   0.470  12.083  0.8579 -3.2284 -1.9644
 6106TIP3   OH242512   7.935   6.264  12.189  0.1499 -0.1955 -0.4008
 6106TIP3    H142513   8.025   6.295  12.184  0.3451 -0.5042  0.8531
 6106TIP3    H242514   7.910   6.276  12.281 -0.0924 -2.7894 -0.0636
 6107TIP3   OH242515   4.231   6.356  11.030  0.5995 -0.0352 -0.4170
 6107TIP3    H142516   4.247   6.286  11.094 -0.9020  1.1146  1.3191
 6107TIP3    H242517   4.287   6.428  11.060  0.4522  0.2613 -0.8547
 6108TIP3   OH242518   6.380   2.519  12.094  0.0655 -0.0331 -0.4096
 6108TIP3    H142519   6.448   2.555  12.152 -0.2714  0.6902 -0.4540
 6108TIP3    H242520   6.385   2.573  12.015 -2.0222  1.5216  0.4213
 6109TIP3   OH242521   0.736   3.174  11.091 -0.2063 -0.4082 -0.0354
 6109TIP3    H142522   0.678   3.242  11.125  0.6297 -0.1365  0.8808
 6109TIP3    H242523   0.818   3.187  11.138  0.4052 -1.1739 -0.8740
 6110TIP3   OH242524   4.888   0.522  11.175 -0.6598 -0.4014 -0.2916
 6110TIP3    H142525   4.981   0.504  11.159 -0.1690  0.7284  1.0625
 6110TIP3    H242526   4.844   0.493  11.095  1.1131  1.1018 -1.9307
 6111TIP3   OH242527   2.256   3.104  10.901 -0.3530  0.5449  0.4419
 6111TIP3    H142528   2.293   3.046  10.834 -2.2842 -0.6042  0.2988
 6111TIP3    H242529   2.326   3.167  10.920  1.1787 -0.7348 -0.7096
 6112TIP3   OH242530   7.365   5.112  12.363 -0.2836 -0.2865  0.6270
 6112TIP3    H142531   7.385   5.162  12.443  2.5327  0.1349 -0.2009
 6112TIP3    H242532   7.293   5.160  12.323  0.2381  1.2716  1.4486
 6113TIP3   OH242533   1.451   0.943  12.457 -0.1296 -0.5074  0.8923
 6113TIP3    H142534   1.418   1.001  12.526  0.5033  0.9588  0.0090
 6113TIP3    H242535   1.501   1.001  12.399 -0.3509 -1.7581 -0.6102
 6114TIP3   OH242536   2.515   0.951  11.082 -0.2682 -0.3598 -0.6395
 6114TIP3    H142537   2.499   0.951  10.988 -2.0329  2.5994 -0.4705
 6114TIP3    H242538   2.428   0.960  11.121  0.5638  0.5220  1.1521
 6115TIP3   OH242539   5.226   0.807  12.065  0.1176  0.3140  0.2181
 6115TIP3    H142540   5.185   0.757  11.993 -1.8207  0.8053  0.9094
 6115TIP3    H242541   5.174   0.887  12.070  2.7130  2.1565 -0.3905
 6116TIP3   OH242542   3.898   3.371  11.766 -0.1347  0.0617 -0.6239
 6116TIP3    H142543   3.931   3.314  11.696 -1.2034 -0.8264 -0.4296
 6116TIP3    H242544   3.847   3.437  11.721  0.7928  0.6630 -0.8212
 6117TIP3   OH242545   2.283   2.286  12.083  0.8679  1.1109 -0.5365
 6117TIP3    H142546   2.209   2.314  12.029 -1.2964 -1.3970  0.9503
 6117TIP3    H242547   2.309   2.202  12.046  0.1088 -0.0913  1.5188
 6118TIP3   OH242548   2.138   5.430  11.990  0.0970 -0.1464 -0.0140
 6118TIP3    H142549   2.060   5.392  12.030 -0.1473 -0.9510 -1.2126
 6118TIP3    H242550   2.112   5.450  11.900  1.4097 -0.9152 -0.5889
 6119TIP3   OH242551   6.902   4.385  11.111 -0.3952  0.0790 -0.1125
 6119TIP3    H142552   6.995   4.363  11.104  0.1107  2.4801 -3.0920
 6119TIP3    H242553   6.873   4.397  11.021 -3.0402  1.4692  0.8004
 6120TIP3   OH242554   0.219   4.532  12.488 -0.1568 -0.5181  0.5610
 6120TIP3    H142555   0.309   4.547  12.462 -0.2268 -0.7907  0.1496
 6120TIP3    H242556   0.185   4.619  12.511  0.2845 -0.4520  0.9804
 6121TIP3   OH242557   3.967   1.963  12.385 -0.7032  0.0899  0.0991
 6121TIP3    H142558   4.035   1.896  12.396 -0.3005  0.5171  0.2895
 6121TIP3    H242559   3.894   1.932  12.439 -0.9703 -0.7707 -0.7380
 6122TIP3   OH242560   4.762   0.421  10.928 -0.3073 -0.5339 -0.3045
 6122TIP3    H142561   4.701   0.420  10.854 -0.7271  1.1808 -0.0342
 6122TIP3    H242562   4.847   0.441  10.889 -0.4897  0.1525 -0.3692
 6123TIP3   OH242563   3.610   6.562  11.214  0.6818 -0.3653  0.2184
 6123TIP3    H142564   3.585   6.613  11.137 -0.5209 -0.1094  0.7518
 6123TIP3    H242565   3.552   6.594  11.283  1.3643 -0.9777  1.0895
 6124TIP3   OH242566   2.889   4.752  11.164  0.2326 -0.8439  0.4427
 6124TIP3    H142567   2.925   4.667  11.137  0.9564 -0.7387  1.0448
 6124TIP3    H242568   2.954   4.787  11.226  0.1114  0.3010 -0.0512
 6125TIP3   OH242569   7.557   7.771  11.611  0.1746 -0.1394  0.4320
 6125TIP3    H142570   7.602   7.688  11.627 -0.0568 -0.2250  0.6376
 6125TIP3    H242571   7.622   7.838  11.632  0.5137 -0.2694 -0.1678
 6126TIP3   OH242572   5.662   3.363  11.792  0.0147 -0.4261 -0.7148
 6126TIP3    H142573   5.581   3.411  11.808 -0.4704 -0.7727 -2.0377
 6126TIP3    H242574   5.633   3.277  11.762  0.8570 -0.3153 -1.9199
 6127TIP3   OH242575   4.951   4.664  10.538  0.1077  0.4819 -0.1062
 6127TIP3    H142576   4.993   4.748  10.519  1.3964 -0.1192 -0.0517
 6127TIP3    H242577   4.860   4.686  10.557  1.0949  2.3128  3.2499
 6128TIP3   OH242578   1.793   3.012  11.019  0.2827 -0.1705 -0.4765
 6128TIP3    H142579   1.858   3.080  11.034  0.4417 -0.6756  1.4327
 6128TIP3    H242580   1.809   2.982  10.930  1.6748  0.7509 -0.5638
 6129TIP3   OH242581   6.359   8.362  11.848 -0.0452 -0.5013 -0.0079
 6129TIP3    H142582   6.316   8.411  11.779 -0.5710  0.3556  0.8964
 6129TIP3    H242583   6.334   8.271  11.832 -0.7686 -0.2231 -0.5034
 6130TIP3   OH242584   3.934   7.173  11.296 -0.0123  0.0999  0.2487
 6130TIP3    H142585   3.891   7.259  11.298  0.5805  0.4252 -0.5024
 6130TIP3    H242586   3.873   7.115  11.342 -0.8911  0.7162 -0.0993
 6131TIP3   OH242587   8.033   0.396  11.351 -0.0345  0.0210 -0.2157
 6131TIP3    H142588   7.984   0.476  11.331  0.4528  0.2588 -0.4694
 6131TIP3    H242589   7.966   0.330  11.368 -0.4588  0.0662 -1.6225
 6132TIP3   OH242590   4.149   5.509  10.658 -0.0485  0.7464 -0.4989
 6132TIP3    H142591   4.184   5.584  10.707  1.6463 -0.9198  1.0278
 6132TIP3    H242592   4.058   5.502  10.688  0.9440 -0.2893  2.7304
 6133TIP3   OH242593   5.611   2.908  10.685  0.3677  0.4561 -0.2782
 6133TIP3    H142594   5.621   2.880  10.776  1.4357  0.5239 -0.3660
 6133TIP3    H242595   5.597   3.002  10.690  0.5523  0.4786 -0.1924
 6134TIP3   OH242596   1.936   2.399  10.449  0.4870 -0.2290  0.0737
 6134TIP3    H142597   2.009   2.340  10.465  0.2003 -0.4732  0.4912
 6134TIP3    H242598   1.944   2.422  10.356 -0.6020 -2.5804 -0.6711
 6135TIP3   OH242599   6.852   1.211  12.479 -0.2702  0.9234 -0.0999
 6135TIP3    H142600   6.858   1.216  12.575  0.5759 -1.1147  0.0096
 6135TIP3    H242601   6.843   1.302  12.451 -0.1777  1.6035  1.8899
 6136TIP3   OH242602   1.904   3.883  11.018  0.7353 -0.1116  0.2164
 6136TIP3    H142603   1.916   3.969  11.058  3.7874 -0.1733 -0.2876
 6136TIP3    H242604   1.809   3.870  11.016  0.2163  2.7457  1.2912
 6137TIP3   OH242605   4.632   0.429  10.631 -0.0142  0.4980  0.1307
 6137TIP3    H142606   4.542   0.445  10.661 -0.7008 -0.6431 -1.1948
 6137TIP3    H242607   4.662   0.515  10.600 -0.3580  1.0451  1.2527
 6138TIP3   OH242608   0.019   4.107  11.907  0.7014 -0.5062 -0.0379
 6138TIP3    H142609   0.057   4.194  11.916  0.0289 -0.3077  1.0128
 6138TIP3    H242610  -0.019   4.107  11.819 -0.0522  0.5786  0.2748
 6139TIP3   OH242611   7.544   2.996  11.645  0.2695  0.0428 -0.2433
 6139TIP3    H142612   7.628   2.971  11.683 -0.7540  0.1618  2.2640
 6139TIP3    H242613   7.545   3.092  11.646 -0.0843  0.0478  0.3138
 6140TIP3   OH242614   5.624   4.136  12.399 -0.0528  0.2439 -0.0801
 6140TIP3    H142615   5.539   4.158  12.436 -0.3364  0.5406 -0.8876
 6140TIP3    H242616   5.679   4.211  12.421  0.3802 -0.4952  1.5523
 6141TIP3   OH242617   3.489   2.861  11.991  0.7293  0.4484  0.4460
 6141TIP3    H142618   3.405   2.903  12.010  1.0726  0.9841  0.8156
 6141TIP3    H242619   3.522   2.833  12.077  1.1240  0.6181  0.3520
 6142TIP3   OH242620   6.157   4.589  12.037 -0.1369 -0.1821  0.0887
 6142TIP3    H142621   6.128   4.678  12.061 -0.6208 -0.3326  0.0770
 6142TIP3    H242622   6.083   4.533  12.060 -1.2703 -0.1845 -3.1001
 6143TIP3   OH242623   8.134   7.516  11.562 -0.0472  0.3685  0.0731
 6143TIP3    H142624   8.071   7.544  11.495 -0.2621  0.7920  0.4411
 6143TIP3    H242625   8.119   7.422  11.571 -0.0417  0.3148 -0.4466
 6144TIP3   OH242626   6.400   7.188  10.654  0.2807 -0.1276 -0.3160
 6144TIP3    H142627   6.488   7.224  10.666  0.2536 -0.0419 -0.3718
 6144TIP3    H242628   6.412   7.093  10.657  0.2402 -0.1101  0.6526
 6145TIP3   OH242629   6.090   4.931  10.592 -0.7141  0.1867  0.2761
 6145TIP3    H142630   6.014   4.875  10.612 -1.0246  0.6764  0.4812
 6145TIP3    H242631   6.060   5.020  10.612 -0.4964  0.5216 -0.7954
 6146TIP3   OH242632   1.061   2.430  11.630 -0.1068 -0.5133 -0.3772
 6146TIP3    H142633   1.111   2.440  11.711 -0.6640 -2.1519  0.2140
 6146TIP3    H242634   0.983   2.380  11.656  0.1735 -1.9275 -2.0812
 6147TIP3   OH242635   3.046   7.937  11.112  0.1132 -0.3462 -0.7099
 6147TIP3    H142636   2.993   7.939  11.032 -1.7632 -0.6751  0.4732
 6147TIP3    H242637   3.030   7.850  11.149  1.2505 -0.3324 -0.1304
 6148TIP3   OH242638   4.765   5.010  12.061  0.1694 -0.0630 -0.2612
 6148TIP3    H142639   4.699   4.968  12.006  0.4195 -1.7477  0.6381
 6148TIP3    H242640   4.768   4.955  12.140  1.6782  0.7664  0.2966
 6149TIP3   OH242641   2.523   3.121  12.322  0.0257  0.2295 -0.1275
 6149TIP3    H142642   2.487   3.075  12.398 -0.8586 -2.3607 -1.9874
 6149TIP3    H242643   2.455   3.185  12.300 -1.1520 -1.1219 -0.5428
 6150TIP3   OH242644   3.034   4.643  11.870  0.7859  0.4934 -0.3068
 6150TIP3    H142645   3.079   4.699  11.934 -1.0954  0.6570  0.9296
 6150TIP3    H242646   3.001   4.704  11.804 -1.6707  0.9798  1.2870
 6151TIP3   OH242647   2.328   1.451  12.566  0.2882 -0.8429 -0.8562
 6151TIP3    H142648   2.406   1.450  12.621  0.7911 -0.6146 -1.5392
 6151TIP3    H242649   2.297   1.542  12.570 -1.8531 -1.5485  1.9598
 6152TIP3   OH242650   8.080   0.699  10.493  0.1792  0.0454  0.0001
 6152TIP3    H142651   7.988   0.713  10.469  0.6275  2.0276 -0.8090
 6152TIP3    H242652   8.098   0.608  10.470 -1.2448 -0.0147 -1.0050
 6153TIP3   OH242653   4.883   4.014  10.860 -0.2302  0.8581 -0.1830
 6153TIP3    H142654   4.945   3.948  10.891  1.1516  2.1855 -0.0604
 6153TIP3    H242655   4.887   4.007  10.765  0.7007  1.4366 -0.2016
 6154TIP3   OH242656   7.845   1.455  11.252 -0.8804 -0.3784  0.1603
 6154TIP3    H142657   7.877   1.541  11.224 -0.9714 -1.0586 -2.2406
 6154TIP3    H242658   7.913   1.394  11.225 -2.9951 -1.5998 -2.9685
 6155TIP3   OH242659   2.225   2.285  11.517  0.1340  0.4228  0.0965
 6155TIP3    H142660   2.287   2.294  11.590  0.5877  1.1524 -0.3575
 6155TIP3    H242661   2.183   2.371  11.511  1.9986  1.2854 -2.1429
 6156TIP3   OH242662   3.584   5.271  11.992  0.0006 -0.8717 -0.6684
 6156TIP3    H142663   3.581   5.203  11.925  1.0863  0.2521 -1.9193
 6156TIP3    H242664   3.504   5.322  11.980 -0.8957 -1.9771  0.3790
 6157TIP3   OH242665   0.566   4.269  11.721  0.0919 -0.1847 -0.3569
 6157TIP3    H142666   0.511   4.233  11.652 -0.4568 -0.4663  0.2124
 6157TIP3    H242667   0.506   4.285  11.794  0.4754  1.1305 -0.3150
 6158TIP3   OH242668   3.899   3.991  12.737  0.5357  0.0749  0.5854
 6158TIP3    H142669   3.870   3.936  12.664 -2.7218 -2.5467  3.5015
 6158TIP3    H242670   3.945   3.930  12.796  0.8937  1.5182  1.8614
 6159TIP3   OH242671   2.928   4.882  11.748 -0.1868 -0.3674 -0.7195
 6159TIP3    H142672   2.834   4.902  11.749 -0.1045  0.1460  1.1004
 6159TIP3    H242673   2.969   4.963  11.779  0.7203 -1.1280  0.1044
 6160TIP3   OH242674   3.693   5.252  12.910 -0.1479 -0.1916 -0.1358
 6160TIP3    H142675   3.687   5.168  12.956  0.9406 -0.5144 -0.5491
 6160TIP3    H242676   3.635   5.243  12.834  0.8176 -1.0038 -0.8015
 6161TIP3   OH242677   2.468   4.274  11.770 -0.1507 -0.1694 -0.7131
 6161TIP3    H142678   2.552   4.315  11.748 -0.5762  0.3281 -1.4848
 6161TIP3    H242679   2.424   4.265  11.685  0.0628 -2.5813 -0.6265
 6162TIP3   OH242680   8.290   4.742  11.187  0.4604 -0.2275  0.0224
 6162TIP3    H142681   8.226   4.674  11.211 -0.5856  0.7506  0.0615
 6162TIP3    H242682   8.371   4.693  11.173 -1.1172 -2.1565 -4.1146
 6163TIP3   OH242683   7.535   6.877  12.674 -0.0799  0.0388  0.3232
 6163TIP3    H142684   7.494   6.954  12.714  2.1278 -0.1260  3.2322
 6163TIP3    H242685   7.465   6.836  12.623 -1.8780  2.8134  0.3429
 6164TIP3   OH242686   0.666   7.973  11.373  0.8373  0.3898 -0.0107
 6164TIP3    H142687   0.575   7.948  11.386  0.5069  0.3011 -2.2026
 6164TIP3    H242688   0.714   7.926  11.442 -0.6038 -0.6890  0.2967
 6165TIP3   OH242689   0.295   2.517  11.195 -0.0688  0.2071  0.2515
 6165TIP3    H142690   0.287   2.431  11.154  1.5519  0.3900 -0.5459
 6165TIP3    H242691   0.238   2.574  11.143 -0.4911 -0.2048  0.2567
 6166TIP3   OH242692   2.979   5.975  11.917  0.4282 -0.3964 -0.1243
 6166TIP3    H142693   2.912   6.005  11.856 -0.7471 -1.3984  0.6445
 6166TIP3    H242694   3.053   5.951  11.861  0.2081  0.8213 -0.9750
 6167TIP3   OH242695   5.086   1.145  11.853 -0.3807 -1.3513  0.2245
 6167TIP3    H142696   5.082   1.173  11.944  0.5333  0.3354 -0.2022
 6167TIP3    H242697   4.995   1.135  11.826 -0.7139 -0.2031  0.8601
 6168TIP3   OH242698   4.721   6.848  12.590 -0.3863  0.2830  0.2834
 6168TIP3    H142699   4.739   6.925  12.536  1.0378  1.1171  1.8502
 6168TIP3    H242700   4.806   6.805  12.599 -0.4238  0.5576  2.3842
 6169TIP3   OH242701   7.677   2.611  16.518 -0.1146 -0.0587 -0.6536
 6169TIP3    H142702   7.674   2.517  16.503  0.1437 -0.1428 -0.2080
 6169TIP3    H242703   7.745   2.622  16.585 -0.2711  0.4249 -0.5723
 6170TIP3   OH242704   2.297   4.141  11.013  0.3329  0.0162  0.2717
 6170TIP3    H142705   2.286   4.198  11.090 -2.0038 -0.4943  0.3793
 6170TIP3    H242706   2.221   4.159  10.959  0.5196 -1.6419 -0.5994
 6171TIP3   OH242707   4.030   4.465  12.819 -0.1932  0.3157 -0.0103
 6171TIP3    H142708   3.943   4.501  12.835 -0.1283  1.4513 -1.9212
 6171TIP3    H242709   4.087   4.542  12.812  0.7898 -0.3696  0.2280
 6172TIP3   OH242710   3.420   4.657  10.952  0.0265 -0.0157  0.4763
 6172TIP3    H142711   3.447   4.645  11.043  0.2559 -0.8257  0.3119
 6172TIP3    H242712   3.478   4.724  10.917  1.2319 -1.0773  0.3849
 6173TIP3   OH242713   3.323   6.183  11.067 -0.2984 -0.1318  0.1429
 6173TIP3    H142714   3.265   6.249  11.029  2.1378  0.7986 -2.2622
 6173TIP3    H242715   3.312   6.193  11.162 -1.1944  2.6254 -0.1695
 6174TIP3   OH242716   1.421   6.445  11.884 -0.4062 -0.0015  0.3815
 6174TIP3    H142717   1.461   6.359  11.867  0.8539  0.6467  0.0024
 6174TIP3    H242718   1.440   6.462  11.976  0.5723  0.4829  0.1024
 6175TIP3   OH242719   3.939   7.919  10.548  0.2752 -0.0078 -0.5751
 6175TIP3    H142720   3.851   7.929  10.586  0.4015 -1.3429  0.1518
 6175TIP3    H242721   3.972   8.008  10.539 -1.0731  0.5071 -0.6518
 6176TIP3   OH242722   2.474   4.323  11.350 -0.1499  0.5539 -0.2249
 6176TIP3    H142723   2.547   4.293  11.405  0.0449 -1.7233 -1.6139
 6176TIP3    H242724   2.514   4.348  11.267 -0.8822 -0.5598 -0.9472
 6177TIP3   OH242725   5.252   4.009  11.785  0.0610 -0.2075 -0.1787
 6177TIP3    H142726   5.231   3.916  11.772  0.4312 -0.4454  0.8048
 6177TIP3    H242727   5.347   4.010  11.799 -0.2112  0.0090  2.0372
 6178TIP3   OH242728   3.750   6.914  12.191 -0.0124  0.2220 -0.2401
 6178TIP3    H142729   3.797   6.981  12.240 -0.4004  2.2379 -2.4444
 6178TIP3    H242730   3.693   6.873  12.255 -1.4163  3.5601  0.8442
 6179TIP3   OH242731   3.939   6.750  12.446 -0.7342  0.1433  0.5344
 6179TIP3    H142732   3.990   6.777  12.370 -0.6244  0.5272  0.7440
 6179TIP3    H242733   3.848   6.769  12.423 -0.7762 -0.4740  0.1892
 6180TIP3   OH242734   7.191   6.898  11.778 -0.2474  0.3742 -0.5931
 6180TIP3    H142735   7.169   6.939  11.862 -0.1943  1.8673 -1.2779
 6180TIP3    H242736   7.275   6.854  11.794 -0.1155  0.8492  0.0738
 6181TIP3   OH242737   5.541   6.694  10.866 -0.0562  0.3123  0.2412
 6181TIP3    H142738   5.486   6.616  10.855 -0.5902  0.8578 -1.1036
 6181TIP3    H242739   5.486   6.766  10.835  1.5765  0.8255 -1.6164
 6182TIP3   OH242740   1.213   3.622  10.455 -0.5616 -0.0759  0.5480
 6182TIP3    H142741   1.170   3.708  10.452  0.5894  0.4973 -0.0322
 6182TIP3    H242742   1.189   3.580  10.373  1.1814  0.8635 -0.4895
 6183TIP3   OH242743   1.326   2.900  12.142 -0.3871  0.0184 -0.3520
 6183TIP3    H142744   1.262   2.919  12.073 -0.4810 -0.5930 -0.4398
 6183TIP3    H242745   1.396   2.962  12.127 -1.0832  0.8840 -0.0914
 6184TIP3   OH242746   3.237   1.103  10.844  0.0833  0.2601 -0.2437
 6184TIP3    H142747   3.143   1.118  10.852 -0.1186 -0.1416 -1.6675
 6184TIP3    H242748   3.261   1.054  10.923 -1.2758 -1.3743 -0.7931
 6185TIP3   OH242749   4.558   5.856  11.366 -0.1953 -0.0017 -0.0730
 6185TIP3    H142750   4.500   5.790  11.403  0.7293 -0.6745  0.1960
 6185TIP3    H242751   4.582   5.912  11.440 -0.2447  0.0908 -0.1255
 6186TIP3   OH242752   1.710   0.801  11.316 -0.4379 -0.8605 -0.1916
 6186TIP3    H142753   1.627   0.833  11.353  0.3700  0.9190  0.1938
 6186TIP3    H242754   1.765   0.879  11.311  1.2117 -2.0015 -0.4889
 6187TIP3   OH242755   2.107   3.839  11.486  0.0474  0.5324  0.1113
 6187TIP3    H142756   2.107   3.752  11.446 -0.3052  0.2602  0.6886
 6187TIP3    H242757   2.159   3.893  11.427  0.8334 -0.2275  0.0973
 6188TIP3   OH242758   3.897   1.930  10.774 -0.1678  0.1355  0.1027
 6188TIP3    H142759   3.842   2.000  10.739 -1.9182 -1.2473 -0.0735
 6188TIP3    H242760   3.887   1.858  10.710  0.2354 -0.8423  1.1122
 6189TIP3   OH242761   2.480   0.225  10.378  0.2203  0.1736 -0.5003
 6189TIP3    H142762   2.491   0.227  10.474 -0.8081 -0.5663 -0.3519
 6189TIP3    H242763   2.569   0.220  10.344  0.5712 -0.3331  0.4526
 6190TIP3   OH242764   6.091   6.892  12.314 -0.3025 -0.0728  0.3385
 6190TIP3    H142765   6.046   6.975  12.298 -0.6828  0.0182  1.7562
 6190TIP3    H242766   6.097   6.851  12.227 -1.1029  0.9248 -0.2134
 6191TIP3   OH242767   2.588   2.895  11.286  0.6385 -0.4378 -0.0535
 6191TIP3    H142768   2.640   2.970  11.315  1.4713 -1.4000  1.0313
 6191TIP3    H242769   2.578   2.907  11.192 -1.7443  2.5606  0.4118
 6192TIP3   OH242770   4.023   0.267  10.660  0.1651 -0.0612 -0.4155
 6192TIP3    H142771   4.100   0.246  10.713 -0.8208 -2.0230  0.3302
 6192TIP3    H242772   4.032   0.211  10.582  0.1586  0.6975 -0.9682
 6193TIP3   OH242773   7.920   5.247  10.742 -0.2274  0.1496  0.3443
 6193TIP3    H142774   7.860   5.321  10.739 -0.0565  0.3653  1.6273
 6193TIP3    H242775   7.867   5.174  10.771 -0.3502 -0.1923 -0.7204
 6194TIP3   OH242776   2.583   6.659  12.294  0.2774  0.1352 -0.6836
 6194TIP3    H142777   2.608   6.577  12.336  0.4000  0.8615  0.7024
 6194TIP3    H242778   2.516   6.696  12.352  0.9051  1.4642 -0.7803
 6195TIP3   OH242779   5.689   1.912  11.315  0.5787  0.2930 -0.2276
 6195TIP3    H142780   5.654   1.989  11.358 -0.6540  0.0289 -0.7174
 6195TIP3    H242781   5.695   1.937  11.222  1.0411  0.0941 -0.2570
 6196TIP3   OH242782   1.859   8.135  11.256 -0.2624  0.1847 -0.3791
 6196TIP3    H142783   1.794   8.075  11.219 -0.9798  0.4766  0.3608
 6196TIP3    H242784   1.925   8.079  11.295  0.3705 -0.1238 -1.8516
 6197TIP3   OH242785   4.657   4.792  12.198  0.3212 -0.0903 -0.5628
 6197TIP3    H142786   4.570   4.761  12.172  0.5003  0.6409 -2.1537
 6197TIP3    H242787   4.640   4.866  12.256 -0.0889 -0.6151  0.0146
 6198TIP3   OH242788   3.751   7.443  10.462 -0.6064  0.2432 -0.3232
 6198TIP3    H142789   3.700   7.481  10.534  1.0073  1.6880  0.1103
 6198TIP3    H242790   3.720   7.491  10.384  0.3224  1.4090 -0.0032
 6199TIP3   OH242791   7.315   0.621  10.582  0.7428  0.1307 -0.4040
 6199TIP3    H142792   7.360   0.536  10.577  1.9004  0.6892  0.2148
 6199TIP3    H242793   7.229   0.600  10.619  1.2419 -0.6875  0.3313
 6200TIP3   OH242794   1.289   1.116  12.120  0.0266  0.2518 -0.0027
 6200TIP3    H142795   1.377   1.086  12.141  0.4179  1.2703 -0.1056
 6200TIP3    H242796   1.300   1.210  12.102 -0.4694 -0.2533 -3.5341
 6201TIP3   OH242797   6.338   5.851  12.046  0.2062 -0.5518  0.4493
 6201TIP3    H142798   6.402   5.918  12.068 -0.2131 -0.4248  1.3259
 6201TIP3    H242799   6.264   5.898  12.008  0.6079 -0.6974 -0.5522
 6202TIP3   OH242800   7.022   2.627  11.294  0.6015 -0.4656 -0.5691
 6202TIP3    H142801   6.955   2.692  11.315  0.9667 -0.3939  0.4334
 6202TIP3    H242802   7.026   2.570  11.371 -0.4800 -2.3712 -1.8325
 6203TIP3   OH242803   8.234   0.746  12.218  0.2306 -0.4124  0.0655
 6203TIP3    H142804   8.299   0.780  12.280  0.6297 -2.0234  0.5598
 6203TIP3    H242805   8.248   0.799  12.139  2.2468 -0.7893  0.1201
 6204TIP3   OH242806   5.624   5.279  10.786 -0.0354 -0.7485  0.5769
 6204TIP3    H142807   5.556   5.310  10.847  0.7411  0.5660  0.8282
 6204TIP3    H242808   5.645   5.191  10.816  0.1105 -0.2514  2.0637
 6205TIP3   OH242809   5.943   1.701  12.491 -0.4178 -0.7104 -0.5324
 6205TIP3    H142810   5.876   1.743  12.546  0.0040  0.0770 -0.6046
 6205TIP3    H242811   5.957   1.616  12.532 -2.5660 -1.5608 -1.3836
 6206TIP3   OH242812   4.051   4.921  11.058  0.2515 -0.9983 -0.5221
 6206TIP3    H142813   4.016   4.888  10.975 -1.4422 -2.3495  0.6443
 6206TIP3    H242814   4.070   5.013  11.042 -1.8596 -0.7480 -1.8895
 6207TIP3   OH242815   1.093   3.454  11.397 -0.0489  0.6303  0.2409
 6207TIP3    H142816   1.070   3.547  11.391 -0.0573  0.6543  0.6376
 6207TIP3    H242817   1.148   3.437  11.320 -1.6254  0.5091 -0.9070
 6208TIP3   OH242818   5.716   3.293  11.187 -0.3855 -1.0975  0.0782
 6208TIP3    H142819   5.660   3.215  11.189 -1.1933 -0.5064  1.2259
 6208TIP3    H242820   5.694   3.341  11.266  0.5422  0.0104 -0.3055
 6209TIP3   OH242821   0.272   0.242  10.746 -0.2406 -0.2536  0.2462
 6209TIP3    H142822   0.212   0.257  10.673 -0.2907  1.3025  0.5598
 6209TIP3    H242823   0.336   0.314  10.739  0.8382 -1.1387  0.6708
 6210TIP3   OH242824   7.135   1.509  12.177  0.0271  0.2356 -0.0036
 6210TIP3    H142825   7.106   1.561  12.252 -1.6532 -0.0507 -0.4187
 6210TIP3    H242826   7.141   1.420  12.211  0.1526  0.2481  0.0078
 6211TIP3   OH242827   6.701   6.910  12.170  0.5232  1.0314  1.0914
 6211TIP3    H142828   6.731   6.905  12.261  2.3312 -2.4532  0.4453
 6211TIP3    H242829   6.782   6.915  12.118 -0.3432  0.0779 -0.4205
 6212TIP3   OH242830   5.146   7.947  11.809  0.1415 -0.2033  0.2127
 6212TIP3    H142831   5.095   7.980  11.735  0.4608  1.1788  0.5908
 6212TIP3    H242832   5.232   7.988  11.800  1.0442 -2.0451 -0.0846
 6213TIP3   OH242833   7.890   7.921  10.961 -0.0538 -0.3477  0.3329
 6213TIP3    H142834   7.899   7.974  10.882  0.6396  0.4691  0.9510
 6213TIP3    H242835   7.796   7.916  10.976 -0.1578  0.0597 -0.1623
 6214TIP3   OH242836   4.978   4.671  11.810  0.3079 -0.3379  0.5698
 6214TIP3    H142837   4.969   4.696  11.902  1.3316 -3.2856  1.5877
 6214TIP3    H242838   4.889   4.671  11.776 -0.5600 -2.3465  2.5578
 6215TIP3   OH242839   7.691   1.199  12.950 -0.1585 -0.3687 -0.0160
 6215TIP3    H142840   7.671   1.217  12.858  0.3887  2.0602  0.2783
 6215TIP3    H242841   7.614   1.230  12.998  0.0150 -0.6139  0.4260
 6216TIP3   OH242842   2.810   7.317  10.474 -0.0467  0.5387 -0.2377
 6216TIP3    H142843   2.846   7.356  10.394 -1.2914  0.3394 -0.9254
 6216TIP3    H242844   2.876   7.255  10.502  1.0262  1.6099 -0.3227
 6217TIP3   OH242845   0.875   7.519  11.068 -0.0700  0.1813 -0.2947
 6217TIP3    H142846   0.867   7.612  11.089 -0.7659 -0.0058  0.3026
 6217TIP3    H242847   0.970   7.504  11.063  0.0573  0.8212  0.0480
 6218TIP3   OH242848   4.146   1.649  11.468  0.3271  0.6630 -0.1146
 6218TIP3    H142849   4.182   1.687  11.548 -0.0747 -0.3597  0.5690
 6218TIP3    H242850   4.211   1.669  11.401  1.7688 -0.3428  0.8999
 6219TIP3   OH242851   5.497   5.291  11.500  0.3396 -0.0461 -0.4386
 6219TIP3    H142852   5.507   5.321  11.590  0.7265  0.1375 -0.5420
 6219TIP3    H242853   5.493   5.196  11.506  1.0203 -0.0644 -0.2917
 6220TIP3   OH242854   3.538   6.023  10.703 -0.4320 -0.8227 -0.0704
 6220TIP3    H142855   3.496   5.996  10.784 -0.0789 -0.9115  0.0836
 6220TIP3    H242856   3.604   5.955  10.685 -0.0284 -0.4439 -0.0554
 6221TIP3   OH242857   2.606   2.753  11.624  0.0206 -0.2689 -0.1047
 6221TIP3    H142858   2.666   2.727  11.553 -0.7413  1.2267 -1.3563
 6221TIP3    H242859   2.664   2.785  11.693  0.7053  1.3749 -1.3890
 6222TIP3   OH242860   4.189   2.639  11.901 -1.0450  0.2624 -0.5674
 6222TIP3    H142861   4.185   2.725  11.860  0.7037  0.2837 -0.7665
 6222TIP3    H242862   4.247   2.651  11.976  2.3216 -1.4186 -2.6438
 6223TIP3   OH242863   0.703   0.739  11.751  0.1752 -0.0719  0.0189
 6223TIP3    H142864   0.733   0.822  11.712 -0.8512 -0.5856 -2.0483
 6223TIP3    H242865   0.784   0.696  11.780  0.6609  2.0736  2.2162
 6224TIP3   OH242866   1.691   3.343  10.625 -0.4696 -0.3838 -0.1226
 6224TIP3    H142867   1.745   3.405  10.675  0.7423 -2.4046  1.2260
 6224TIP3    H242868   1.619   3.321  10.683 -0.3104 -1.0231 -0.1586
 6225TIP3   OH242869   6.287   0.195  10.620 -0.1693  0.0602  0.0425
 6225TIP3    H142870   6.272   0.240  10.704 -1.1845  0.3744 -0.2953
 6225TIP3    H242871   6.264   0.104  10.638  1.4480 -0.2789  0.6024
 6226TIP3   OH242872   1.707   0.967  12.219  0.5480 -0.5344 -0.1270
 6226TIP3    H142873   1.651   0.988  12.144  1.4830  0.1381 -0.6642
 6226TIP3    H242874   1.680   1.028  12.287  0.0675 -0.7790 -0.0897
 6227TIP3   OH242875   6.341   2.362  11.814 -0.6619 -0.0499 -0.3141
 6227TIP3    H142876   6.370   2.276  11.785 -0.6574  0.2608 -1.2514
 6227TIP3    H242877   6.414   2.420  11.796 -1.1835  0.4050 -1.0090
 6228TIP3   OH242878   3.040   6.345  10.579 -0.1713  0.0472  0.2311
 6228TIP3    H142879   3.125   6.386  10.564  0.2127 -1.0390 -0.6616
 6228TIP3    H242880   2.983   6.417  10.607  0.9273  0.8565  0.4401
 6229TIP3   OH242881   0.145   2.954  11.104  0.1405 -0.2750 -0.1027
 6229TIP3    H142882   0.115   2.864  11.093 -0.3835  0.0520 -1.6184
 6229TIP3    H242883   0.241   2.948  11.103  0.1638 -0.6311 -2.5790
 6230TIP3   OH242884   2.165   3.452  10.780 -0.4711  0.0270 -0.3352
 6230TIP3    H142885   2.193   3.515  10.713 -3.0427  2.2696  0.5212
 6230TIP3    H242886   2.236   3.387  10.783  0.7073  0.9734 -3.6935
 6231TIP3   OH242887   5.615   6.347  11.688 -0.2382 -0.1504 -0.5704
 6231TIP3    H142888   5.561   6.347  11.767  0.7513 -1.6740  0.1616
 6231TIP3    H242889   5.581   6.419  11.635 -0.7860  1.0527  1.3334
 6232TIP3   OH242890   2.490   5.315  11.485  0.3773 -0.1777 -0.2374
 6232TIP3    H142891   2.477   5.222  11.464  0.2957 -0.4379  0.8869
 6232TIP3    H242892   2.570   5.317  11.537  0.0472  0.2882  0.2746
 6233TIP3   OH242893   1.427   0.354  12.206  0.1843  0.0912  0.1740
 6233TIP3    H142894   1.439   0.387  12.296 -0.3101 -2.3801  1.2150
 6233TIP3    H242895   1.510   0.312  12.185  0.1107  0.1976 -0.3357
 6234TIP3   OH242896   4.530   7.348  10.976 -0.7175 -0.0829 -0.0289
 6234TIP3    H142897   4.567   7.359  11.063 -1.0268 -0.7988  0.2036
 6234TIP3    H242898   4.518   7.253  10.967  0.7196 -0.1736 -1.4416
 6235TIP3   OH242899   6.152   8.192  11.412 -0.2277 -0.2483 -0.1494
 6235TIP3    H142900   6.179   8.271  11.366 -1.9627 -0.4280 -1.5831
 6235TIP3    H242901   6.222   8.129  11.393 -0.7803 -0.2575 -2.4651
 6236TIP3   OH242902   4.945   5.319  11.554  0.4019  0.2306 -0.3502
 6236TIP3    H142903   5.016   5.258  11.531  0.8502  0.7095 -0.2598
 6236TIP3    H242904   4.990   5.396  11.587 -0.1902  0.2306  0.4983
 6237TIP3   OH242905   4.958   1.424  11.253 -0.0728  0.2197 -0.3524
 6237TIP3    H142906   4.989   1.334  11.251 -0.2281  0.1634 -0.2406
 6237TIP3    H242907   5.026   1.472  11.301  0.2160  0.2454 -0.7746
 6238TIP3   OH242908   4.972   4.314  11.891 -0.3099 -0.1535  0.1578
 6238TIP3    H142909   5.037   4.334  11.958  1.0436  0.7919 -1.3540
 6238TIP3    H242910   4.887   4.331  11.933  0.5328  2.0880  1.1247
 6239TIP3   OH242911   6.486   6.362  11.762  0.0816 -0.3442  0.0593
 6239TIP3    H142912   6.528   6.398  11.684 -0.9625  0.6944 -0.0432
 6239TIP3    H242913   6.440   6.285  11.730  0.4524 -0.4780 -0.1630
 6240TIP3   OH242914   1.769   6.030  12.578  0.2628 -0.0548 -0.7835
 6240TIP3    H142915   1.729   6.033  12.491  1.4848  0.7778 -1.3433
 6240TIP3    H242916   1.863   6.038  12.562  0.5781 -0.8122  0.5660
 6241TIP3   OH242917   1.650   6.933  10.906  0.1756 -0.2784 -0.2936
 6241TIP3    H142918   1.616   7.021  10.891  2.7887  0.7726 -0.5148
 6241TIP3    H242919   1.669   6.930  11.000 -1.3998 -1.2219  0.0248
 6242TIP3   OH242920   7.264   2.927  10.872 -0.5794 -0.2456 -0.1961
 6242TIP3    H142921   7.336   2.873  10.905  0.8021  1.2466 -0.6179
 6242TIP3    H242922   7.217   2.956  10.950  0.5246  0.3878  0.2555
 6243TIP3   OH242923   0.628   5.078  11.522 -0.1557 -0.4118  0.0188
 6243TIP3    H142924   0.672   5.087  11.437 -1.8575  0.4841 -0.8149
 6243TIP3    H242925   0.649   4.989  11.551 -1.7079 -1.7642 -2.6504
 6244TIP3   OH242926   3.335   3.497  10.562  0.0259 -0.3109 -0.3473
 6244TIP3    H142927   3.326   3.592  10.570 -0.7063 -0.4149  0.1820
 6244TIP3    H242928   3.428   3.482  10.548  0.0701  0.5229 -1.0093
 6245TIP3   OH242929   2.883   1.081  11.354  0.5692  0.1590  0.3916
 6245TIP3    H142930   2.823   1.029  11.408  0.5379 -0.4684 -0.2317
 6245TIP3    H242931   2.968   1.038  11.365  0.2404 -1.1013 -1.4296
 6246TIP3   OH242932   7.589   6.952  10.534  0.0443 -0.0052  0.1494
 6246TIP3    H142933   7.538   6.893  10.479  0.5089  1.0019 -1.4426
 6246TIP3    H242934   7.677   6.914  10.537  0.0513  0.0031  0.0652
 6247TIP3   OH242935   6.044   4.766  11.265  0.5828  0.0570  0.2161
 6247TIP3    H142936   6.002   4.715  11.335 -0.5204  0.1806 -0.3295
 6247TIP3    H242937   6.006   4.854  11.274 -1.5296 -0.5193 -2.0492
 6248TIP3   OH242938   0.530   3.546  10.838 -0.1761 -0.0782 -0.3256
 6248TIP3    H142939   0.494   3.629  10.867 -0.5145 -0.6449  0.9543
 6248TIP3    H242940   0.462   3.481  10.859 -0.1419 -0.6272 -1.7799
 6249TIP3   OH242941   6.684   2.822  10.725  0.4963 -0.0922  0.2861
 6249TIP3    H142942   6.727   2.748  10.682  1.5915  0.5323  0.2870
 6249TIP3    H242943   6.745   2.894  10.716 -1.0893  1.2007 -0.8875
 6250TIP3   OH242944   2.393   0.638  12.013  0.1041 -0.2067  0.0608
 6250TIP3    H142945   2.397   0.644  11.918 -0.0299  0.2322  0.0787
 6250TIP3    H242946   2.300   0.631  12.033  0.1692 -0.9376  0.1293
 6251TIP3   OH242947   3.643   1.935  11.704  0.4299 -0.0375 -0.0000
 6251TIP3    H142948   3.676   1.907  11.789 -0.0028  1.4041  0.6767
 6251TIP3    H242949   3.556   1.896  11.697  0.4706 -0.1624  0.2190
 6252TIP3   OH242950   6.602   7.410  12.061 -0.3414 -0.1411 -0.2730
 6252TIP3    H142951   6.516   7.428  12.099  0.6485  1.2707  1.4935
 6252TIP3    H242952   6.593   7.324  12.020 -2.4179 -0.2922  0.3796
 6253TIP3   OH242953   4.389   3.790  10.816 -0.2856 -0.3392 -0.5326
 6253TIP3    H142954   4.420   3.876  10.787  0.4520 -0.4557 -0.1045
 6253TIP3    H242955   4.415   3.785  10.908 -0.7131 -0.8450 -0.4356
 6254TIP3   OH242956   1.524   6.882  12.392 -0.3175 -0.1058  0.0852
 6254TIP3    H142957   1.532   6.787  12.399  0.7264  0.0119  0.6383
 6254TIP3    H242958   1.598   6.917  12.441 -1.4275  1.0358  1.0420
 6255TIP3   OH242959   1.029   4.020  11.747 -0.4293  0.5199 -0.5806
 6255TIP3    H142960   1.073   3.989  11.668  0.1002  1.3004 -0.6036
 6255TIP3    H242961   0.938   4.034  11.720 -0.8439 -1.4784 -0.4363
 6256TIP3   OH242962   5.252   0.186  10.809 -0.1384 -0.2847 -0.0284
 6256TIP3    H142963   5.337   0.219  10.837 -1.4236  5.2126 -1.4186
 6256TIP3    H242964   5.270   0.139  10.728  1.6045  0.3810 -0.0682
 6257TIP3   OH242965   6.227   0.279  11.880 -0.4531 -0.2372  0.9794
 6257TIP3    H142966   6.143   0.256  11.918 -1.3105  1.3342  0.1741
 6257TIP3    H242967   6.210   0.282  11.785  0.3463  0.6422  0.8486
 6258TIP3   OH242968   3.345   4.669  10.680 -0.3333  0.5948 -0.0435
 6258TIP3    H142969   3.432   4.699  10.651  0.2225 -0.2507  0.6931
 6258TIP3    H242970   3.351   4.667  10.775 -0.7157 -0.7474 -0.0245
 6259TIP3   OH242971   0.078   2.659  11.059 -0.4855  0.7189 -0.3061
 6259TIP3    H142972   0.066   2.572  11.020  0.5162  0.1663  0.5741
 6259TIP3    H242973  -0.011   2.692  11.072 -1.0822 -1.6704  2.5917
 6260TIP3   OH242974   0.429   3.195  11.606 -1.3294 -0.2731  0.5586
 6260TIP3    H142975   0.512   3.214  11.650 -0.8517 -0.5864 -0.1710
 6260TIP3    H242976   0.392   3.281  11.587  1.1364  0.1939 -3.3308
 6261TIP3   OH242977   5.722   2.713  11.316  0.4540 -0.7795 -0.0544
 6261TIP3    H142978   5.766   2.781  11.267 -0.9123 -0.2580 -0.6164
 6261TIP3    H242979   5.718   2.746  11.406 -0.0397 -0.1763 -0.2887
 6262TIP3   OH242980   3.866   4.934  11.842  0.6725 -0.8288 -0.4160
 6262TIP3    H142981   3.887   5.013  11.794 -1.9959 -1.6000 -3.1227
 6262TIP3    H242982   3.911   4.864  11.795  0.3278 -1.2843 -0.0847
 6263TIP3   OH242983   0.239   1.933  11.363  0.2380 -0.2526 -0.0705
 6263TIP3    H142984   0.320   1.898  11.400  0.6322 -0.0538 -0.7251
 6263TIP3    H242985   0.178   1.859  11.362 -0.0232 -0.0854  1.6351
 6264TIP3   OH242986   7.259   6.536  11.404 -0.1171 -0.2068  0.3144
 6264TIP3    H142987   7.212   6.594  11.463  0.9667  0.8658  0.1592
 6264TIP3    H242988   7.350   6.566  11.408  0.1982 -0.9313 -0.9348
 6265TIP3   OH242989   7.751   2.127  10.682 -0.5472 -0.0163 -0.0035
 6265TIP3    H142990   7.726   2.132  10.590 -0.5208  1.0092  0.0305
 6265TIP3    H242991   7.834   2.174  10.687 -0.7507  0.2985  0.5979
 6266TIP3   OH242992   4.553   4.436  11.119 -0.6453 -0.4010  0.2977
 6266TIP3    H142993   4.646   4.430  11.141 -0.0140 -2.2067 -2.3074
 6266TIP3    H242994   4.546   4.516  11.066 -0.0297 -1.4265 -1.4183
 6267TIP3   OH242995   3.936   4.223  12.611 -0.4959  0.1801  0.9363
 6267TIP3    H142996   3.895   4.149  12.656 -0.1517 -1.7170 -1.6638
 6267TIP3    H242997   3.865   4.263  12.562 -0.4358  0.8768  1.4036
 6268TIP3   OH242998   3.312   4.984  12.029  0.2604 -0.1072 -0.0764
 6268TIP3    H142999   3.232   4.988  12.081  1.1504  2.1894  1.2488
 6268TIP3    H243000   3.291   5.037  11.951 -0.1240 -1.1465 -0.6955
 6269TIP3   OH243001   0.668   4.790  11.595 -0.1003 -0.2013 -0.0469
 6269TIP3    H143002   0.618   4.744  11.663 -0.6756 -1.2398 -1.1427
 6269TIP3    H243003   0.675   4.727  11.523  0.5373  0.8547 -0.9433
 6270TIP3   OH243004   7.602   6.002  12.655 -0.7764  0.1932 -0.0780
 6270TIP3    H143005   7.646   6.008  12.570 -0.1316 -0.1157  0.2298
 6270TIP3    H243006   7.627   6.082  12.701 -2.4021  1.1515 -0.7517
 6271TIP3   OH243007   7.720   5.428  11.108 -0.1043  0.3360  0.0269
 6271TIP3    H143008   7.725   5.518  11.075  2.4177  0.2841  0.0342
 6271TIP3    H243009   7.811   5.405  11.127 -0.7935 -1.9024  0.9325
 6272TIP3   OH243010   7.150   2.098  11.455  0.4064  0.2578  0.3867
 6272TIP3    H143011   7.227   2.059  11.412  0.0116  0.3078 -0.3772
 6272TIP3    H243012   7.094   2.023  11.475  0.2780  0.2990  0.1839
 6273TIP3   OH243013   7.667   0.540  12.710  0.3971 -0.4171 -0.2492
 6273TIP3    H143014   7.741   0.503  12.758  0.1560  0.1384  0.5871
 6273TIP3    H243015   7.697   0.628  12.684  0.6709 -0.8573 -1.4908
 6274TIP3   OH243016   7.637   2.780  11.859  0.1320 -0.2956 -0.0580
 6274TIP3    H143017   7.582   2.814  11.930 -0.1949  0.1801 -0.5285
 6274TIP3    H243018   7.726   2.789  11.890  0.0196  0.5189  0.0326
 6275TIP3   OH243019   4.268   6.961  10.673  0.0983 -0.4718 -0.1830
 6275TIP3    H143020   4.268   6.956  10.769  0.0377 -1.0962 -0.2094
 6275TIP3    H243021   4.345   7.014  10.652 -0.6282  0.7860  0.2565
 6276TIP3   OH243022   0.270   4.226  11.137 -0.3053  0.2387  0.3587
 6276TIP3    H143023   0.185   4.188  11.114 -1.2572  1.6684  1.3255
 6276TIP3    H243024   0.273   4.308  11.088  0.2481  0.4786  0.7935
 6277TIP3   OH243025   3.025   8.101  10.748 -0.1530  0.2340  0.2196
 6277TIP3    H143026   3.054   8.164  10.813  0.3689 -0.1178  0.3387
 6277TIP3    H243027   2.973   8.037  10.797 -1.3493  0.9870 -0.0316
 6278TIP3   OH243028   6.946   0.305  10.466 -0.5541 -0.2079  0.1475
 6278TIP3    H143029   7.001   0.333  10.540 -0.6462 -1.0862  0.5564
 6278TIP3    H243030   6.858   0.299  10.503 -0.8384  0.6488 -0.3701
 6279TIP3   OH243031   3.985   3.168  11.583  0.0609 -0.0580  0.3618
 6279TIP3    H143032   4.061   3.145  11.530  0.3029 -0.6315  0.9557
 6279TIP3    H243033   3.913   3.172  11.519  1.0553  3.6898 -0.8126
 6280TIP3   OH243034   5.673   0.249  12.767  0.2643  0.3153  0.1274
 6280TIP3    H143035   5.697   0.330  12.814  0.2030  0.7619 -0.5981
 6280TIP3    H243036   5.747   0.191  12.780  1.4438  1.3858 -1.4104
 6281TIP3   OH243037   5.512   3.866  11.931 -0.3055  0.4613 -0.2943
 6281TIP3    H143038   5.579   3.816  11.885  0.6441  1.3779  0.0533
 6281TIP3    H243039   5.522   3.840  12.023 -0.8057  0.1876 -0.3138
 6282TIP3   OH243040   5.484   1.943  12.425  0.1860 -0.0501 -0.0386
 6282TIP3    H143041   5.404   1.944  12.477 -2.0514 -1.3058 -3.1556
 6282TIP3    H243042   5.506   2.036  12.415 -1.2607  0.3739  0.3721
 6283TIP3   OH243043   1.986   5.511  12.429 -0.6633 -0.1621  0.6671
 6283TIP3    H143044   1.905   5.471  12.463  0.4859  0.2023  4.2739
 6283TIP3    H243045   1.975   5.604  12.445  0.4965 -0.1304  1.4400
 6284TIP3   OH243046   7.052   2.004  11.848 -0.1624  0.0244 -0.3509
 6284TIP3    H143047   7.066   1.915  11.881 -0.8681  0.2589  0.6353
 6284TIP3    H243048   6.974   1.997  11.793 -2.1135  0.5489  2.1726
 6285TIP3   OH243049   7.438   7.948  11.149 -0.9668 -0.1898  0.3466
 6285TIP3    H143050   7.396   7.904  11.223 -0.2666 -1.5527 -0.0334
 6285TIP3    H243051   7.385   7.923  11.073  0.7342 -2.3896 -0.2272
 6286TIP3   OH243052   0.821   5.997  10.707 -0.4110 -0.3838  0.0201
 6286TIP3    H143053   0.867   5.985  10.791  1.6122  0.6560 -0.8740
 6286TIP3    H243054   0.841   6.087  10.681 -3.5816  0.3952 -0.1477
 6287TIP3   OH243055   2.301   5.669  11.834  0.0048  0.6837  0.8625
 6287TIP3    H143056   2.235   5.713  11.888 -1.8897 -0.4242 -0.4222
 6287TIP3    H243057   2.257   5.591  11.801  1.1524  1.1196 -1.9911
 6288TIP3   OH243058   3.147   0.733  12.339  0.5597  0.3207  0.3037
 6288TIP3    H143059   3.104   0.755  12.421 -0.2332 -1.5880  0.4523
 6288TIP3    H243060   3.185   0.647  12.354  1.9456  0.7099 -0.7805
 6289TIP3   OH243061   4.141   4.981  11.969  0.4503  0.2382  0.2030
 6289TIP3    H143062   4.105   4.897  11.997  2.2757 -1.9516 -3.3789
 6289TIP3    H243063   4.216   4.995  12.026  0.6057 -0.9951  0.3295
 6290TIP3   OH243064   0.750   7.254  11.776  0.0592 -0.0268 -0.7057
 6290TIP3    H143065   0.729   7.167  11.744 -0.6085 -0.3538  0.5407
 6290TIP3    H243066   0.792   7.239  11.861  1.0747  0.8270 -1.0314
 6291TIP3   OH243067   0.786   4.448  11.699  0.2463  0.0264 -0.6766
 6291TIP3    H143068   0.762   4.533  11.736 -2.1575 -0.8541 -0.0287
 6291TIP3    H243069   0.703   4.403  11.687  1.4781 -2.5157 -0.3178
 6292TIP3   OH243070   7.624   7.964  10.960 -0.1073  1.1376 -0.2137
 6292TIP3    H143071   7.611   8.054  10.931 -0.2519  0.8278 -1.1627
 6292TIP3    H243072   7.569   7.955  11.038  2.0849  2.6961  1.6644
 6293TIP3   OH243073   0.412   7.197  10.734  0.5363  0.0719  0.0136
 6293TIP3    H143074   0.506   7.185  10.715  0.6732  1.5519 -0.4007
 6293TIP3    H243075   0.396   7.289  10.713 -1.2751 -0.4382 -1.0321
 6294TIP3   OH243076   7.965   8.380  10.748 -0.0715 -0.0346  0.2144
 6294TIP3    H143077   7.919   8.298  10.766 -3.8284  2.2533  1.9474
 6294TIP3    H243078   7.903   8.432  10.698  0.8463  2.9648  1.9721
 6295TIP3   OH243079   2.509   2.016  10.244 -0.4531  0.0709 -0.2564
 6295TIP3    H143080   2.584   1.958  10.259 -1.1382 -0.8496 -0.2836
 6295TIP3    H243081   2.546   2.104  10.243  0.3478 -0.1792  1.8066
 6296TIP3   OH243082   7.757   1.192  11.971  0.4290  0.1280  0.7022
 6296TIP3    H143083   7.781   1.245  12.047  0.3343  0.4872  0.4836
 6296TIP3    H243084   7.798   1.107  11.987  1.9830  0.7683  0.2771
 6297TIP3   OH243085   1.467   7.590  10.877  0.1489  0.6523 -0.2973
 6297TIP3    H143086   1.498   7.677  10.901 -1.0434  0.8223  0.7563
 6297TIP3    H243087   1.442   7.550  10.960  3.2440 -1.8183 -0.3671
 6298TIP3   OH243088   7.489   1.343  11.012 -0.1662  0.5176 -0.0081
 6298TIP3    H143089   7.498   1.357  10.918 -0.1758  0.4466 -0.0199
 6298TIP3    H243090   7.535   1.417  11.052  1.9876 -0.7186 -0.0468
 6299TIP3   OH243091   4.913   4.544  10.889 -0.1135  0.5426  0.1712
 6299TIP3    H143092   4.924   4.460  10.934 -2.8558 -0.3863 -0.6682
 6299TIP3    H243093   4.979   4.542  10.820  0.3729 -0.5918  0.6353
 6300TIP3   OH243094   5.929   2.010  11.517 -0.1979  0.4845  0.1121
 6300TIP3    H143095   5.919   1.949  11.444 -1.3279 -0.7860  1.2727
 6300TIP3    H243096   5.929   2.097  11.476 -2.5345 -0.0905 -1.2802
 6301TIP3   OH243097   1.952   1.214  11.915  0.1281  0.2361 -0.4897
 6301TIP3    H143098   1.968   1.221  12.009  1.2279  2.0410 -0.7658
 6301TIP3    H243099   1.860   1.239  11.905 -0.1320 -0.4235  0.1284
 6302TIP3   OH243100   2.856   3.819  12.213 -0.2206 -0.1172  0.1584
 6302TIP3    H143101   2.922   3.881  12.184 -1.5374  1.6661  0.7965
 6302TIP3    H243102   2.777   3.871  12.225 -1.8781 -2.2086 -0.9000
 6303TIP3   OH243103   3.200   3.119  11.482  0.4031  0.0642  0.1980
 6303TIP3    H143104   3.126   3.143  11.538  0.1715 -1.7394  0.7383
 6303TIP3    H243105   3.227   3.201  11.441 -1.6239  0.8546  0.3160
 6304TIP3   OH243106   6.360   1.519  12.593 -0.6029  0.2368 -0.3941
 6304TIP3    H143107   6.431   1.475  12.641 -1.3594  0.7000  1.2496
 6304TIP3    H243108   6.393   1.608  12.578 -1.5040  1.0886  2.1527
 6305TIP3   OH243109   4.243   5.762  10.818  0.4658  0.4018 -0.2359
 6305TIP3    H143110   4.263   5.763  10.911 -1.2405  0.3239  0.1737
 6305TIP3    H243111   4.300   5.829  10.780  0.1731  1.4456  1.0977
 6306TIP3   OH243112   7.796   3.380  11.635  0.1524  0.1617 -0.5461
 6306TIP3    H143113   7.851   3.407  11.709  1.2219  0.2187 -1.3319
 6306TIP3    H243114   7.769   3.462  11.594 -1.0586  0.1520  0.2005
 6307TIP3   OH243115   5.662   7.704  10.240 -0.7703 -0.0460 -0.0526
 6307TIP3    H143116   5.578   7.717  10.285 -1.3745  0.3101 -1.2422
 6307TIP3    H243117   5.653   7.752  10.157  0.1124 -1.1111 -0.7916
 6308TIP3   OH243118   4.054   4.232  11.442  0.6288  0.2142  0.2234
 6308TIP3    H143119   4.112   4.294  11.486  0.1990  1.6643 -1.1766
 6308TIP3    H243120   4.026   4.277  11.363  0.3160 -1.7914 -0.8765
 6309TIP3   OH243121   3.254   3.329  11.333  0.1978 -0.3252  0.3916
 6309TIP3    H143122   3.244   3.327  11.237  0.1807  1.6089  0.3115
 6309TIP3    H243123   3.337   3.375  11.347  0.0514 -0.3396  1.3071
 6310TIP3   OH243124   3.732   4.045  11.577  0.5059 -0.3270  0.8926
 6310TIP3    H143125   3.697   3.961  11.546  0.4057 -0.1048  0.3786
 6310TIP3    H243126   3.801   4.066  11.515 -0.1432  0.4545  0.4075
 6311TIP3   OH243127   0.360   7.464  11.133  0.0954 -0.1644  0.4547
 6311TIP3    H143128   0.300   7.496  11.065  0.4737 -0.3232  0.0366
 6311TIP3    H243129   0.446   7.463  11.090  0.4738  0.4923  1.1923
 6312TIP3   OH243130   5.038   7.517  10.625 -0.0978  0.2241 -0.0900
 6312TIP3    H143131   5.105   7.546  10.687  0.1988  0.9996 -0.7637
 6312TIP3    H243132   5.010   7.597  10.581 -3.6495  0.4899  2.2293
 6313TIP3   OH243133   2.083   1.541  11.071  0.5592 -0.3170 -0.2556
 6313TIP3    H143134   2.001   1.492  11.076  0.0437  0.6530  1.6004
 6313TIP3    H243135   2.111   1.550  11.162  0.7740  2.5604 -0.5321
 6314TIP3   OH243136   1.758   2.303  10.638  0.0294 -0.0205  0.4273
 6314TIP3    H143137   1.808   2.341  10.565 -1.1936 -0.2794 -0.5834
 6314TIP3    H243138   1.709   2.232  10.598 -1.0449  0.1491  1.4081
 6315TIP3   OH243139   0.204   1.265  12.145 -1.1606 -0.7571  0.0858
 6315TIP3    H143140   0.187   1.326  12.216 -2.6822  0.3087 -1.1400
 6315TIP3    H243141   0.275   1.209  12.178  0.3411  1.6433  1.2414
 6316TIP3   OH243142   6.461   6.337  12.889  0.4028 -0.2100  0.8123
 6316TIP3    H143143   6.488   6.269  12.828 -1.4036 -1.2939  1.1432
 6316TIP3    H243144   6.530   6.403  12.883  0.4076 -0.3679 -2.1865
 6317TIP3   OH243145   4.672   7.074  11.424  0.1042  0.3188 -0.7829
 6317TIP3    H143146   4.613   7.027  11.365  0.1815 -0.1798 -0.4675
 6317TIP3    H243147   4.634   7.161  11.431 -1.9362 -0.6313  1.2197
 6318TIP3   OH243148   6.905   2.467  12.498 -0.5167  0.3120 -0.4042
 6318TIP3    H143149   6.994   2.432  12.503 -0.4227  0.7942  2.2775
 6318TIP3    H243150   6.850   2.389  12.488  0.1512  0.0237 -2.3106
 6319TIP3   OH243151   0.822   2.661  11.558  0.1675  0.1151 -0.1925
 6319TIP3    H143152   0.799   2.714  11.482 -0.4074 -0.6517 -0.5674
 6319TIP3    H243153   0.778   2.704  11.632  0.5440  0.7316 -0.3236
 6320TIP3   OH243154   2.391   3.028  11.939 -0.0143 -0.0272  0.2226
 6320TIP3    H143155   2.330   3.023  12.013 -0.4996 -0.2621 -0.1830
 6320TIP3    H243156   2.357   3.099  11.884  0.7288  0.6046  0.5561
 6321TIP3   OH243157   2.598   7.857  11.111  0.3007  0.6043 -0.7969
 6321TIP3    H143158   2.521   7.803  11.094 -0.9499  2.2459 -0.6340
 6321TIP3    H243159   2.644   7.861  11.027  0.1995 -0.3704 -0.9050
 6322TIP3   OH243160   4.859   6.217  10.872  0.1189  0.1593  0.2117
 6322TIP3    H143161   4.920   6.166  10.818 -0.8886 -0.4273 -0.3994
 6322TIP3    H243162   4.803   6.262  10.809 -0.9748 -0.4055  0.7682
 6323TIP3   OH243163   5.763   6.215  11.513 -0.5385 -0.2747  0.4869
 6323TIP3    H143164   5.856   6.195  11.523 -0.4850 -0.5879 -0.4946
 6323TIP3    H243165   5.747   6.288  11.574  0.1509 -0.7539  1.2576
 6324TIP3   OH243166   1.469   4.946  10.757  0.0137 -0.0396  0.0858
 6324TIP3    H143167   1.539   4.900  10.711  0.2042  0.5342 -0.2035
 6324TIP3    H243168   1.512   5.021  10.798 -0.0565 -0.8031  1.6229
 6325TIP3   OH243169   5.289   7.623  11.301 -0.3428 -0.5056  0.3199
 6325TIP3    H143170   5.309   7.675  11.378 -1.6988  0.7596 -0.1306
 6325TIP3    H243171   5.267   7.536  11.335  0.8363 -0.4838  1.1798
 6326TIP3   OH243172   6.603   7.648  12.958  0.3205  0.3276 -0.8755
 6326TIP3    H143173   6.690   7.611  12.975 -0.2053 -1.5310 -1.8928
 6326TIP3    H243174   6.549   7.572  12.936 -1.8137  1.3341  0.5690
 6327TIP3   OH243175   4.451   7.014  11.237 -0.0454  0.5136  0.4683
 6327TIP3    H143176   4.381   7.080  11.240 -1.5098 -0.5956 -3.3285
 6327TIP3    H243177   4.406   6.932  11.255  1.2324  0.1522  2.3243
 6328TIP3   OH243178   8.041   4.383  12.705  0.7262 -0.4066  0.2319
 6328TIP3    H143179   8.022   4.474  12.729  2.0277  0.0271 -0.2838
 6328TIP3    H243180   7.986   4.367  12.628  2.0418  0.6867 -0.9895
 6329TIP3   OH243181   7.778   6.741  11.002  0.0206 -0.1756 -0.3796
 6329TIP3    H143182   7.831   6.716  11.077 -1.2948 -0.4628  0.4638
 6329TIP3    H243183   7.759   6.659  10.957  1.0701  0.0244 -1.2450
 6330TIP3   OH243184   2.206   5.361  11.379 -0.4619 -0.3477  0.0647
 6330TIP3    H143185   2.231   5.363  11.287 -0.5426 -3.9954 -0.1846
 6330TIP3    H243186   2.221   5.270  11.406  1.8809  1.0176  4.3587
 6331TIP3   OH243187   0.172   5.631  11.542 -0.6890 -0.2605 -0.1610
 6331TIP3    H143188   0.231   5.609  11.614 -0.0723  0.1171 -0.5425
 6331TIP3    H243189   0.143   5.547  11.507 -2.4151 -0.5175  1.6321
 6332TIP3   OH243190   6.085   6.669  11.362  0.2908  0.2236 -0.3226
 6332TIP3    H143191   6.100   6.613  11.285  3.9047 -2.2367  1.8493
 6332TIP3    H243192   6.053   6.610  11.429 -0.3809  1.8004  0.8082
 6333TIP3   OH243193   3.683   1.098  10.596 -0.1067  0.2570 -0.0452
 6333TIP3    H143194   3.587   1.096  10.592 -0.1397  0.6051  0.4988
 6333TIP3    H243195   3.704   1.046  10.673  0.1911 -0.5750 -0.6708
 6334TIP3   OH243196   8.431   5.544  10.516  0.1294 -0.3702 -0.1359
 6334TIP3    H143197   8.424   5.609  10.446  1.0359 -0.6658 -0.5218
 6334TIP3    H243198   8.341   5.520  10.536 -0.1569 -0.0008 -0.9500
 6335TIP3   OH243199   5.403   6.506  11.504 -0.2284 -0.3822 -0.2153
 6335TIP3    H143200   5.377   6.586  11.550  0.2169 -0.2192 -0.2439
 6335TIP3    H243201   5.322   6.475  11.463 -0.8478 -1.0522  1.4371
 6336TIP3   OH243202   2.336   1.921  12.900  0.2507 -0.2819 -0.2775
 6336TIP3    H143203   2.360   1.834  12.931 -0.1464 -0.1566  0.4260
 6336TIP3    H243204   2.246   1.912  12.869  1.5205 -1.0641 -4.1861
 6337TIP3   OH243205   5.663   6.413  12.667 -0.1899 -0.3128 -0.1321
 6337TIP3    H143206   5.745   6.451  12.697 -0.4888 -0.4152  0.8432
 6337TIP3    H243207   5.601   6.485  12.667  0.4268  0.3720 -3.2685
 6338TIP3   OH243208   1.975   4.884  11.808 -0.0742 -0.1592 -0.1473
 6338TIP3    H143209   2.012   4.835  11.881 -0.0964 -0.5538 -0.3950
 6338TIP3    H243210   1.889   4.845  11.794 -0.4998  0.6077  0.2816
 6339TIP3   OH243211   0.561   7.958  12.628  0.1298 -0.1824  0.2359
 6339TIP3    H143212   0.605   7.930  12.709 -1.1143 -3.1513 -0.0084
 6339TIP3    H243213   0.471   7.978  12.656  0.2556  0.9351 -0.1047
 6340TIP3   OH243214   2.334   6.610  12.777 -0.0049  0.5357 -1.0378
 6340TIP3    H143215   2.325   6.520  12.809  1.9642  0.3949 -0.7764
 6340TIP3    H243216   2.244   6.641  12.770 -0.6876 -0.3676  2.0118
 6341TIP3   OH243217   5.253   5.616  11.882  0.2781 -0.6712  0.4964
 6341TIP3    H143218   5.198   5.565  11.822  0.3092 -1.0592  0.7936
 6341TIP3    H243219   5.327   5.559  11.900  0.1000 -0.6927  1.1713
 6342TIP3   OH243220   1.439   1.644  12.433 -0.3933  0.6368 -0.1413
 6342TIP3    H143221   1.349   1.616  12.450 -0.2633  0.1907 -0.1696
 6342TIP3    H243222   1.487   1.562  12.420 -0.1618  0.8980 -1.0190
 6343TIP3   OH243223   6.042   4.052  12.159  0.0917  0.2785 -0.3973
 6343TIP3    H143224   6.130   4.051  12.122  0.2422  0.2529 -0.0418
 6343TIP3    H243225   6.021   4.145  12.165  0.0462  0.2817 -0.5929
 6344TIP3   OH243226   7.962   0.756  12.146 -0.4676  0.8040 -0.0444
 6344TIP3    H143227   7.966   0.708  12.064 -0.8422  0.1419  0.3128
 6344TIP3    H243228   8.054   0.760  12.176 -0.4451  0.1949 -0.0190
 6345TIP3   OH243229   5.081   5.270  12.518  0.0698  0.6951  0.5272
 6345TIP3    H143230   5.158   5.293  12.465  1.1794 -2.2605  0.6322
 6345TIP3    H243231   5.013   5.329  12.488  1.1777  0.4987 -2.8704
 6346TIP3   OH243232   5.727   5.214  11.349  0.1777 -0.3418  0.0198
 6346TIP3    H143233   5.754   5.305  11.344 -1.5119  0.3950  2.5114
 6346TIP3    H243234   5.634   5.217  11.370 -0.2334 -2.6752 -1.0839
 6347TIP3   OH243235   7.210   5.926  11.970 -0.6407  0.1843 -0.0400
 6347TIP3    H143236   7.238   5.921  11.878  0.0558  1.1966  0.1004
 6347TIP3    H243237   7.163   6.009  11.976  0.9363  1.0660  0.9106
 6348TIP3   OH243238   4.049   2.100  12.656 -0.4735  0.4536 -0.4424
 6348TIP3    H143239   4.083   2.018  12.691  0.9116  1.4310  0.6171
 6348TIP3    H243240   3.993   2.074  12.583  0.6642 -1.3675 -0.7247
 6349TIP3   OH243241   4.728   2.252  11.816 -0.7027  0.0503 -0.3384
 6349TIP3    H143242   4.764   2.330  11.773 -0.1901 -0.4831 -0.8836
 6349TIP3    H243243   4.790   2.232  11.886 -1.0418  0.3511  0.0617
 6350TIP3   OH243244   1.224   5.440  12.554  0.3505  0.1057  0.1197
 6350TIP3    H143245   1.276   5.425  12.633 -0.5442  1.2605  0.9736
 6350TIP3    H243246   1.157   5.372  12.557 -1.1535  1.5206  1.7298
 6351TIP3   OH243247   3.128   5.127  11.501 -0.2550  0.3600  0.0854
 6351TIP3    H143248   3.051   5.070  11.496  0.0920  0.0033 -1.7935
 6351TIP3    H243249   3.097   5.213  11.473  0.2103 -0.0109 -1.6479
 6352TIP3   OH243250   4.565   0.754  11.253 -0.1149  0.6680  0.7070
 6352TIP3    H143251   4.560   0.659  11.240 -0.3733  0.7638  0.0219
 6352TIP3    H243252   4.474   0.784  11.246 -0.1267  0.8869  1.6447
 6353TIP3   OH243253   3.449   5.037  10.688 -0.0907  0.0736 -0.1779
 6353TIP3    H143254   3.469   5.122  10.647  1.0130 -0.1834 -0.2075
 6353TIP3    H243255   3.370   5.007  10.643 -0.1242  0.7873 -0.6160
 6354TIP3   OH243256   3.556   7.731  11.664 -0.6250 -0.1731 -0.3813
 6354TIP3    H143257   3.463   7.751  11.653 -1.3859 -2.7388  0.5845
 6354TIP3    H243258   3.590   7.803  11.716 -2.5282 -0.0100  0.7468
 6355TIP3   OH243259   1.952   2.878  10.830  0.1702 -0.4912  0.1078
 6355TIP3    H143260   2.032   2.881  10.777  0.0518 -0.6872 -0.0823
 6355TIP3    H243261   1.984   2.865  10.920  0.3279 -1.3643 -0.0644
 6356TIP3   OH243262   7.875   8.155  10.482 -0.3039  0.2011  0.3022
 6356TIP3    H143263   7.809   8.197  10.426  0.6589  0.2345 -0.8495
 6356TIP3    H243264   7.952   8.212  10.474 -0.0857  0.0926  1.5266
 6357TIP3   OH243265   2.655   5.855  10.471 -0.3134 -0.7298  0.6839
 6357TIP3    H143266   2.648   5.822  10.560 -1.6365 -1.2377  0.4259
 6357TIP3    H243267   2.589   5.925  10.467 -0.7518 -1.1733 -0.0794
 6358TIP3   OH243268   5.817   4.335  11.608  0.3141 -0.2313 -0.3327
 6358TIP3    H143269   5.860   4.324  11.693  0.0294 -1.0323 -0.2885
 6358TIP3    H243270   5.882   4.310  11.543  0.8276  1.2091 -0.4141
 6359TIP3   OH243271   1.407   0.279  11.905  0.0308  0.2432  0.0324
 6359TIP3    H143272   1.401   0.185  11.919  2.6290 -0.2927 -1.6307
 6359TIP3    H243273   1.316   0.308  11.896 -0.8807 -1.8798  1.6035
 6360TIP3   OH243274   4.418   0.923  11.011  0.1714 -0.5660  0.0127
 6360TIP3    H143275   4.451   0.854  10.953 -1.5638 -1.6306  0.2367
 6360TIP3    H243276   4.370   0.877  11.079 -0.3495  0.8358  0.6338
 6361TIP3   OH243277   7.773   2.991  10.920  0.5050 -0.0301 -0.3324
 6361TIP3    H143278   7.810   3.078  10.906  1.3665 -0.6314 -2.0762
 6361TIP3    H243279   7.679   3.001  10.905  0.3424  0.9115  1.1477
 6362TIP3   OH243280   6.126   3.573  12.587  0.4271  0.1645 -0.1479
 6362TIP3    H143281   6.064   3.500  12.589  0.8143 -0.1729 -0.3502
 6362TIP3    H243282   6.208   3.535  12.618  0.5449  0.6017  0.0799
 6363TIP3   OH243283   3.985   3.765  12.087 -0.4149 -0.2856 -0.0878
 6363TIP3    H143284   3.949   3.724  12.166 -2.6990 -0.8395 -1.3094
 6363TIP3    H243285   4.068   3.719  12.071 -0.3467 -0.7520  1.4968
 6364TIP3   OH243286   6.322   4.711  11.332  0.8779  0.1613  0.6965
 6364TIP3    H143287   6.318   4.780  11.398 -1.1894 -1.2971  2.2479
 6364TIP3    H243288   6.238   4.716  11.287  0.5434 -1.4890  1.0674
 6365TIP3   OH243289   6.593   1.005  12.185 -0.0743 -0.0903 -0.4299
 6365TIP3    H143290   6.524   1.057  12.144 -1.1908 -1.7530 -0.7853
 6365TIP3    H243291   6.583   1.020  12.279  0.5947  1.4429 -0.5693
 6366TIP3   OH243292   5.899   2.916  10.899 -0.1193 -0.1544  0.9563
 6366TIP3    H143293   5.976   2.955  10.857  0.1277 -2.4672 -1.0001
 6366TIP3    H243294   5.835   2.987  10.904  2.0997  1.8735  2.7216
 6367TIP3   OH243295   5.725   2.194  11.427  0.1668 -0.6247 -0.2994
 6367TIP3    H143296   5.732   2.282  11.391 -1.5435 -0.1445  0.4678
 6367TIP3    H243297   5.709   2.206  11.520 -0.3821 -1.7465 -0.2315
 6368TIP3   OH243298   5.797   1.037  10.982  0.3744 -0.1407  0.5311
 6368TIP3    H143299   5.702   1.045  10.995  0.4355  0.8298  0.4256
 6368TIP3    H243300   5.829   1.127  10.985  1.2379 -0.4294  0.1101
 6369TIP3   OH243301   5.062   7.850  10.899  0.1914  0.2174 -0.1790
 6369TIP3    H143302   5.127   7.893  10.843 -0.6359 -0.2921 -1.5828
 6369TIP3    H243303   4.978   7.883  10.867 -0.3152 -0.2295  0.6592
 6370TIP3   OH243304   3.920   2.116  11.316  0.1149 -0.0844  0.0132
 6370TIP3    H143305   3.983   2.107  11.388  0.4742 -2.9116 -0.5388
 6370TIP3    H243306   3.837   2.088  11.355 -0.6926  2.7215  0.4796
 6371TIP3   OH243307   2.387   3.361  12.582  0.1918 -0.2873  0.3830
 6371TIP3    H143308   2.334   3.440  12.595  0.2638 -0.2975  0.7654
 6371TIP3    H243309   2.460   3.391  12.527 -0.8088 -0.5379 -1.1339
 6372TIP3   OH243310   1.005   2.076  11.742  0.0529  0.0360  0.4711
 6372TIP3    H143311   0.959   2.158  11.721  0.6177 -0.2393 -2.1256
 6372TIP3    H243312   0.938   2.021  11.783 -1.4487  0.3791 -1.3819
 6373TIP3   OH243313   2.330   8.034  10.381 -0.2960 -0.1725 -0.3813
 6373TIP3    H143314   2.244   8.074  10.373 -1.1748 -1.7786  0.6491
 6373TIP3    H243315   2.383   8.100  10.426 -1.3181  0.3610  0.0613
 6374TIP3   OH243316   2.680   6.453  12.470 -0.7228 -0.5300 -0.5895
 6374TIP3    H143317   2.762   6.433  12.424  0.4220  0.6273  0.8664
 6374TIP3    H243318   2.698   6.432  12.562 -1.6743  0.7836 -0.0744
 6375TIP3   OH243319   2.930   6.494  12.647 -0.0279  0.1069  0.4324
 6375TIP3    H143320   2.924   6.495  12.743 -0.6286 -0.6656  0.4152
 6375TIP3    H243321   3.008   6.440  12.629 -0.5767 -0.7245  0.4813
 6376TIP3   OH243322   0.878   4.931  11.889  0.6025 -0.1695 -0.7169
 6376TIP3    H143323   0.963   4.959  11.924  0.7595 -0.3077 -0.9816
 6376TIP3    H243324   0.871   4.975  11.804  0.0534  0.4662 -0.3454
 6377TIP3   OH243325   5.875   7.420  10.542  0.3635  0.2731  0.2541
 6377TIP3    H143326   5.798   7.422  10.599  0.3490 -0.2364  0.2598
 6377TIP3    H243327   5.860   7.346  10.484  2.0092 -1.5292  1.9519
 6378TIP3   OH243328   7.781   8.129  11.944  0.1944 -0.1500 -0.0115
 6378TIP3    H143329   7.732   8.149  12.024  0.8678  0.1194  0.3395
 6378TIP3    H243330   7.731   8.058  11.903 -0.7897  0.4710  0.0566
 6379TIP3   OH243331   2.651   3.465  10.819 -0.2621  0.2589 -0.8472
 6379TIP3    H143332   2.585   3.530  10.794  0.6804  1.3096 -0.7004
 6379TIP3    H243333   2.728   3.517  10.841 -0.0586 -0.8073  1.1610
 6380TIP3   OH243334   6.134   7.591  12.119  0.0202  0.8940  0.7052
 6380TIP3    H143335   6.095   7.675  12.141 -0.5326  0.6788  0.5601
 6380TIP3    H243336   6.136   7.590  12.023  1.0303  1.1931  0.7027
 6381TIP3   OH243337   7.464   4.637  12.191  0.2241  0.5459 -0.2298
 6381TIP3    H143338   7.453   4.706  12.256  1.0020 -0.5064  1.0553
 6381TIP3    H243339   7.549   4.657  12.151 -0.0651  0.9564 -0.6538
 6382TIP3   OH243340   6.710   5.069  11.717  0.0455  0.0126  0.2837
 6382TIP3    H143341   6.708   5.017  11.637  1.3484  1.6658 -0.8939
 6382TIP3    H243342   6.798   5.053  11.753  0.3736  1.1674  0.0302
 6383TIP3   OH243343   7.025   3.506  11.251 -0.0563 -0.1197 -0.4287
 6383TIP3    H143344   7.118   3.495  11.234  0.1054 -1.1116  0.9711
 6383TIP3    H243345   6.991   3.417  11.257 -0.6732  0.1930  1.1753
 6384TIP3   OH243346   6.604   4.978  10.655  0.3690  0.2303  0.1531
 6384TIP3    H143347   6.546   5.048  10.623  0.8352  1.4727  1.8389
 6384TIP3    H243348   6.559   4.897  10.633 -0.7647  1.0920 -0.8374
 6385TIP3   OH243349   4.141   8.429  11.793 -0.3673 -0.3211 -0.3304
 6385TIP3    H143350   4.146   8.403  11.885 -2.5621 -0.7601 -0.2682
 6385TIP3    H243351   4.130   8.346  11.745 -2.2714  0.0635 -0.6453
 6386TIP3   OH243352   0.797   1.255  10.481  0.1807  0.1863 -0.5427
 6386TIP3    H143353   0.767   1.251  10.572  0.8025  0.4014 -0.3238
 6386TIP3    H243354   0.868   1.319  10.482  1.6265 -1.3617 -0.7762
 6387TIP3   OH243355   5.044   3.617  10.606  0.3357  0.0750  0.0790
 6387TIP3    H143356   5.017   3.674  10.678  1.0175  1.0184 -0.3925
 6387TIP3    H243357   4.963   3.594  10.561 -0.0353 -0.0826  0.8177
 6388TIP3   OH243358   0.220   7.254  11.911 -0.4243 -0.0553  0.3584
 6388TIP3    H143359   0.180   7.263  11.825  0.3223 -0.8109 -0.0698
 6388TIP3    H243360   0.182   7.175  11.948 -0.6585  0.2047  0.6894
 6389TIP3   OH243361   2.859   7.969  10.915  0.3170 -0.3824  0.0125
 6389TIP3    H143362   2.822   7.882  10.896  0.0641 -0.0086 -1.3375
 6389TIP3    H243363   2.792   8.030  10.883  1.3400  0.3097 -0.8420
 6390TIP3   OH243364   4.753   6.967  12.362 -0.6772  0.0235 -0.2648
 6390TIP3    H143365   4.809   6.966  12.284  1.5329  0.3473  1.2251
 6390TIP3    H243366   4.675   6.918  12.336 -0.6336  1.2580 -3.0736
 6391TIP3   OH243367   3.491   3.112  10.791  0.0899  0.5584  0.4186
 6391TIP3    H143368   3.435   3.189  10.795 -0.3802  0.1992  0.7951
 6391TIP3    H243369   3.557   3.127  10.860 -0.8247 -0.0052  1.4500
 6392TIP3   OH243370   0.218   3.059  11.756 -0.2535  0.2077 -0.0068
 6392TIP3    H143371   0.283   3.111  11.710 -0.8864 -0.8058 -2.1553
 6392TIP3    H243372   0.239   2.968  11.735 -1.7797 -0.1837  0.0061
 6393TIP3   OH243373   3.699   7.478  12.210 -1.0289 -0.6542 -0.4783
 6393TIP3    H143374   3.613   7.469  12.168 -2.7493  3.0266  1.6891
 6393TIP3    H243375   3.692   7.427  12.290 -2.2155  1.3785  0.8120
 6394TIP3   OH243376   0.845   1.766  11.153 -0.1706 -0.2554  0.2730
 6394TIP3    H143377   0.837   1.724  11.068  1.0781  0.1182 -0.0412
 6394TIP3    H243378   0.773   1.729  11.205 -3.3266  2.1563 -1.9831
 6395TIP3   OH243379   3.778   4.600  10.846  0.1134 -0.2766 -0.6197
 6395TIP3    H143380   3.730   4.519  10.828 -0.6641  0.0350  0.0055
 6395TIP3    H243381   3.710   4.663  10.871  0.7789  0.3796 -0.4362
 6396TIP3   OH243382   8.401   1.499  15.685 -0.1346  0.4176 -0.0281
 6396TIP3    H143383   8.435   1.515  15.773  1.3024  0.6770 -0.6010
 6396TIP3    H243384   8.442   1.416  15.659 -1.5900 -0.3451  0.0366
 6397TIP3   OH243385   1.436   5.327  12.671  0.4290 -0.3878  0.3657
 6397TIP3    H143386   1.410   5.235  12.682  1.7311 -1.0926 -1.7062
 6397TIP3    H243387   1.529   5.328  12.693  0.8761 -0.0074 -1.3596
 6398TIP3   OH243388   5.718   6.565  11.108 -0.2314  0.2838 -0.4421
 6398TIP3    H143389   5.709   6.511  11.030 -0.9392  0.0782 -0.2262
 6398TIP3    H243390   5.807   6.599  11.104  0.0098 -0.3960 -0.9038
 6399TIP3   OH243391   5.926   2.000  10.696 -0.7229  0.0541  0.4397
 6399TIP3    H143392   5.861   2.046  10.643 -0.1871 -1.1771 -1.3871
 6399TIP3    H243393   5.927   1.911  10.660  0.4277 -0.5364  1.8588
 6400TIP3   OH243394   4.635   1.599  12.103 -0.1927  0.1568 -0.0849
 6400TIP3    H143395   4.721   1.559  12.093 -0.6218 -1.0620  0.8791
 6400TIP3    H243396   4.645   1.687  12.067  1.4266  0.0050 -0.0573
 6401TIP3   OH243397   6.956   6.322  11.622 -0.3925 -0.3383  0.1011
 6401TIP3    H143398   6.954   6.418  11.626 -0.1772 -0.3615  0.7883
 6401TIP3    H243399   6.946   6.302  11.529  0.6019  0.3745 -0.1696
 6402TIP3   OH243400   2.872   8.142  11.359 -0.5894  0.1103 -0.3602
 6402TIP3    H143401   2.860   8.131  11.265  1.6063  0.1623 -0.7134
 6402TIP3    H243402   2.869   8.054  11.395  1.1815 -0.2182 -0.9068
 6403TIP3   OH243403   7.132   4.872  11.942 -0.3170  0.8327 -0.0228
 6403TIP3    H143404   7.139   4.793  11.995 -0.0375  0.4464 -0.6122
 6403TIP3    H243405   7.222   4.893  11.919 -0.4982  0.2585 -1.3723
 6404TIP3   OH243406   7.134   6.554  11.920 -0.1271 -0.5537  0.0830
 6404TIP3    H143407   7.217   6.602  11.921 -0.0185 -0.7513  0.9114
 6404TIP3    H243408   7.134   6.505  12.002  0.1545 -2.6637 -1.1100
 6405TIP3   OH243409   6.732   3.407  10.675  0.0775 -0.8213 -0.4715
 6405TIP3    H143410   6.815   3.453  10.656 -0.4289 -0.4374 -1.9299
 6405TIP3    H243411   6.669   3.477  10.691  0.2799 -1.1230  2.0659
 6406TIP3   OH243412   8.286   0.295  11.873  0.0244 -0.6776  0.7150
 6406TIP3    H143413   8.241   0.299  11.789 -1.7911 -1.1926  1.6088
 6406TIP3    H243414   8.353   0.363  11.867  0.5061 -1.2604 -1.4347
 6407TIP3   OH243415   1.956   1.226  12.196  0.0887 -0.2059  0.1465
 6407TIP3    H143416   2.029   1.279  12.229  0.4472 -0.0371 -0.8875
 6407TIP3    H243417   1.879   1.259  12.242  0.3009  1.2315 -0.4994
 6408TIP3   OH243418   3.256   8.351  11.130 -0.0499 -0.0095  0.0659
 6408TIP3    H143419   3.284   8.403  11.205  1.5670 -0.3223 -0.2856
 6408TIP3    H243420   3.264   8.409  11.055 -0.0895 -0.1925 -0.0828
 6409TIP3   OH243421   2.106   1.659  10.615  0.0325 -0.1559  0.2098
 6409TIP3    H143422   2.189   1.707  10.623  0.7282 -1.4643  1.1842
 6409TIP3    H243423   2.039   1.728  10.616  0.9348  0.8023  2.5610
 6410TIP3   OH243424   2.767   0.269  10.779 -0.2851  0.0543 -0.2892
 6410TIP3    H143425   2.814   0.275  10.696 -0.9548 -0.4024 -0.7173
 6410TIP3    H243426   2.825   0.310  10.843 -0.4862  2.0052 -1.2892
 6411TIP3   OH243427   1.156   6.552  11.291  0.5598 -0.2426 -0.0532
 6411TIP3    H143428   1.129   6.477  11.345  0.1492 -0.7165 -0.8920
 6411TIP3    H243429   1.250   6.558  11.304  0.4656 -0.3538  0.7131
 6412TIP3   OH243430   4.226   1.754  12.077 -0.1032 -0.0588 -0.2779
 6412TIP3    H143431   4.132   1.764  12.065 -0.3570  0.0716  1.5790
 6412TIP3    H243432   4.237   1.662  12.101  0.1595  0.0791  0.1432
 6413TIP3   OH243433   5.496   2.818  12.336  0.2631 -0.1755  0.4747
 6413TIP3    H143434   5.509   2.819  12.241 -1.7133  2.2262  0.1297
 6413TIP3    H243435   5.570   2.767  12.369  2.9379  1.6438 -2.1124
 6414TIP3   OH243436   6.005   5.006  11.750 -0.2296  0.1794 -0.8994
 6414TIP3    H143437   5.920   5.038  11.780  1.1055  0.5489  3.0435
 6414TIP3    H243438   5.995   4.911  11.749 -0.3813  0.1463  0.8417
 6415TIP3   OH243439   8.257   1.561  11.778 -0.2315 -0.2283  0.3117
 6415TIP3    H143440   8.279   1.614  11.701 -0.0509  0.7604  1.0190
 6415TIP3    H243441   8.328   1.497  11.784  0.8085  0.9147  0.7364
 6416TIP3   OH243442   1.865   0.740  11.748  0.3007 -0.0775  0.4220
 6416TIP3    H143443   1.777   0.732  11.712  0.8576 -1.1829 -0.7550
 6416TIP3    H243444   1.904   0.812  11.698  1.1312 -1.7227 -1.4088
 6417TIP3   OH243445   5.973   3.703  11.515 -0.0550  0.5883  0.2254
 6417TIP3    H143446   6.041   3.704  11.583 -0.4809 -1.5619  0.7515
 6417TIP3    H243447   5.891   3.714  11.563 -0.1716  2.9143 -0.3815
 6418TIP3   OH243448   7.877   5.183  11.797 -0.0474  0.1926  0.2738
 6418TIP3    H143449   7.941   5.113  11.784  0.6849  0.3553  2.6449
 6418TIP3    H243450   7.917   5.261  11.758  1.0324  0.1925  1.3437
 6419TIP3   OH243451   3.173   1.073  11.097 -0.0319  0.3249 -0.5434
 6419TIP3    H143452   3.133   0.992  11.131 -0.3009 -0.4041 -2.4660
 6419TIP3    H243453   3.260   1.075  11.137 -1.0824  0.7170  1.8961
 6420TIP3   OH243454   0.060   8.379  11.796  0.5203  0.2884 -0.9862
 6420TIP3    H143455   0.040   8.374  11.702 -1.2441 -0.1310 -0.6221
 6420TIP3    H243456  -0.020   8.349  11.839  0.6768  2.1449  0.7173
 6421TIP3   OH243457   2.095   1.493  11.990 -0.1604  0.2276  0.7259
 6421TIP3    H143458   2.175   1.442  12.001 -0.1993  0.3416  1.5691
 6421TIP3    H243459   2.049   1.450  11.918  0.4432 -0.1032  0.5255
 6422TIP3   OH243460   4.174   7.777  11.266 -0.4078 -0.4892  0.2313
 6422TIP3    H143461   4.158   7.757  11.359 -1.1061 -0.9968  0.0108
 6422TIP3    H243462   4.142   7.700  11.219  0.9705 -0.7140 -0.3737
 6423TIP3   OH243463   2.962   7.429  12.539  0.5049 -0.1541  0.1526
 6423TIP3    H143464   2.977   7.514  12.499 -0.1293 -0.0781  0.0617
 6423TIP3    H243465   2.901   7.385  12.479  0.8452 -0.6797  0.1853
 6424TIP3   OH243466   0.569   4.641  11.800 -0.0095  0.0348 -0.1765
 6424TIP3    H143467   0.503   4.574  11.816 -0.8437  0.5722 -1.1531
 6424TIP3    H243468   0.571   4.693  11.880  0.3578 -0.8955  0.4349
 6425TIP3   OH243469   4.964   3.177  12.099  0.4700 -0.4698 -0.5011
 6425TIP3    H143470   4.989   3.195  12.009  0.6660 -1.6906 -0.7131
 6425TIP3    H243471   4.871   3.158  12.095  0.3844 -0.0849 -0.3727
 6426TIP3   OH243472   2.632   4.595  12.436  0.1514  0.0352  0.2144
 6426TIP3    H143473   2.616   4.685  12.407  1.7254  0.8135  1.5483
 6426TIP3    H243474   2.622   4.598  12.531 -0.2996 -1.3515  0.2393
 6427TIP3   OH243475   7.287   2.111  10.881  0.4600 -0.2696 -0.1022
 6427TIP3    H143476   7.331   2.084  10.961  1.7736 -0.3626 -0.8225
 6427TIP3    H243477   7.197   2.127  10.907  0.5893 -1.4463  1.1476
 6428TIP3   OH243478   1.176   4.299  12.310  0.0021 -0.6542  0.1819
 6428TIP3    H143479   1.174   4.383  12.355 -0.7038 -1.6178  2.0282
 6428TIP3    H243480   1.265   4.266  12.323  0.1257 -0.4392 -0.1025
 6429TIP3   OH243481   1.244   7.074  11.086  0.2316  0.2474  0.6646
 6429TIP3    H143482   1.300   7.068  11.008 -1.1061  0.6494 -0.3688
 6429TIP3    H243483   1.212   6.985  11.100 -2.6976  0.7707 -1.7441
 6430TIP3   OH243484   5.742   5.534  10.806 -0.0900 -0.1395 -0.0402
 6430TIP3    H143485   5.704   5.451  10.777 -1.4734  0.4978 -0.1419
 6430TIP3    H243486   5.828   5.510  10.840  0.3869 -1.3327 -1.9221
 6431TIP3   OH243487   2.940   3.714  11.574  0.2466 -0.1551  0.5525
 6431TIP3    H143488   3.004   3.697  11.506 -1.0364 -0.1155 -0.7055
 6431TIP3    H243489   2.956   3.804  11.601 -0.4253  0.4871 -1.0599
 6432TIP3   OH243490   4.631   2.340  10.838 -0.2469  0.2156 -0.1689
 6432TIP3    H143491   4.564   2.283  10.802 -0.3434  0.1743  0.0742
 6432TIP3    H243492   4.650   2.403  10.768  1.1223 -1.1619 -1.1003
 6433TIP3   OH243493   4.761   4.418  12.692  0.0918  0.2678 -0.1835
 6433TIP3    H143494   4.668   4.400  12.704 -0.0152 -0.2247 -1.5367
 6433TIP3    H243495   4.769   4.513  12.696 -0.2487  0.2600  1.2170
 6434TIP3   OH243496   0.440   1.817  11.500 -0.4052  0.1322 -0.0091
 6434TIP3    H143497   0.408   1.744  11.554  2.7602 -0.7223  0.9337
 6434TIP3    H243498   0.455   1.888  11.563  0.5635  0.1285 -0.2318
 6435TIP3   OH243499   5.846   6.779  11.723  0.2818  0.6144 -0.1271
 6435TIP3    H143500   5.926   6.796  11.774 -0.0152  0.4877  0.3860
 6435TIP3    H243501   5.790   6.730  11.782 -0.2525  0.8541 -0.4291
 6436TIP3   OH243502   4.498   3.793  12.075 -0.4533 -0.6794 -0.0103
 6436TIP3    H143503   4.469   3.849  12.003 -1.5343 -0.7778  0.3361
 6436TIP3    H243504   4.562   3.733  12.034  0.2782  0.4003 -0.5002
 6437TIP3   OH243505   4.626   4.909  10.423  0.0471 -0.3673 -0.4160
 6437TIP3    H143506   4.707   4.956  10.441 -0.5662  0.2756  0.7687
 6437TIP3    H243507   4.603   4.933  10.333  1.3261 -0.8231 -0.8809
 6438TIP3   OH243508   0.099   7.639  12.245  0.2596 -0.3308  0.3631
 6438TIP3    H143509   0.166   7.707  12.246  1.3779 -1.3211 -1.1411
 6438TIP3    H243510   0.131   7.576  12.179 -1.8096 -1.1872  0.1143
 6439TIP3   OH243511   2.598   4.400  11.107 -0.0686 -0.2778 -0.2349
 6439TIP3    H143512   2.665   4.434  11.167 -0.4181  0.7456 -0.4093
 6439TIP3    H243513   2.648   4.351  11.041  0.2632 -2.3698  1.4355
 6440TIP3   OH243514   5.007   5.352  11.865 -0.3218  0.3117 -0.1576
 6440TIP3    H143515   4.924   5.303  11.863  0.5454 -1.1961 -1.9849
 6440TIP3    H243516   5.069   5.296  11.819  0.9370  2.8431 -1.7365
 6441TIP3   OH243517   7.482   1.679  11.805  0.2606 -0.2757  0.3379
 6441TIP3    H143518   7.467   1.770  11.781 -0.2043 -0.9503 -2.1460
 6441TIP3    H243519   7.573   1.662  11.783  0.0044 -0.7322 -0.4188
 6442TIP3   OH243520   2.016   4.192  11.482 -0.3237 -0.2617  0.4278
 6442TIP3    H143521   1.961   4.178  11.405 -1.2643 -0.7633  1.1700
 6442TIP3    H243522   1.983   4.129  11.546 -0.1249  0.7434  1.5368
 6443TIP3   OH243523   2.990   2.271  11.900  0.0886  0.1170  0.6921
 6443TIP3    H143524   3.012   2.354  11.943  1.0755  0.8179 -1.0510
 6443TIP3    H243525   3.002   2.289  11.807 -0.8342 -1.6705  0.1864
 6444TIP3   OH243526   4.966   3.494  11.762  0.1277 -0.3399 -0.5273
 6444TIP3    H143527   4.883   3.512  11.718 -0.3286  0.2854  0.5512
 6444TIP3    H243528   4.976   3.565  11.825  0.3464 -1.6438  0.9674
 6445TIP3   OH243529   5.770   7.126  11.859  0.4026 -0.0836 -0.1019
 6445TIP3    H143530   5.697   7.070  11.886  0.5695  0.6366  2.0716
 6445TIP3    H243531   5.729   7.191  11.802 -1.4991  2.2046  3.4624
 6446TIP3   OH243532   1.677   4.054  11.965  0.0134 -0.2269 -0.1131
 6446TIP3    H143533   1.766   4.057  11.931  0.1377  1.2967  0.2685
 6446TIP3    H243534   1.640   3.974  11.929  0.9411  0.0461 -1.7714
 6447TIP3   OH243535   5.397   7.270  11.956 -0.4068 -0.3854 -0.2183
 6447TIP3    H143536   5.420   7.184  11.921  1.5089 -0.3816  0.8845
 6447TIP3    H243537   5.365   7.319  11.880  2.2159 -0.8175 -1.7392
 6448TIP3   OH243538   2.717   6.289  11.021 -0.1229 -0.0999 -0.5812
 6448TIP3    H143539   2.723   6.376  10.982  0.2486  0.2305  0.2025
 6448TIP3    H243540   2.737   6.302  11.113 -1.7518 -0.7475 -0.0973
 6449TIP3   OH243541   6.892   3.990  11.203  0.1427 -0.0848  0.4800
 6449TIP3    H143542   6.916   3.899  11.219 -0.4644 -0.3779 -0.2797
 6449TIP3    H243543   6.916   4.035  11.285 -3.5181 -1.6493  2.6533
 6450TIP3   OH243544   0.072   0.685  12.231 -0.1487  0.5321  1.0299
 6450TIP3    H143545   0.096   0.595  12.251 -0.6905  0.2604  0.4769
 6450TIP3    H243546   0.034   0.718  12.313 -2.6466 -0.6762  0.4511
 6451TIP3   OH243547   2.751   7.519  12.256  0.4072 -0.2498 -0.0303
 6451TIP3    H143548   2.794   7.595  12.216  1.3644  0.2503  1.8203
 6451TIP3    H243549   2.660   7.547  12.267  0.6775  0.5311  0.3331
 6452TIP3   OH243550   2.996   1.489  10.301 -0.1109 -0.0805  0.6245
 6452TIP3    H143551   3.066   1.544  10.265 -0.7888 -0.2415 -1.0472
 6452TIP3    H243552   2.952   1.545  10.364  0.7068  0.4682  0.7258
 6453TIP3   OH243553   5.450   8.296  11.268 -0.0273  0.0665 -0.2036
 6453TIP3    H143554   5.457   8.344  11.186 -0.8899  0.4101 -0.0852
 6453TIP3    H243555   5.372   8.331  11.310 -0.4674 -1.1607  0.0653
 6454TIP3   OH243556   6.453   2.164  11.651 -0.4544  0.1644  0.2911
 6454TIP3    H143557   6.469   2.091  11.711  2.3006  0.3799 -0.0770
 6454TIP3    H243558   6.413   2.122  11.574  0.6060 -0.9102  0.2953
 6455TIP3   OH243559   0.923   7.787  11.063 -0.4458 -0.3439  0.5251
 6455TIP3    H143560   0.910   7.867  11.013  2.8603 -0.7872 -1.3262
 6455TIP3    H243561   0.944   7.816  11.151  2.9759  1.1331 -0.6141
 6456TIP3   OH243562   4.134   6.639  12.593 -0.5342  0.6361  0.5690
 6456TIP3    H143563   4.173   6.591  12.520  0.2095  0.6354  0.9492
 6456TIP3    H243564   4.052   6.674  12.559 -0.7106 -0.2647  0.0648
 6457TIP3   OH243565   2.146   0.636  10.659  0.5494  0.4191 -0.0027
 6457TIP3    H143566   2.054   0.645  10.635  0.3895 -1.5167 -0.2680
 6457TIP3    H243567   2.161   0.707  10.722 -0.9388  1.1410 -0.4029
 6458TIP3   OH243568   2.531   0.277  10.634 -0.3807 -0.2545 -0.0594
 6458TIP3    H143569   2.458   0.329  10.666 -1.1314 -1.4443  0.2525
 6458TIP3    H243570   2.594   0.276  10.707 -0.5649 -0.1447  0.1008
 6459TIP3   OH243571   7.557   7.311  11.628 -0.5683 -0.0919 -0.1033
 6459TIP3    H143572   7.599   7.236  11.670 -1.1869  0.3836  1.4606
 6459TIP3    H243573   7.536   7.281  11.540  1.4319 -0.9034 -0.3374
 6460TIP3   OH243574   7.216   7.913  12.136  0.5821 -0.2931 -0.2127
 6460TIP3    H143575   7.192   7.832  12.091 -1.4029  0.1809 -0.0985
 6460TIP3    H243576   7.176   7.905  12.223  0.6217  0.6561 -0.0940
 6461TIP3   OH243577   3.575   5.112  10.175 -0.2758  0.1498 -0.0839
 6461TIP3    H143578   3.582   5.142  10.084  2.0982  2.5723  0.7352
 6461TIP3    H243579   3.482   5.113  10.194 -0.7252  1.0028 -2.0757
 6462TIP3   OH243580   5.160   2.493  11.764  0.3144  0.4271  0.3080
 6462TIP3    H143581   5.167   2.552  11.689 -0.1627  0.1270  0.0183
 6462TIP3    H243582   5.247   2.453  11.772  0.3717  0.4755 -0.0695
 6463TIP3   OH243583   2.276   4.580  11.702 -0.0778  0.5435 -0.5179
 6463TIP3    H143584   2.183   4.581  11.723  0.2052  1.3517  0.8532
 6463TIP3    H243585   2.281   4.539  11.615 -1.5092 -1.2779  0.1971
 6464TIP3   OH243586   2.544   7.983  11.547  0.1550  0.5149  0.2635
 6464TIP3    H143587   2.470   8.033  11.514 -0.7687 -0.0779  1.3802
 6464TIP3    H243588   2.584   8.039  11.614  1.3824  1.2661 -1.0254
 6465TIP3   OH243589   6.020   0.574  11.828 -0.5764 -0.2601 -0.0687
 6465TIP3    H143590   5.951   0.545  11.769 -0.1206 -2.6081  0.4769
 6465TIP3    H243591   5.992   0.545  11.915  1.1038 -1.3807  0.1519
 6466TIP3   OH243592   5.736   4.436  10.272  0.6049 -0.8013 -0.2300
 6466TIP3    H143593   5.703   4.370  10.212  0.1350 -0.2513 -0.5824
 6466TIP3    H243594   5.705   4.408  10.358  1.1040 -1.4751 -0.2616
 6467TIP3   OH243595   6.105   8.067  10.744  0.2912  0.1164 -0.1496
 6467TIP3    H143596   6.197   8.071  10.771  0.5360  0.4866 -1.0040
 6467TIP3    H243597   6.056   8.058  10.826  1.1102 -0.4689  0.2924
 6468TIP3   OH243598   4.282   5.067  10.756  0.4035 -0.1225 -0.1008
 6468TIP3    H143599   4.255   5.123  10.683  0.9485 -0.1252 -0.3052
 6468TIP3    H243600   4.227   5.096  10.829  1.3227  1.3504  0.0635
 6469TIP3   OH243601   2.080   7.242  12.773  0.6605 -0.2849  1.0022
 6469TIP3    H143602   2.083   7.231  12.678 -1.1946  2.3369  0.5243
 6469TIP3    H243603   2.170   7.264  12.797  1.0475 -0.4093 -0.2370
 6470TIP3   OH243604   1.484   8.289  10.677 -0.3305 -0.6419  0.1100
 6470TIP3    H143605   1.476   8.225  10.606 -3.2582  1.0716 -1.2741
 6470TIP3    H243606   1.419   8.260  10.742  1.6755 -1.6615  1.7767
 6471TIP3   OH243607   4.267   4.587  11.125  0.0934 -0.1055 -0.0515
 6471TIP3    H143608   4.273   4.681  11.144 -1.6174 -0.2229  1.4148
 6471TIP3    H243609   4.251   4.583  11.031  0.2998  1.0628 -0.1581
 6472TIP3   OH243610   0.631   4.138  12.537  0.4599 -0.2276  0.6189
 6472TIP3    H143611   0.608   4.124  12.629 -0.4256  0.6172  0.5452
 6472TIP3    H243612   0.550   4.168  12.497  0.6899 -1.1199 -0.5719
 6473TIP3   OH243613   2.570   1.863  11.811  0.1281  0.3413  0.4696
 6473TIP3    H143614   2.657   1.881  11.774 -0.2690  0.3169 -0.5085
 6473TIP3    H243615   2.565   1.920  11.888 -0.1476  2.6850 -1.1709
 6474TIP3   OH243616   3.873   7.773  12.750  0.0333  0.3614 -0.0540
 6474TIP3    H143617   3.948   7.716  12.732  0.4921  0.6370  0.9488
 6474TIP3    H243618   3.902   7.861  12.724 -0.0391  0.4282  0.0896
 6475TIP3   OH243619   8.139   7.505  11.154  0.0509 -0.6385  0.6074
 6475TIP3    H143620   8.086   7.464  11.221  0.9332 -1.8249  0.6151
 6475TIP3    H243621   8.077   7.547  11.095 -0.8226 -1.1894  1.1288
 6476TIP3   OH243622   4.766   7.215  11.833 -0.0200  0.3017 -0.5449
 6476TIP3    H143623   4.740   7.236  11.922 -0.3312 -0.8855 -0.3353
 6476TIP3    H243624   4.816   7.291  11.803  3.2817 -0.6697  1.9058
 6477TIP3   OH243625   7.213   4.391  11.898 -0.3301  0.7371 -0.0379
 6477TIP3    H143626   7.271   4.320  11.925 -1.9377  0.0653  1.8958
 6477TIP3    H243627   7.127   4.366  11.932 -0.9427  3.6579  0.8465
 6478TIP3   OH243628   2.145   0.981  12.453  0.2019 -0.2146 -0.4117
 6478TIP3    H143629   2.053   0.959  12.441  0.0802 -0.8120  1.3415
 6478TIP3    H243630   2.144   1.057  12.511  0.8249 -0.8907  0.5071
 6479TIP3   OH243631   4.705   3.861  11.184 -0.2986  0.4377 -0.1825
 6479TIP3    H143632   4.699   3.785  11.242  1.1281  0.1510 -0.3714
 6479TIP3    H243633   4.798   3.886  11.187 -0.0466  0.0985 -2.7191
 6480TIP3   OH243634   3.607   3.590  10.854  0.1981 -0.7047  0.4146
 6480TIP3    H143635   3.571   3.671  10.817  0.1267 -0.8684  0.1248
 6480TIP3    H243636   3.544   3.566  10.922  0.6733 -0.0460  1.1055
 6481TIP3   OH243637   8.022   5.539  12.345  0.1846  0.4291  0.4170
 6481TIP3    H143638   7.944   5.537  12.402 -2.0210 -0.2648 -2.4029
 6481TIP3    H243639   8.060   5.452  12.353  0.0288  0.4105  0.9819
 6482TIP3   OH243640   2.260   4.847  12.525  0.4213 -0.3377  0.0714
 6482TIP3    H143641   2.333   4.896  12.562 -1.3320  1.1716  1.7439
 6482TIP3    H243642   2.184   4.874  12.576 -1.6666 -0.5189 -2.6796
 6483TIP3   OH243643   5.320   8.053  11.344 -0.7561 -0.1013  0.4847
 6483TIP3    H143644   5.345   8.143  11.324  0.3145  0.0587  2.3324
 6483TIP3    H243645   5.352   8.002  11.270 -3.2920  1.2133 -1.7024
 6484TIP3   OH243646   3.761   4.438  11.506  0.7837  0.6420 -0.8124
 6484TIP3    H143647   3.808   4.376  11.562 -0.0072  0.3668 -0.4419
 6484TIP3    H243648   3.808   4.436  11.423 -0.5378 -2.2105 -1.6187
 6485TIP3   OH243649   6.894   2.735  11.049  0.3765 -0.9526 -0.0354
 6485TIP3    H143650   6.807   2.767  11.028  0.6852 -0.4441 -0.5864
 6485TIP3    H243651   6.880   2.664  11.112 -0.4968 -1.5198 -0.8475
 6486TIP3   OH243652   1.645   7.787  10.608 -0.4728  0.1698 -0.3765
 6486TIP3    H143653   1.720   7.790  10.549 -1.0324  0.9099 -1.0845
 6486TIP3    H243654   1.630   7.879  10.633 -1.6350  0.1527 -0.9247
 6487TIP3   OH243655   6.872   1.438  11.852  0.4642 -0.4473 -0.2497
 6487TIP3    H143656   6.957   1.394  11.847  0.1958 -0.8736 -1.1627
 6487TIP3    H243657   6.833   1.406  11.933  0.8502 -0.8412 -0.2179
 6488TIP3   OH243658   0.884   3.291  12.540 -0.3156 -0.1954  0.1324
 6488TIP3    H143659   0.979   3.300  12.531 -0.2247 -1.4568 -0.3051
 6488TIP3    H243660   0.860   3.358  12.604  1.2088 -1.4702  2.1520
 6489TIP3   OH243661   8.194   1.622  10.979  0.1168  0.6695 -0.0578
 6489TIP3    H143662   8.198   1.527  10.970  0.0437  0.6052  0.5266
 6489TIP3    H243663   8.116   1.648  10.930 -1.8652  0.0378  2.5065
 6490TIP3   OH243664   0.746   5.940  12.578  0.6627  0.2137  0.3211
 6490TIP3    H143665   0.812   6.008  12.565  0.4801  0.6785  1.6994
 6490TIP3    H243666   0.663   5.988  12.587 -0.2930 -0.4224 -3.3768
 6491TIP3   OH243667   3.332   0.364  12.647 -0.0831 -0.3303  0.7214
 6491TIP3    H143668   3.336   0.268  12.647 -1.1139 -0.3935 -0.8372
 6491TIP3    H243669   3.409   0.391  12.597 -0.7260 -0.4187 -0.3357
 6492TIP3   OH243670   1.076   7.670  12.428 -1.0621 -0.0086  0.4800
 6492TIP3    H143671   1.126   7.596  12.394 -2.2802 -0.5510 -0.1960
 6492TIP3    H243672   1.046   7.640  12.514 -0.6698  0.1241  0.6675
 6493TIP3   OH243673   4.168   1.729  12.441  0.1706 -0.4162  0.0538
 6493TIP3    H143674   4.094   1.686  12.398  0.6208 -1.4648  0.2790
 6493TIP3    H243675   4.229   1.657  12.459  1.2452  0.4214 -0.1356
 6494TIP3   OH243676   7.617   6.088  11.363 -0.0090  0.0860  0.2588
 6494TIP3    H143677   7.523   6.084  11.346  0.0499 -0.6455  0.0340
 6494TIP3    H243678   7.651   6.148  11.296 -0.3018  0.2729  0.2769
 6495TIP3   OH243679   8.137   7.482  12.128 -0.0583  0.1635 -0.3059
 6495TIP3    H143680   8.184   7.525  12.200 -1.3256 -1.6036  1.7199
 6495TIP3    H243681   8.205   7.444  12.074  0.9275  0.1189  0.9213
 6496TIP3   OH243682   2.113   3.345  10.432 -0.1503 -0.3627  0.1314
 6496TIP3    H143683   2.101   3.437  10.455 -0.8467 -0.3105 -0.4004
 6496TIP3    H243684   2.024   3.312  10.419  0.1581 -0.5116 -1.9224
 6497TIP3   OH243685   1.137   6.205  11.062 -0.4590 -0.1257 -0.4234
 6497TIP3    H143686   1.104   6.214  11.152  0.0241 -3.8566  0.2883
 6497TIP3    H243687   1.226   6.240  11.066  0.6101 -2.7257  1.4372
 6498TIP3   OH243688   4.686   1.920  11.672  0.1132  0.5270  0.6957
 6498TIP3    H143689   4.681   1.827  11.694 -1.2027  0.2547 -0.6383
 6498TIP3    H243690   4.637   1.963  11.742 -1.5122 -0.0593 -0.0304
 6499TIP3   OH243691   7.635   3.256  11.146 -0.0118 -0.2689 -0.2674
 6499TIP3    H143692   7.617   3.172  11.188  0.6085  0.1151  0.7905
 6499TIP3    H243693   7.597   3.247  11.058 -0.5333 -1.4075  0.0556
 6500TIP3   OH243694   5.106   0.307  11.927 -0.2598  0.0011  0.0266
 6500TIP3    H143695   5.162   0.293  12.003  0.3102  2.5117  0.1716
 6500TIP3    H243696   5.166   0.326  11.855 -0.8341  1.7153 -0.0537
 6501TIP3   OH243697   7.022   4.475  11.391 -0.3083  0.1168  0.0854
 6501TIP3    H143698   7.060   4.481  11.479 -0.6604 -0.7297  0.3150
 6501TIP3    H243699   6.939   4.522  11.398  0.4032  1.4670 -0.2583
 6502TIP3   OH243700   0.415   1.755  10.514  0.5583  0.3545  0.1439
 6502TIP3    H143701   0.376   1.713  10.590  0.3218  0.1371 -0.0964
 6502TIP3    H243702   0.415   1.688  10.446  0.1452  0.7452 -0.2529
 6503TIP3   OH243703   2.816   7.437  10.892 -0.0746 -0.4112  0.3130
 6503TIP3    H143704   2.864   7.369  10.939  0.3957 -0.1704  0.1795
 6503TIP3    H243705   2.724   7.413  10.905  0.0609 -0.6251  0.9391
 6504TIP3   OH243706   6.629   0.286  11.162 -0.4508 -0.1507  0.4138
 6504TIP3    H143707   6.641   0.211  11.103 -1.1399  0.4583 -0.5352
 6504TIP3    H243708   6.714   0.329  11.164 -0.6522  0.3570 -0.9201
 6505TIP3   OH243709   4.946   1.770  10.989  0.4832  0.3660 -0.1323
 6505TIP3    H143710   5.037   1.769  11.018  0.0229 -1.1004  1.3759
 6505TIP3    H243711   4.940   1.700  10.924  0.2384 -0.1182  0.4094
 6506TIP3   OH243712   0.660   7.004  12.572 -0.3965  0.1419 -0.2588
 6506TIP3    H143713   0.745   6.962  12.557 -0.0066  0.3652  1.1712
 6506TIP3    H243714   0.664   7.084  12.521  0.5693  0.5112  0.3659
 6507TIP3   OH243715   5.687   4.504  11.286  0.5423  0.2914 -0.1242
 6507TIP3    H143716   5.707   4.581  11.234 -0.4026  0.3817 -0.3776
 6507TIP3    H243717   5.608   4.528  11.335  0.5524 -0.3195  0.2041
 6508TIP3   OH243718   7.618   7.758  12.568 -0.3818  0.3510 -0.2052
 6508TIP3    H143719   7.611   7.853  12.557  2.0459  0.3837 -2.5572
 6508TIP3    H243720   7.700   7.746  12.615  0.3850 -0.5973 -1.7229
 6509TIP3   OH243721   3.099   1.911  11.037  0.2545 -0.2963 -0.1351
 6509TIP3    H143722   3.180   1.953  11.063  0.3459  1.4300 -2.8515
 6509TIP3    H243723   3.041   1.922  11.113  1.7258  0.7029  0.9030
 6510TIP3   OH243724   3.359   1.623  12.438 -0.2278  0.4170  0.0644
 6510TIP3    H143725   3.313   1.595  12.359  0.1910 -1.4449  0.4330
 6510TIP3    H243726   3.431   1.678  12.406 -0.9436  0.9297 -0.7057
 6511TIP3   OH243727   1.887   3.527  10.731 -0.3808 -0.5060 -0.2580
 6511TIP3    H143728   1.973   3.513  10.769 -0.6614 -1.4690  0.0755
 6511TIP3    H243729   1.835   3.564  10.803 -0.5846 -1.1634 -0.0600
 6512TIP3   OH243730   4.916   7.153  11.409  0.5504 -0.2289 -0.1690
 6512TIP3    H143731   4.835   7.105  11.427  1.5645 -1.2778  1.9888
 6512TIP3    H243732   4.888   7.230  11.358 -1.9021 -0.1664  1.1304
 6513TIP3   OH243733   5.055   4.768  11.385 -0.4492 -0.4358 -0.3141
 6513TIP3    H143734   5.100   4.776  11.301  1.5606 -0.9276  0.6394
 6513TIP3    H243735   4.966   4.742  11.362 -0.7639  2.1186 -2.3721
 6514TIP3   OH243736   3.379   0.186  10.531  0.2172  0.7275 -0.1675
 6514TIP3    H143737   3.442   0.212  10.598 -0.1721  0.3983  0.3383
 6514TIP3    H243738   3.426   0.123  10.476  1.1751  2.4813 -1.4203
 6515TIP3   OH243739   3.215   7.904  10.533 -0.4246  0.3399  0.0603
 6515TIP3    H143740   3.233   7.938  10.620 -1.4453  0.5249  0.2162
 6515TIP3    H243741   3.149   7.964  10.497 -1.8077 -1.0772  0.0956
 6516TIP3   OH243742   3.784   6.848  11.101  0.4846 -0.5618  0.0831
 6516TIP3    H143743   3.762   6.834  11.009  0.4892  1.1499 -0.2077
 6516TIP3    H243744   3.702   6.878  11.141  0.8891  0.3799  0.2359
 6517TIP3   OH243745   1.293   0.093  10.984  0.2817 -0.6012  0.1581
 6517TIP3    H143746   1.385   0.115  10.969  0.5992 -0.2523  2.2601
 6517TIP3    H243747   1.296   0.004  11.019 -0.0982 -0.3692  0.8056
 6518TIP3   OH243748   3.683   6.057  12.842  0.4946 -0.4055  0.4140
 6518TIP3    H143749   3.740   6.111  12.897 -0.4528 -0.5592  1.5859
 6518TIP3    H243750   3.618   6.118  12.808  0.5106 -0.4887  0.2323
 6519TIP3   OH243751   4.503   4.430  12.539 -0.2732 -0.4190 -0.6358
 6519TIP3    H143752   4.461   4.395  12.618 -1.2782  4.3102  1.2548
 6519TIP3    H243753   4.441   4.411  12.469 -1.0764 -1.6611  0.3567
 6520TIP3   OH243754   0.823   6.120  11.307 -0.2339 -0.6588  0.3374
 6520TIP3    H143755   0.742   6.152  11.346 -0.5290 -0.8082 -0.1396
 6520TIP3    H243756   0.884   6.193  11.313 -1.4479  0.7337 -2.4101
 6521TIP3   OH243757   5.610   5.107  12.274 -0.2087  0.4505 -0.2563
 6521TIP3    H143758   5.530   5.078  12.318 -0.6207  0.3309 -1.0716
 6521TIP3    H243759   5.669   5.131  12.346 -2.0656  3.6701  0.3647
 6522TIP3   OH243760   3.743   8.001  11.400  0.4333  0.4880 -0.7378
 6522TIP3    H143761   3.656   8.012  11.438 -0.2704 -0.2793 -2.0875
 6522TIP3    H243762   3.789   8.082  11.423 -0.3313  0.5511  0.7222
 6523TIP3   OH243763   2.845   7.198  11.609 -0.1257  0.2113 -0.9168
 6523TIP3    H143764   2.903   7.133  11.570  0.0474 -0.1730 -0.0381
 6523TIP3    H243765   2.894   7.280  11.602 -0.5506  0.3593 -2.4760
 6524TIP3   OH243766   1.738   2.697  11.367 -1.0861  0.2590 -0.2654
 6524TIP3    H143767   1.726   2.782  11.410 -1.2086  0.4973 -0.7686
 6524TIP3    H243768   1.730   2.716  11.274 -0.6121 -0.2270 -0.4057
 6525TIP3   OH243769   0.359   7.928  11.377 -0.2464 -0.2655  0.4341
 6525TIP3    H143770   0.297   7.944  11.447  1.8250 -0.8236  2.5218
 6525TIP3    H243771   0.367   7.833  11.372  0.1904 -0.2110 -0.0393
 6526TIP3   OH243772   8.096   0.601  12.845  0.2055 -0.0052 -0.0263
 6526TIP3    H143773   8.067   0.686  12.877 -1.1203 -0.8838  1.2755
 6526TIP3    H243774   8.150   0.566  12.916 -0.7578 -0.9754  0.2576
 6527TIP3   OH243775   4.337   5.025  12.189  0.1701 -0.0152  0.2710
 6527TIP3    H143776   4.274   5.054  12.255 -1.1102  0.4283 -1.0923
 6527TIP3    H243777   4.373   4.944  12.226 -2.7518 -1.4963  0.2462
 6528TIP3   OH243778   1.041   4.866  12.133 -0.3369 -0.2462 -0.6914
 6528TIP3    H143779   1.028   4.954  12.169  1.6565 -0.2793  0.2443
 6528TIP3    H243780   1.010   4.807  12.201  1.8475 -0.2740  0.3801
 6529TIP3   OH243781   2.683   8.317  11.482 -0.7713 -0.4638 -0.0814
 6529TIP3    H143782   2.713   8.280  11.400  2.1817 -1.3991  1.2735
 6529TIP3    H243783   2.627   8.391  11.457 -1.7848 -2.0405 -2.8503
 6530TIP3   OH243784   8.289   2.407  11.531 -0.2850 -0.5280  0.5250
 6530TIP3    H143785   8.253   2.372  11.612 -1.3668 -3.2891 -1.0205
 6530TIP3    H243786   8.352   2.341  11.502  0.6779  0.7850 -0.5065
 6531TIP3   OH243787   4.946   4.277  10.960  0.0261 -0.0094 -0.7162
 6531TIP3    H143788   5.039   4.269  10.940  0.4697  1.6691  0.4630
 6531TIP3    H243789   4.906   4.200  10.920  1.7432 -0.1564 -2.2687
 6532TIP3   OH243790   3.739   7.262  10.751  0.2079 -0.3793  0.2301
 6532TIP3    H143791   3.785   7.338  10.715 -0.0341  0.5512  1.8160
 6532TIP3    H243792   3.810   7.201  10.773  0.4318 -0.4503 -0.6227
 6533TIP3   OH243793   2.708   4.423  11.724  0.4272 -0.5955  0.3088
 6533TIP3    H143794   2.775   4.480  11.685 -0.8286  1.0408  0.4350
 6533TIP3    H243795   2.749   4.337  11.728  1.8272 -0.0684 -1.4179
 6534TIP3   OH243796   6.441   1.150  10.509  0.0589 -0.1964 -1.0457
 6534TIP3    H143797   6.517   1.095  10.529  0.2837  0.3107 -0.4745
 6534TIP3    H243798   6.478   1.237  10.493 -0.5068  0.5338  1.1564
 6535TIP3   OH243799   0.546   5.550  11.397  0.1775  0.3044 -0.5641
 6535TIP3    H143800   0.484   5.521  11.330 -0.9033  0.9720  0.1086
 6535TIP3    H243801   0.546   5.645  11.390 -1.3938  0.5406  1.5388
 6536TIP3   OH243802   1.301   0.777  12.287 -0.7478  0.3160  0.4669
 6536TIP3    H143803   1.315   0.846  12.352  0.5345  1.2335 -0.7428
 6536TIP3    H243804   1.389   0.750  12.260 -1.2355  0.4061 -1.3378
 6537TIP3   OH243805   5.899   7.883  12.398 -0.4626 -0.0309  0.3491
 6537TIP3    H143806   5.907   7.839  12.314 -0.0988 -0.3375  0.5409
 6537TIP3    H243807   5.807   7.874  12.422 -0.8748  1.2725 -0.6682
 6538TIP3   OH243808   3.309   7.785  10.910  0.7991 -0.1092 -0.1897
 6538TIP3    H143809   3.312   7.816  11.000 -0.5477  1.7142 -0.7114
 6538TIP3    H243810   3.238   7.721  10.909  0.5402  0.1744 -0.0311
 6539TIP3   OH243811   0.648   2.446  11.603  0.0436  0.4334  0.2786
 6539TIP3    H143812   0.714   2.516  11.611  0.1849  0.1646  1.7011
 6539TIP3    H243813   0.611   2.439  11.690 -0.0742 -1.1790  0.1176
 6540TIP3   OH243814   2.248   1.724  11.958  0.5177 -0.4407 -0.5771
 6540TIP3    H143815   2.198   1.642  11.955  1.4832 -1.0739  0.1181
 6540TIP3    H243816   2.233   1.758  12.046 -0.9779  0.8851 -1.2671
 6541TIP3   OH243817   6.704   4.167  10.778 -0.2383  0.7354  0.0670
 6541TIP3    H143818   6.773   4.113  10.742 -1.8243 -0.1676 -1.7938
 6541TIP3    H243819   6.701   4.144  10.871  0.6939 -0.5980 -0.2161
 6542TIP3   OH243820   7.897   4.212  11.603 -0.7420  0.3372 -0.2953
 6542TIP3    H143821   7.862   4.183  11.519 -2.2229  0.6068  0.2096
 6542TIP3    H243822   7.914   4.306  11.590 -1.5794  0.5169 -0.0959
 6543TIP3   OH243823   2.397   4.027  12.570 -0.3049  0.1123  0.0813
 6543TIP3    H143824   2.474   4.084  12.565  0.3057 -0.5780  1.3404
 6543TIP3    H243825   2.351   4.056  12.648 -0.4987 -0.4946  0.1944
 6544TIP3   OH243826   1.978   7.339  11.366  0.4294  0.4273 -0.3809
 6544TIP3    H143827   1.949   7.329  11.276 -0.2861  1.5414 -0.2990
 6544TIP3    H243828   2.057   7.393  11.361  1.0764 -0.4987 -0.4138
 6545TIP3   OH243829   4.441   1.241  12.889  0.1144 -0.6927 -0.2928
 6545TIP3    H143830   4.419   1.173  12.825 -1.9119 -0.9473  0.5958
 6545TIP3    H243831   4.466   1.316  12.835  0.4955 -1.5247 -1.3257
 6546TIP3   OH243832   2.301   8.081  12.325  0.6822 -0.1755 -0.5699
 6546TIP3    H143833   2.247   8.109  12.398  1.0573  0.4916 -0.5459
 6546TIP3    H243834   2.388   8.067  12.363  0.5772 -1.0886 -0.6399
 6547TIP3   OH243835   7.102   8.171  10.327  0.2430 -0.5880 -0.7314
 6547TIP3    H143836   7.041   8.245  10.321 -1.1088 -1.5677  0.2619
 6547TIP3    H243837   7.070   8.120  10.402  0.6221 -2.6456 -1.9074
 6548TIP3   OH243838   3.343   0.135  10.966 -0.0987 -0.2928 -0.3437
 6548TIP3    H143839   3.337   0.226  10.995 -1.6998  0.0432 -1.6310
 6548TIP3    H243840   3.437   0.119  10.958  0.3710  0.2896  2.6779
 6549TIP3   OH243841   4.824   2.631  10.994 -0.0572 -0.2753  0.2015
 6549TIP3    H143842   4.893   2.566  11.009  1.1274  0.5995 -1.1900
 6549TIP3    H243843   4.855   2.710  11.037 -2.0366 -0.8257  2.9118
 6550TIP3   OH243844   2.805   3.243  10.732  0.0452 -0.1002 -0.5788
 6550TIP3    H143845   2.853   3.209  10.808  1.5976  0.6967 -1.1664
 6550TIP3    H243846   2.756   3.318  10.767  0.6461  0.1803 -0.3179
 6551TIP3   OH243847   6.369   7.717  10.306  0.4581  0.1619 -0.2316
 6551TIP3    H143848   6.393   7.809  10.306 -0.8267  0.6013  2.0652
 6551TIP3    H243849   6.277   7.716  10.277  0.0583 -0.1882  0.9567
 6552TIP3   OH243850   3.438   5.328  11.301 -0.3415 -0.1881 -0.0800
 6552TIP3    H143851   3.375   5.388  11.340  0.1504  0.6187 -0.5049
 6552TIP3    H243852   3.468   5.274  11.374 -0.6893  0.1684  0.3292
 6553TIP3   OH243853   8.219   5.099  11.910  0.3870  0.2763  0.2547
 6553TIP3    H143854   8.246   5.190  11.914  2.4811 -0.3231  1.8001
 6553TIP3    H243855   8.260   5.059  11.987  1.3433 -2.4111 -1.5221
 6554TIP3   OH243856   2.833   2.468  10.644 -0.0924 -0.1007  0.3670
 6554TIP3    H143857   2.864   2.409  10.576 -0.1599 -0.4396  0.6301
 6554TIP3    H243858   2.781   2.534  10.598 -1.0612 -0.9544  0.2191
 6555TIP3   OH243859   0.624   8.367  11.853  0.2977  0.1189 -0.5566
 6555TIP3    H143860   0.550   8.307  11.862 -1.5158  1.5457 -4.0186
 6555TIP3    H243861   0.591   8.450  11.887  0.9054  0.3736 -0.5818
 6556TIP3   OH243862   3.922   3.040  11.133  0.3074 -0.0720 -0.4287
 6556TIP3    H143863   3.863   3.101  11.178 -0.7514  0.0192 -1.8893
 6556TIP3    H243864   3.965   3.092  11.065  0.3446 -0.6650 -0.8707
 6557TIP3   OH243865   3.659   4.676  11.586 -0.1009  0.3597 -0.5699
 6557TIP3    H143866   3.589   4.692  11.523  1.6276 -0.6191 -2.8917
 6557TIP3    H243867   3.695   4.591  11.560  0.0053 -0.6539  2.5016
 6558TIP3   OH243868   4.332   7.567  12.428  0.1028  0.8469 -0.0607
 6558TIP3    H143869   4.345   7.649  12.476  1.1735  1.5635 -1.4834
 6558TIP3    H243870   4.342   7.499  12.494 -1.2301  1.8466  1.2405
 6559TIP3   OH243871   5.869   6.903  11.301  0.1456  0.3425 -0.2259
 6559TIP3    H143872   5.925   6.826  11.295  0.6447  0.7734 -1.4096
 6559TIP3    H243873   5.780   6.869  11.297  0.3530 -0.2192 -0.1113
 6560TIP3   OH243874   7.341   4.208  11.147  0.9532  0.5990  0.3325
 6560TIP3    H143875   7.391   4.193  11.227  1.1606 -0.5858 -0.0048
 6560TIP3    H243876   7.339   4.123  11.104  0.6601  1.1779 -0.8213
 6561TIP3   OH243877   5.013   8.433  10.995 -0.6014 -0.3954 -0.1248
 6561TIP3    H143878   5.045   8.485  11.069  3.8363 -2.0183 -0.5563
 6561TIP3    H243879   5.000   8.497  10.925 -1.7650  0.7852  1.1050
 6562TIP3   OH243880   4.012   7.842  10.810 -0.5965  0.0091  0.7083
 6562TIP3    H143881   4.000   7.842  10.715  2.3754  1.0742  0.2431
 6562TIP3    H243882   3.951   7.909  10.842 -1.5069 -0.2456 -0.4246
 6563TIP3   OH243883   3.948   6.072  11.750  0.1453  0.3202  0.0351
 6563TIP3    H143884   4.029   6.021  11.748 -0.0344  0.0398 -0.0944
 6563TIP3    H243885   3.880   6.009  11.776 -0.1624  0.3673 -0.6272
 6564TIP3   OH243886   2.075   7.106  11.870 -0.3920  0.6166  0.2447
 6564TIP3    H143887   2.124   7.067  11.943  1.5016 -0.0480 -1.2935
 6564TIP3    H243888   2.096   7.050  11.795  0.2679  3.0341 -1.4968
 6565TIP3   OH243889   1.273   2.719  11.322 -0.2402 -0.3710  0.3081
 6565TIP3    H143890   1.208   2.785  11.346  0.9383  0.6698  0.7350
 6565TIP3    H243891   1.288   2.733  11.228  0.1399  0.1027  0.4357
 6566TIP3   OH243892   6.925   1.887  10.669 -0.7056  0.5250  0.0609
 6566TIP3    H143893   6.989   1.925  10.609 -1.0868  2.4179  0.7842
 6566TIP3    H243894   6.977   1.859  10.745 -0.1044 -2.6219 -1.3508
 6567TIP3   OH243895   6.504   2.544  10.632 -0.2360  0.0151  0.8169
 6567TIP3    H143896   6.459   2.459  10.636  2.2012 -1.3628  1.0992
 6567TIP3    H243897   6.551   2.550  10.715 -1.5267  2.3968  1.4426
 6568TIP3   OH243898   4.685   3.679  11.912  0.4439  0.0178  0.5708
 6568TIP3    H143899   4.642   3.710  11.832 -0.6818 -1.6613  0.4800
 6568TIP3    H243900   4.775   3.712  11.905  0.2524  0.2604 -1.1838
 6569TIP3   OH243901   2.734   5.193  10.852 -0.0113  0.0031 -0.5421
 6569TIP3    H143902   2.804   5.170  10.791  1.2268  0.8656  0.4958
 6569TIP3    H243903   2.729   5.118  10.912  0.8905  0.4718  0.1262
 6570TIP3   OH243904   2.131   6.076  11.279 -0.6311  0.2574 -0.0458
 6570TIP3    H143905   2.177   6.016  11.220 -2.0580 -0.5113 -0.4251
 6570TIP3    H243906   2.141   6.036  11.366 -0.9604 -0.1609 -0.1940
 6571TIP3   OH243907   8.078   7.072  11.998  0.4366 -0.9774  0.5265
 6571TIP3    H143908   8.050   7.003  12.058  0.4750 -0.4847  1.1211
 6571TIP3    H243909   8.062   7.154  12.046  0.2788 -0.5656 -0.2101
 6572TIP3   OH243910   3.339   4.028  10.643  0.1425  0.1860 -0.0047
 6572TIP3    H143911   3.280   4.057  10.713  1.2710  0.5877  0.8141
 6572TIP3    H243912   3.385   4.108  10.617  1.0706 -0.3007  0.1035
 6573TIP3   OH243913   4.052   2.514  11.096  0.4402  1.1434  0.3929
 6573TIP3    H143914   4.079   2.516  11.005  0.1015 -0.4789  0.2281
 6573TIP3    H243915   4.010   2.598  11.111 -0.6193  0.9496 -1.2997
 6574TIP3   OH243916   0.757   0.716  12.070  0.3205 -0.1933  0.1698
 6574TIP3    H143917   0.677   0.669  12.047 -0.7817  0.4684  2.3229
 6574TIP3    H243918   0.814   0.649  12.108 -0.6759 -0.1378  1.8940
 6575TIP3   OH243919   6.381   1.887  10.647  0.3040 -0.2999  0.2512
 6575TIP3    H143920   6.433   1.949  10.699  0.1732  0.0207 -0.0023
 6575TIP3    H243921   6.294   1.927  10.642  0.2777 -0.4002 -0.0916
 6576TIP3   OH243922   0.319   6.200  10.986  0.8566 -0.3137 -0.0049
 6576TIP3    H143923   0.231   6.208  11.022  0.6447  0.2387 -0.6272
 6576TIP3    H243924   0.338   6.106  10.990  0.3100 -0.4171  0.2792
 6577TIP3   OH243925   5.033   0.437  10.832 -0.1776 -0.1674  0.2177
 6577TIP3    H143926   5.012   0.518  10.785 -1.3019 -0.7084 -0.2448
 6577TIP3    H243927   5.123   0.417  10.806 -0.4219  0.1045 -0.8828
 6578TIP3   OH243928   0.000   3.883  10.794 -0.3790  0.2668  0.0073
 6578TIP3    H143929   0.026   3.800  10.834  0.6595  1.6066  2.3015
 6578TIP3    H243930   0.073   3.906  10.736 -0.8607 -0.5818 -0.9655
 6579TIP3   OH243931   0.567   1.146  11.415  0.2224 -0.0404  0.3300
 6579TIP3    H143932   0.539   1.179  11.500 -1.1540  0.7394 -0.3885
 6579TIP3    H243933   0.540   1.054  11.415  1.3402 -0.3787  1.1917
 6580TIP3   OH243934   5.284   2.949  11.501 -0.4128  0.1854  0.0124
 6580TIP3    H143935   5.297   3.035  11.540  0.0419  0.9385 -1.6841
 6580TIP3    H243936   5.304   2.887  11.571 -0.8061  1.4417  1.2883
 6581TIP3   OH243937   1.601   3.175  12.515 -0.3084  0.1411  0.6459
 6581TIP3    H143938   1.525   3.186  12.458  0.1095 -0.4193 -0.0319
 6581TIP3    H243939   1.563   3.158  12.602 -0.9652 -0.3325  0.2805
 6582TIP3   OH243940   7.108   1.795  11.219 -0.2320 -0.0402 -0.6252
 6582TIP3    H143941   7.034   1.759  11.269  0.6151  0.6339  1.1745
 6582TIP3    H243942   7.165   1.720  11.204 -1.0112 -0.4662 -1.5975
 6583TIP3   OH243943   5.383   2.538  10.906 -0.1004  0.2861  0.7721
 6583TIP3    H143944   5.463   2.495  10.874 -0.4310  0.6183 -0.5759
 6583TIP3    H243945   5.370   2.611  10.846 -0.1123  1.7052  2.4099
 6584TIP3   OH243946   2.826   4.938  10.971 -0.1905  0.0081  0.4274
 6584TIP3    H143947   2.773   4.875  10.923  2.1565  0.5961 -3.3414
 6584TIP3    H243948   2.856   4.890  11.049 -2.0626 -1.9400  0.0297
 6585TIP3   OH243949   2.332   7.750  11.419 -0.3503  0.5405  0.0022
 6585TIP3    H143950   2.274   7.802  11.363  0.5479 -0.8285 -2.3647
 6585TIP3    H243951   2.418   7.760  11.379  0.5680  0.3786  1.8536
 6586TIP3   OH243952   2.410   5.083  11.102 -0.1068 -0.0953 -0.0818
 6586TIP3    H143953   2.393   5.110  11.011 -0.5277 -0.0542  0.0079
 6586TIP3    H243954   2.398   4.988  11.101 -1.0273  0.0041  0.1217
 6587TIP3   OH243955   4.214   7.178  11.193 -0.3516 -0.0044  0.2834
 6587TIP3    H143956   4.214   7.272  11.176 -0.8630  0.1771  1.1740
 6587TIP3    H243957   4.143   7.166  11.256 -0.8514 -1.1181 -0.4683
 6588TIP3   OH243958   6.736   5.595  12.761 -0.2175  0.2244  0.1465
 6588TIP3    H143959   6.680   5.524  12.729 -2.4122  0.8558  2.3187
 6588TIP3    H243960   6.701   5.673  12.719  0.6786  0.3654 -0.3800
 6589TIP3   OH243961   3.965   5.599  12.615  0.7043 -0.8462  0.4670
 6589TIP3    H143962   3.950   5.510  12.649 -0.3812 -0.8100  0.1194
 6589TIP3    H243963   3.976   5.587  12.521 -3.7012 -0.3046 -0.3453
 6590TIP3   OH243964   1.958   4.081  12.259  0.0235 -0.2762 -0.5522
 6590TIP3    H143965   2.035   4.058  12.312  0.9207  0.8172 -1.3326
 6590TIP3    H243966   1.991   4.083  12.169 -0.2646  2.7307 -0.6816
 6591TIP3   OH243967   1.734   5.289  11.519 -0.2143 -0.3659 -0.1784
 6591TIP3    H143968   1.653   5.340  11.517  0.4222  0.7068  0.0726
 6591TIP3    H243969   1.760   5.290  11.611 -1.0834 -2.6765  0.1543
 6592TIP3   OH243970   1.893   0.327  11.324 -0.2223 -0.4062  0.0053
 6592TIP3    H143971   1.954   0.345  11.253  0.5565 -0.3783  0.6658
 6592TIP3    H243972   1.832   0.401  11.324  0.8226  0.4693  0.4681
 6593TIP3   OH243973   2.924   6.414  11.578  0.0530 -0.1600  0.1234
 6593TIP3    H143974   2.947   6.327  11.547 -1.3634 -0.3769 -0.3866
 6593TIP3    H243975   2.828   6.417  11.573  0.1211  1.7246 -0.6971
 6594TIP3   OH243976   1.063   6.018  11.550 -0.5863 -0.7877 -0.1843
 6594TIP3    H143977   1.100   5.984  11.469 -1.0598 -0.1658 -0.6718
 6594TIP3    H243978   1.102   5.964  11.619 -0.5253 -1.6154 -0.8529
 6595TIP3   OH243979   2.902   3.981  10.878  0.3581  0.0328  0.4204
 6595TIP3    H143980   2.825   3.931  10.851  0.1448  0.2577  0.6059
 6595TIP3    H243981   2.891   3.993  10.973  1.3242 -1.1385  0.7091
 6596TIP3   OH243982   0.459   4.100  10.963 -0.2152 -0.2325 -0.0948
 6596TIP3    H143983   0.403   4.148  11.025  2.4509 -0.0280  2.4006
 6596TIP3    H243984   0.466   4.012  10.999  0.4898 -0.4475 -0.7124
 6597TIP3   OH243985   0.889   6.544  11.992 -0.1379 -0.2078 -0.0487
 6597TIP3    H143986   0.902   6.587  11.908 -0.4503 -0.7104 -0.3578
 6597TIP3    H243987   0.971   6.498  12.009 -0.0272  0.0018 -0.0118
 6598TIP3   OH243988   2.597   7.080  11.560  0.4957  0.3238  0.0103
 6598TIP3    H143989   2.574   7.044  11.474  0.6409 -0.2488  0.2074
 6598TIP3    H243990   2.689   7.105  11.551  0.8909 -0.9196  0.3746
 6599TIP3   OH243991   0.488   6.970  11.758  0.3524 -0.3218  0.1434
 6599TIP3    H143992   0.403   7.010  11.738  1.3417  1.2430 -1.2984
 6599TIP3    H243993   0.470   6.877  11.769 -1.5606  0.0035  0.0188
 6600TIP3   OH243994   6.344   8.087  10.877  0.6512 -0.3245 -0.0573
 6600TIP3    H143995   6.309   8.079  10.965  0.5819 -4.0702 -0.2401
 6600TIP3    H243996   6.413   8.020  10.872 -1.3670 -2.4958 -3.6182
 6601TIP3   OH243997   0.588   8.060  12.021  0.4872 -0.2706 -0.1462
 6601TIP3    H143998   0.661   8.079  11.962 -0.5010  1.6356 -0.8821
 6601TIP3    H243999   0.616   8.093  12.106  1.7846 -2.7152  0.4509
 6602TIP3   OH244000   6.906   7.317  11.830 -0.7140  0.2350  0.3281
 6602TIP3    H144001   6.843   7.268  11.882 -1.7706 -0.5954 -1.6480
 6602TIP3    H244002   6.973   7.254  11.805  0.6386  0.9733  1.8882
 6603TIP3   OH244003   1.515   0.374  10.734  0.4086  0.1546 -0.2812
 6603TIP3    H144004   1.574   0.449  10.722  0.1867  0.1375 -1.6732
 6603TIP3    H244005   1.477   0.360  10.648  0.7124 -1.7950 -0.1445
 6604TIP3   OH244006   1.420   2.062  10.861  0.4810  0.3286  0.7346
 6604TIP3    H144007   1.420   1.975  10.821  0.0632  1.2785 -1.4532
 6604TIP3    H244008   1.503   2.101  10.833 -0.3915  1.4814 -0.3117
 6605TIP3   OH244009   0.674   1.292  12.154 -0.0250  0.3279 -0.2096
 6605TIP3    H144010   0.750   1.288  12.212 -0.8484  2.6749  1.1951
 6605TIP3    H244011   0.599   1.287  12.213 -0.9822 -0.9875 -1.4813
 6606TIP3   OH244012   7.697   4.039  11.095 -0.0463  0.4011  0.0263
 6606TIP3    H144013   7.633   3.982  11.137  0.2477  0.9694  1.3071
 6606TIP3    H244014   7.730   3.989  11.021 -1.5360 -0.1290 -0.3079
 6607TIP3   OH244015   2.782   7.100  12.094 -0.1511  0.4001 -0.4015
 6607TIP3    H144016   2.830   7.177  12.063  0.8159  0.5767  1.4190
 6607TIP3    H244017   2.700   7.101  12.044  0.6066  1.5833 -1.6859
 6608TIP3   OH244018   7.830   3.095  11.746  0.2657 -0.1995  0.5294
 6608TIP3    H144019   7.819   3.039  11.670 -0.7586 -0.1752  0.6400
 6608TIP3    H244020   7.807   3.183  11.715  2.0258  0.2198  0.3117
 6609TIP3   OH244021   4.041   0.312  11.776 -0.3298  0.6026 -0.3194
 6609TIP3    H144022   4.101   0.279  11.709 -0.0328 -0.6498  0.5358
 6609TIP3    H244023   3.953   0.297  11.739 -0.1633  0.3381 -0.6157
 6610TIP3   OH244024   6.188   0.304  16.661  0.4538  0.3936  0.2803
 6610TIP3    H144025   6.218   0.217  16.635 -0.3488  0.6110 -1.4978
 6610TIP3    H244026   6.239   0.365  16.608 -0.2807  0.9222  0.1582
 6611TIP3   OH244027   2.971   6.543  11.171 -0.2587  0.2915 -0.0225
 6611TIP3    H144028   2.960   6.448  11.178  0.2138  0.3072  1.4541
 6611TIP3    H244029   3.002   6.558  11.082  0.8839 -1.0927  0.1055
 6612TIP3   OH244030   5.865   5.439  11.277  0.1463 -0.4323  0.1003
 6612TIP3    H144031   5.900   5.400  11.197 -0.4731 -3.0063  0.9894
 6612TIP3    H244032   5.942   5.468  11.325  0.6463 -0.6040 -0.5803
 6613TIP3   OH244033   2.918   1.607  11.672  0.4638 -0.2525  0.0585
 6613TIP3    H144034   2.961   1.535  11.717  0.9309 -0.2198 -0.3274
 6613TIP3    H244035   2.825   1.584  11.673  0.6067 -0.8553 -0.0493
 6614TIP3   OH244036   8.141   1.235  10.709  0.1941 -0.2334 -0.7037
 6614TIP3    H144037   8.196   1.228  10.631  0.4229  0.0573 -0.5685
 6614TIP3    H244038   8.053   1.249  10.674 -0.0977 -2.3226 -0.9720
 6615TIP3   OH244039   4.760   0.848  10.813 -0.6015  0.5477  0.2345
 6615TIP3    H144040   4.676   0.811  10.841  0.7158 -1.4424  1.8929
 6615TIP3    H244041   4.800   0.878  10.895  1.1494 -0.4731 -0.2068
 6616TIP3   OH244042   4.565   1.482  12.782  0.2774  0.5002 -0.4488
 6616TIP3    H144043   4.654   1.458  12.759 -0.0329 -0.8240 -0.3181
 6616TIP3    H244044   4.574   1.532  12.863  0.6916 -2.6864  1.6515
 6617TIP3   OH244045   1.873   6.452  11.418 -0.0018 -0.4411  0.0651
 6617TIP3    H144046   1.868   6.381  11.482  0.0282  0.7680  1.4498
 6617TIP3    H244047   1.943   6.424  11.358  0.9534 -0.9795  1.3669
 6618TIP3   OH244048   0.372   2.466  12.042  0.1555 -0.5778 -0.7684
 6618TIP3    H144049   0.368   2.555  12.078  0.7214 -0.3945 -1.1635
 6618TIP3    H244050   0.401   2.412  12.115  2.3237 -0.0538 -1.1745
 6619TIP3   OH244051   0.743   6.991  11.680 -0.0766 -0.3100  0.4131
 6619TIP3    H144052   0.649   6.975  11.671 -0.2715  1.2612 -0.9622
 6619TIP3    H244053   0.770   6.939  11.755 -2.3271  0.2984  1.7336
 6620TIP3   OH244054   5.002   3.360  12.664  0.3192 -0.5786  0.8069
 6620TIP3    H144055   4.997   3.291  12.597  0.4702  2.9490 -3.3020
 6620TIP3    H244056   5.079   3.337  12.716  0.4750 -3.3704 -0.4644
 6621TIP3   OH244057   6.576   2.039  10.809 -0.2872  0.0861  0.0882
 6621TIP3    H144058   6.661   2.076  10.833  0.9767 -3.3539  1.4998
 6621TIP3    H244059   6.528   2.035  10.892 -2.0145  2.1684 -0.7261
 6622TIP3   OH244060   5.074   5.963  11.738  0.5046 -0.4819  0.3293
 6622TIP3    H144061   5.037   5.875  11.738 -0.5605 -0.0912  1.8048
 6622TIP3    H244062   5.047   6.001  11.655  2.2201 -1.9876 -0.9879
 6623TIP3   OH244063   2.560   5.756  12.070  0.1260 -0.4328  0.0856
 6623TIP3    H144064   2.566   5.777  11.977 -0.2880 -0.8241 -0.0340
 6623TIP3    H244065   2.548   5.841  12.113 -0.0103 -0.2812 -0.2471
 6624TIP3   OH244066   2.108   1.397  10.666 -0.5264  0.2838  0.7175
 6624TIP3    H144067   2.102   1.489  10.639 -0.3668  0.3766  0.9952
 6624TIP3    H244068   2.154   1.399  10.750 -0.6259 -0.0411  0.7826
 6625TIP3   OH244069   4.206   2.979  11.218 -0.3850 -0.3168 -0.7963
 6625TIP3    H144070   4.127   3.010  11.173 -0.2822  2.9438  1.0137
 6625TIP3    H244071   4.278   3.008  11.162 -0.3433  1.5778  0.1826
 6626TIP3   OH244072   5.741   5.415  12.257  0.4535 -0.0916  0.0332
 6626TIP3    H144073   5.777   5.346  12.313 -0.3264  0.5739  1.4016
 6626TIP3    H244074   5.649   5.422  12.283  0.5297  1.5051 -0.0149
 6627TIP3   OH244075   1.868   2.721  10.460 -0.3066  0.3005  0.2470
 6627TIP3    H144076   1.894   2.701  10.550 -0.3941 -1.2478 -0.0423
 6627TIP3    H244077   1.902   2.647  10.409 -2.4701 -0.1721 -0.6071
 6628TIP3   OH244078   2.181   2.568  10.880 -0.2387 -0.1942  0.1391
 6628TIP3    H144079   2.195   2.636  10.814 -2.1928  1.8518  1.6611
 6628TIP3    H244080   2.257   2.576  10.938 -0.6430  1.0662  0.5357
 6629TIP3   OH244081   1.359   5.897  10.455  0.3611  0.1647 -0.1282
 6629TIP3    H144082   1.403   5.816  10.427  0.7164  0.6636 -1.0654
 6629TIP3    H244083   1.283   5.867  10.505  2.0962 -0.7379  2.1537
 6630TIP3   OH244084   3.741   7.680  11.196  0.0117 -0.1920 -0.3132
 6630TIP3    H144085   3.651   7.674  11.228  0.6488 -0.5321  1.5894
 6630TIP3    H244086   3.788   7.615  11.248  1.0512 -1.3333 -2.5289
 6631TIP3   OH244087   1.762   1.264  11.557  0.2125  0.5711  0.3160
 6631TIP3    H144088   1.720   1.342  11.593  0.8996  1.0738  0.0542
 6631TIP3    H244089   1.690   1.203  11.540 -0.3353  1.1600  0.4895
 6632TIP3   OH244090   2.478   5.538  11.633 -0.7227 -0.5219 -0.2609
 6632TIP3    H144091   2.452   5.499  11.717 -1.1209  0.4778  0.0922
 6632TIP3    H244092   2.452   5.473  11.568  0.0227 -1.5233  0.4130
 6633TIP3   OH244093   2.334   6.646  11.122 -0.3516 -0.2304  0.1292
 6633TIP3    H144094   2.417   6.655  11.074 -0.4505 -0.8587 -0.1697
 6633TIP3    H244095   2.280   6.718  11.089  0.5674  1.1109  1.4075
 6634TIP3   OH244096   1.339   0.436  10.496  0.0619  0.0023  0.1324
 6634TIP3    H144097   1.244   0.437  10.480  0.0490  1.2665  0.2029
 6634TIP3    H244098   1.372   0.365  10.439 -0.9821 -0.8537  0.5532
 6635TIP3   OH244099   2.583   1.818  12.122  0.0408  0.1724  0.3124
 6635TIP3    H144100   2.527   1.776  12.188  0.4612 -0.6111  0.1778
 6635TIP3    H244101   2.619   1.894  12.167  0.7346 -0.6408  1.1643
 6636TIP3   OH244102   2.235   3.579  12.593 -0.1942 -0.2780  0.2547
 6636TIP3    H144103   2.239   3.674  12.605 -0.9778 -0.1517 -0.3577
 6636TIP3    H244104   2.187   3.568  12.511 -0.7078 -1.2130  0.6671
 6637TIP3   OH244105   0.117   3.829  11.895  0.4512 -0.3833  0.4847
 6637TIP3    H144106   0.059   3.904  11.881 -0.2806 -1.1951 -1.0606
 6637TIP3    H244107   0.149   3.807  11.808  1.0039 -1.5810  0.9701
 6638TIP3   OH244108   2.895   4.762  10.603  0.4283  0.1550 -0.4648
 6638TIP3    H144109   2.905   4.725  10.515  0.1099 -3.0618  0.7008
 6638TIP3    H244110   2.802   4.783  10.610  0.1680 -0.9164 -0.4790
 6639TIP3   OH244111   2.866   0.747  11.084  0.6914 -0.0801  0.3394
 6639TIP3    H144112   2.825   0.689  11.021 -0.3424 -0.7674  1.5767
 6639TIP3    H244113   2.923   0.803  11.033  1.2163 -1.7485 -0.9735
 6640TIP3   OH244114   7.144   0.016  10.766 -0.4730 -0.0563  0.1058
 6640TIP3    H144115   7.128   0.110  10.766 -1.1136 -0.1000  2.9729
 6640TIP3    H244116   7.061  -0.023  10.738 -1.0250  0.1879  1.3451
 6641TIP3   OH244117   0.882   2.973  11.615  0.1617  0.5324 -0.0940
 6641TIP3    H144118   0.928   3.055  11.632 -0.4178  1.2164 -1.6360
 6641TIP3    H244119   0.867   2.973  11.520 -2.9326  0.3197  0.2824
 6642TIP3   OH244120   7.188   0.599  11.160  0.5421  0.2143  0.2742
 6642TIP3    H144121   7.149   0.618  11.075 -0.3657 -0.5800  0.4877
 6642TIP3    H244122   7.204   0.504  11.158  2.9957  0.5706  0.0042
 6643TIP3   OH244123   2.854   0.475  12.415 -0.1698 -0.1318 -0.5134
 6643TIP3    H144124   2.861   0.551  12.474 -1.5240  0.0040 -0.5082
 6643TIP3    H244125   2.795   0.415  12.460 -0.0537 -0.6722 -1.0735
 6644TIP3   OH244126   7.934   3.840  12.160  0.3827 -0.1842 -0.0316
 6644TIP3    H144127   7.916   3.797  12.243  1.7024  0.0729  0.4159
 6644TIP3    H244128   7.890   3.924  12.166  0.5689 -0.1186  0.4721
 6645TIP3   OH244129   0.546   5.267  10.596  0.6129  0.0775 -0.1054
 6645TIP3    H144130   0.589   5.288  10.513  1.0443 -0.6772 -0.0797
 6645TIP3    H244131   0.582   5.331  10.658  0.2794  0.6520 -0.4956
 6646TIP3   OH244132   3.219   2.614  11.585 -0.6534 -0.7641  0.2972
 6646TIP3    H144133   3.307   2.644  11.607 -0.6497 -0.8891  0.4583
 6646TIP3    H244134   3.205   2.643  11.495 -1.6570  2.0462  1.2513
 6647TIP3   OH244135   1.844   3.800  12.320  0.1718 -0.5473  0.3233
 6647TIP3    H144136   1.822   3.775  12.231  0.3090 -0.5422  0.2870
 6647TIP3    H244137   1.869   3.892  12.315 -2.3218  0.2233  0.7924
 6648TIP3   OH244138   6.072   4.299  10.908 -1.0189 -0.2702  0.3361
 6648TIP3    H144139   6.145   4.253  10.865 -1.2625  0.5850 -1.0736
 6648TIP3    H244140   6.020   4.229  10.947  1.4045 -0.8093  2.8857
 6649TIP3   OH244141   8.325   5.571  12.078 -0.6056 -0.5432  0.1023
 6649TIP3    H144142   8.418   5.582  12.098  0.0243 -3.1871 -0.9360
 6649TIP3    H244143   8.280   5.625  12.142  1.5895 -0.7259  1.9075
 6650TIP3   OH244144   5.934   5.937  11.791  0.2398 -0.0032  0.4828
 6650TIP3    H144145   5.854   5.970  11.750  0.2931 -0.1010  0.3010
 6650TIP3    H244146   5.933   5.843  11.773  0.7926  0.1169 -0.1866
 6651TIP3   OH244147   2.726   0.141  11.592  0.3716 -0.0299  0.2002
 6651TIP3    H144148   2.802   0.102  11.549  0.1816 -0.8663  0.5867
 6651TIP3    H244149   2.654   0.125  11.532  0.4195  0.3396  0.0464
 6652TIP3   OH244150   4.554   1.076  10.819  0.1729  0.6276  0.1603
 6652TIP3    H144151   4.530   1.037  10.903  0.6320  1.4041  0.6638
 6652TIP3    H244152   4.602   1.155  10.842 -0.4713  1.3371 -0.8340
 6653TIP3   OH244153   2.320   8.258  10.711 -0.1237 -0.3479 -0.2977
 6653TIP3    H144154   2.259   8.184  10.718 -0.1891 -0.3224 -0.5661
 6653TIP3    H244155   2.386   8.228  10.648  1.0788 -1.0078  1.2083
 6654TIP3   OH244156   0.548   2.506  12.440 -0.3207 -0.0549  0.0319
 6654TIP3    H144157   0.517   2.587  12.481 -0.7627 -0.8821  1.3781
 6654TIP3    H244158   0.474   2.446  12.445 -0.1081 -0.4637 -1.2589
 6655TIP3   OH244159   3.760   5.809  12.933  0.1790 -0.1938  0.0070
 6655TIP3    H144160   3.850   5.809  12.901  0.8654 -0.4023  1.8294
 6655TIP3    H244161   3.726   5.895  12.909  1.3093  0.4004  0.4503
 6656TIP3   OH244162   4.875   3.898  12.566  0.0718  0.4015 -0.3903
 6656TIP3    H144163   4.797   3.853  12.600 -0.4254  1.6509  0.2106
 6656TIP3    H244164   4.882   3.976  12.621  3.5501 -1.1489  1.6746
 6657TIP3   OH244165   0.515   6.935  11.164  0.2610 -0.3458 -0.0215
 6657TIP3    H144166   0.521   6.852  11.117  0.7757  0.3518 -1.2428
 6657TIP3    H244167   0.593   6.984  11.137 -0.0088  0.5184  0.7063
 6658TIP3   OH244168   4.415   5.700  11.577  0.3332  0.7951 -0.1155
 6658TIP3    H144169   4.325   5.710  11.546  0.5606 -1.7940 -1.9511
 6658TIP3    H244170   4.408   5.706  11.672 -1.9553 -0.2122 -0.1525
 6659TIP3   OH244171   6.417   4.652  12.229  0.1826 -0.7134 -0.0924
 6659TIP3    H144172   6.374   4.698  12.301 -0.2755  0.7912 -1.2886
 6659TIP3    H244173   6.347   4.603  12.186  0.1657 -0.4006 -0.4245
 6660TIP3   OH244174   4.824   1.290  12.098 -0.3380  0.3776 -0.4226
 6660TIP3    H144175   4.798   1.242  12.176  2.6085 -1.9540 -0.7027
 6660TIP3    H244176   4.879   1.361  12.131 -1.7149  1.4038 -0.2476
 6661TIP3   OH244177   3.615   4.039  12.512  0.4789  0.0738  0.3759
 6661TIP3    H144178   3.622   4.134  12.517 -0.8997  0.3389 -1.5506
 6661TIP3    H244179   3.560   4.015  12.587  1.0442  0.7415  1.0176
 6662TIP3   OH244180   2.682   6.814  11.912  0.5539  0.1850  0.0045
 6662TIP3    H144181   2.751   6.869  11.874  0.5346  0.4498  0.3488
 6662TIP3    H244182   2.675   6.740  11.852  0.7151  0.4616 -0.3606
 6663TIP3   OH244183   4.336   4.564  10.519  0.4935 -0.4647 -0.1906
 6663TIP3    H144184   4.251   4.534  10.486  0.4403 -1.7514  1.0082
 6663TIP3    H244185   4.320   4.654  10.547 -0.9575 -1.1875  1.5144
 6664TIP3   OH244186   7.208   1.535  11.254  0.3064 -0.3393 -0.4988
 6664TIP3    H144187   7.150   1.475  11.206 -2.1462  0.2209  1.5366
 6664TIP3    H244188   7.219   1.494  11.340  3.1983 -0.4946 -0.8307
 6665TIP3   OH244189   3.240   7.583  12.358  0.1529  0.0672 -0.2114
 6665TIP3    H144190   3.276   7.671  12.372 -1.3000  0.4856  1.2898
 6665TIP3    H244191   3.289   7.528  12.419  1.0604 -0.1702 -1.1486
 6666TIP3   OH244192   1.784   7.534  11.117 -0.2159  0.1171  0.2589
 6666TIP3    H144193   1.713   7.474  11.091 -0.2854  0.0349  0.6364
 6666TIP3    H244194   1.740   7.601  11.170 -0.0247  0.1140  0.4209
 6667TIP3   OH244195   5.276   3.803  12.168 -0.2336  0.5503 -0.0262
 6667TIP3    H144196   5.368   3.821  12.185 -0.7650  2.0280  1.5243
 6667TIP3    H244197   5.269   3.707  12.174  0.9398  0.5180  1.4034
 6668TIP3   OH244198   0.753   1.271  12.476 -0.5669 -0.6927  0.0768
 6668TIP3    H144199   0.780   1.182  12.500 -0.5119 -1.0972 -1.3650
 6668TIP3    H244200   0.835   1.321  12.471 -0.4129 -1.0136 -0.7960
 6669TIP3   OH244201   1.298   3.472  11.586  0.0418  0.1682 -0.4226
 6669TIP3    H144202   1.331   3.391  11.624  0.2144  0.9059  1.0668
 6669TIP3    H244203   1.256   3.445  11.504 -1.3758 -1.6656  0.8292
 6670TIP3   OH244204   5.410   4.745  12.060  0.1004 -0.5214 -0.3000
 6670TIP3    H144205   5.431   4.747  12.153  0.1680 -0.9460 -0.3056
 6670TIP3    H244206   5.416   4.836  12.032 -0.6708 -0.2791  0.2795
 6671TIP3   OH244207   3.667   0.889  11.980  0.5168  0.4641 -0.0933
 6671TIP3    H144208   3.714   0.973  11.987  0.9131  0.1066  2.4264
 6671TIP3    H244209   3.715   0.830  12.037 -2.0957 -0.3570  1.4089
 6672TIP3   OH244210   2.353   1.484  12.229 -0.1917 -0.6065 -0.2784
 6672TIP3    H144211   2.395   1.534  12.160  0.3602 -0.2341  0.3221
 6672TIP3    H244212   2.407   1.498  12.307 -1.0665 -0.6178  0.3585
 6673TIP3   OH244213   6.280   4.118  10.880  0.2440 -0.4164  0.5474
 6673TIP3    H144214   6.353   4.099  10.938  0.8064  0.6802  0.2126
 6673TIP3    H244215   6.311   4.094  10.793  0.2398  0.1234  0.3944
 6674TIP3   OH244216   3.539   5.668  12.775  0.4496 -0.0686 -0.2137
 6674TIP3    H144217   3.590   5.737  12.818  1.2793 -0.9207  0.1905
 6674TIP3    H244218   3.532   5.599  12.840 -1.1510 -0.0235 -0.2963
 6675TIP3   OH244219   6.009   5.140  10.313 -0.3572  0.3659 -0.0174
 6675TIP3    H144220   6.087   5.086  10.325 -0.1686  0.3865 -1.0007
 6675TIP3    H244221   5.959   5.094  10.245 -1.9762 -0.4672  1.6734
 6676TIP3   OH244222   3.754   6.244  10.456  0.1627  0.3717 -0.0870
 6676TIP3    H144223   3.808   6.322  10.441  0.9586  0.3364  2.1927
 6676TIP3    H244224   3.815   6.171  10.445 -0.2119  0.1449 -0.6825
 6677TIP3   OH244225   1.904   7.023  10.505  0.0905 -0.4267 -0.5396
 6677TIP3    H144226   1.992   6.985  10.508  0.1917 -0.1162  0.5545
 6677TIP3    H244227   1.857   6.978  10.575 -0.2664  0.2759 -0.3251
 6678TIP3   OH244228   2.374   0.358  11.805  0.2443  0.4762  0.0736
 6678TIP3    H144229   2.439   0.287  11.805 -1.8765 -1.6048  1.0882
 6678TIP3    H244230   2.357   0.375  11.897  0.1880  1.8497 -0.1737
 6679TIP3   OH244231   4.378   7.452  11.276 -0.2870  0.1080  0.4242
 6679TIP3    H144232   4.424   7.536  11.275  1.1015 -0.5818 -2.1554
 6679TIP3    H244233   4.324   7.452  11.198 -1.8621 -0.6273  1.4546
 6680TIP3   OH244234   6.250   2.611  11.732 -0.1046  0.2314 -0.1919
 6680TIP3    H144235   6.251   2.515  11.729  0.5000  0.1784  0.8405
 6680TIP3    H244236   6.162   2.633  11.762 -0.4006  0.0260 -0.8960
 6681TIP3   OH244237   2.518   3.491  12.355 -0.0309  0.3909 -0.4154
 6681TIP3    H144238   2.456   3.564  12.347 -0.5855 -0.1166 -0.7954
 6681TIP3    H244239   2.557   3.482  12.268 -1.0641 -0.7230 -0.7881
 6682TIP3   OH244240   5.418   3.390  12.044  0.2705  0.4217  0.0426
 6682TIP3    H144241   5.502   3.410  12.084  1.3873 -1.1614 -1.3492
 6682TIP3    H244242   5.405   3.296  12.060  0.0085  0.0885 -1.8480
 6683TIP3   OH244243   1.542   5.731  11.792 -0.4487  0.4560  0.3148
 6683TIP3    H144244   1.556   5.825  11.800 -0.1693  0.3017  2.2731
 6683TIP3    H244245   1.495   5.707  11.872  1.3123 -1.3625  0.8958
 6684TIP3   OH244246   0.780   3.436  12.051 -0.6580 -0.1274 -0.0052
 6684TIP3    H144247   0.865   3.391  12.058 -0.4807 -0.0461 -1.3999
 6684TIP3    H244248   0.757   3.456  12.142  1.0926  0.3751  0.3779
 6685TIP3   OH244249   5.594   2.045  10.355 -0.0062  0.3392 -0.6842
 6685TIP3    H144250   5.609   1.960  10.313  0.3743  0.1883 -0.2487
 6685TIP3    H244251   5.499   2.058  10.352 -0.3142 -1.1242  1.2272
 6686TIP3   OH244252   1.227   6.810  11.145 -0.0122 -0.4476  0.1876
 6686TIP3    H144253   1.235   6.794  11.051 -0.5615 -0.6594  0.1713
 6686TIP3    H244254   1.228   6.723  11.185  0.3172 -0.3539  0.3891
 6687TIP3   OH244255   7.603   0.663  10.512 -0.0898  0.5767  0.2297
 6687TIP3    H144256   7.511   0.665  10.537 -1.3669 -1.1586 -3.6457
 6687TIP3    H244257   7.614   0.737  10.453  0.7566  0.2311 -0.0663
 6688TIP3   OH244258   4.051   6.241  10.536  0.0364 -0.4986 -0.9233
 6688TIP3    H144259   4.063   6.335  10.550 -1.5892 -0.2698 -0.9558
 6688TIP3    H244260   3.986   6.215  10.601  0.1618 -1.5215 -1.1941
 6689TIP3   OH244261   6.387   4.213  11.560  0.0490 -0.0925 -0.5199
 6689TIP3    H144262   6.437   4.187  11.637 -0.0733  0.6510 -0.1758
 6689TIP3    H244263   6.453   4.226  11.492  0.2289 -0.0870 -0.3475
 6690TIP3   OH244264   6.079   8.232  11.015 -0.1205 -0.1247 -0.4227
 6690TIP3    H144265   6.107   8.160  11.072 -0.6470  0.0305  0.0378
 6690TIP3    H244266   6.131   8.307  11.045  1.4367 -0.5823 -1.7834
 6691TIP3   OH244267   7.399   4.145  12.235  0.1802  0.4378 -0.1034
 6691TIP3    H144268   7.411   4.075  12.300 -0.1568 -0.4089 -0.9182
 6691TIP3    H244269   7.363   4.100  12.158  1.3038  1.2691 -1.1648
 6692TIP3   OH244270   8.030   2.772  11.472  0.3266  0.8391  0.0638
 6692TIP3    H144271   8.044   2.680  11.450 -1.3466  0.4452  0.5230
 6692TIP3    H244272   8.118   2.806  11.488  1.1420 -0.2455 -1.7226
 6693TIP3   OH244273   6.080   0.990  11.640 -0.5701  0.2694 -0.1746
 6693TIP3    H144274   6.067   1.040  11.559 -1.1430 -0.5600 -0.6059
 6693TIP3    H244275   6.005   0.931  11.644 -0.2831 -0.0424  0.7113
 6694TIP3   OH244276   1.550   0.028  10.279 -0.2212  0.3304 -0.2626
 6694TIP3    H144277   1.489  -0.044  10.267 -1.3036  1.2004 -0.1896
 6694TIP3    H244278   1.616   0.017  10.210 -1.3662  0.2696 -1.3743
 6695TIP3   OH244279   4.960   3.212  11.831  0.0918  0.1202  0.5276
 6695TIP3    H144280   4.945   3.303  11.805  2.5081  0.5398  0.4138
 6695TIP3    H244281   4.952   3.162  11.749 -1.7226  0.1182  0.6700
 6696TIP3   OH244282   4.670   7.507  12.628 -0.2041 -1.1806  0.1961
 6696TIP3    H144283   4.607   7.435  12.636  0.9631 -2.3329 -0.4513
 6696TIP3    H244284   4.689   7.511  12.534 -1.3748  1.0257 -0.0045
 6697TIP3   OH244285   4.046   5.534  12.358 -0.0001 -0.0225 -0.0513
 6697TIP3    H144286   4.040   5.618  12.312  3.1762  0.2842 -0.1114
 6697TIP3    H244287   4.014   5.470  12.294  0.3424  0.8477 -1.1283
 6698TIP3   OH244288   2.649   3.227  11.400  0.0151  0.5961 -0.3754
 6698TIP3    H144289   2.602   3.232  11.317 -1.1914  0.1882  0.2427
 6698TIP3    H244290   2.584   3.254  11.465  0.7263  0.2476  0.4970
 6699TIP3   OH244291   6.140   6.783  11.824  0.6629 -0.2391 -0.2708
 6699TIP3    H144292   6.212   6.729  11.791  0.7863 -0.1512 -0.1463
 6699TIP3    H244293   6.181   6.841  11.889  0.5202 -0.0269 -0.3714
 6700TIP3   OH244294   6.060   3.508  11.293 -0.8088  0.2729 -0.4038
 6700TIP3    H144295   6.050   3.451  11.368 -1.9988 -0.8046 -1.3357
 6700TIP3    H244296   5.982   3.564  11.294 -0.6494  0.5020 -0.6261
 6701TIP3   OH244297   8.175   3.836  12.017  0.0756 -0.0553  0.9594
 6701TIP3    H144298   8.093   3.811  12.059 -0.6619 -0.5556 -0.6701
 6701TIP3    H244299   8.158   3.824  11.923  1.8217  0.4106  0.5460
 6702TIP3   OH244300   6.101   6.241  11.843  0.5569 -0.3370  0.7783
 6702TIP3    H144301   6.008   6.256  11.859  0.5520  1.1723 -0.4099
 6702TIP3    H244302   6.116   6.277  11.756  2.5329  0.7677  1.5109
 6703TIP3   OH244303   5.034   3.085  11.400  0.0860  0.1456  0.3263
 6703TIP3    H144304   4.955   3.068  11.349  0.8773 -1.1484 -0.5412
 6703TIP3    H244305   5.010   3.063  11.490 -0.7326  0.4457  0.1821
 6704TIP3   OH244306   2.919   3.964  11.169  0.2732  0.5351 -0.5326
 6704TIP3    H144307   2.978   3.895  11.198  0.9914  1.9665  1.6289
 6704TIP3    H244308   2.831   3.930  11.190  0.5949  0.1303  0.2066
 6705TIP3   OH244309   0.365   0.292  12.304  0.0336 -0.1960 -0.2407
 6705TIP3    H144310   0.369   0.380  12.266  1.2996  0.1511  0.6150
 6705TIP3    H244311   0.348   0.235  12.229 -1.4459  0.8108 -0.7177
 6706TIP3   OH244312   0.041   7.733  10.677 -0.0369  0.0887  0.6430
 6706TIP3    H144313  -0.041   7.686  10.661  0.5754 -0.2415 -1.8962
 6706TIP3    H244314   0.110   7.670  10.657  0.7908  1.4148 -0.9218
 6707TIP3   OH244315   4.261   4.370  11.546 -0.2249 -0.0287 -0.5503
 6707TIP3    H144316   4.292   4.318  11.471  1.6745 -1.0634  0.8627
 6707TIP3    H244317   4.334   4.430  11.565 -1.2917  1.2835 -0.4362
 6708TIP3   OH244318   4.919   1.998  10.412 -0.6531 -0.8060 -0.1549
 6708TIP3    H144319   5.006   1.964  10.395 -0.1123  0.2256  0.4466
 6708TIP3    H244320   4.885   2.022  10.326  0.4038  0.5032 -0.2389
 6709TIP3   OH244321   7.446   5.347  12.520 -0.6724 -0.0377 -0.7797
 6709TIP3    H144322   7.502   5.415  12.557  1.9095 -1.6380 -1.4742
 6709TIP3    H244323   7.393   5.393  12.455  0.1392  1.4812 -0.4270
 6710TIP3   OH244324   7.666   1.995  10.911 -0.1741 -0.5693 -0.1527
 6710TIP3    H144325   7.686   2.039  10.829  0.2535 -0.9065 -0.2292
 6710TIP3    H244326   7.746   2.001  10.962 -0.1395 -1.1859 -0.1273
 6711TIP3   OH244327   0.092   5.366  10.957  0.2184 -0.3377 -0.1453
 6711TIP3    H144328   0.031   5.316  10.902  0.5799  0.4556 -1.3089
 6711TIP3    H244329   0.155   5.301  10.988 -0.2280 -0.8736 -0.3350
 6712TIP3   OH244330   6.854   4.457  11.720 -0.5444 -0.7385  0.1266
 6712TIP3    H144331   6.882   4.491  11.805  0.4501 -0.2967 -0.3624
 6712TIP3    H244332   6.838   4.364  11.735 -0.1907 -0.7034  0.7521
 6713TIP3   OH244333   3.810   5.781  11.749 -0.3557 -0.5946 -0.4536
 6713TIP3    H144334   3.865   5.754  11.822  0.4412  2.2266  0.1134
 6713TIP3    H244335   3.727   5.735  11.763 -0.1080 -0.4179  2.0588
 6714TIP3   OH244336   2.693   3.054  11.971  0.2293 -0.0797 -0.4256
 6714TIP3    H144337   2.622   3.071  11.909  1.0445 -1.1869 -1.6902
 6714TIP3    H244338   2.689   3.129  12.031 -0.7878  0.8600 -1.5971
 6715TIP3   OH244339   7.491   3.883  11.200  0.0436  0.2084 -0.0580
 6715TIP3    H144340   7.406   3.842  11.215 -0.4221  1.3250  0.5339
 6715TIP3    H244341   7.508   3.931  11.282  0.6688  0.9751 -0.6267
 6716TIP3   OH244342   7.209   0.419  11.947 -0.2587  0.3770 -0.1500
 6716TIP3    H144343   7.157   0.469  11.883  1.1120  0.9646 -0.8507
 6716TIP3    H244344   7.209   0.330  11.913 -1.5788  0.1472  0.3758
 6717TIP3   OH244345   4.367   5.359  10.976  0.0101 -0.3005  0.1657
 6717TIP3    H144346   4.415   5.415  11.037  0.6420 -0.1438 -0.4601
 6717TIP3    H244347   4.379   5.271  11.011  0.1367 -0.1819  0.4265
 6718TIP3   OH244348   5.220   3.837  11.233  0.7150  0.6088 -0.0900
 6718TIP3    H144349   5.129   3.811  11.214  0.9671 -1.5829  1.3605
 6718TIP3    H244350   5.265   3.826  11.149 -0.5061  2.8513 -1.1461
 6719TIP3   OH244351   4.364   5.796  12.086  0.5173  0.6975  0.6539
 6719TIP3    H144352   4.291   5.791  12.147 -1.1990 -1.5690 -1.3888
 6719TIP3    H244353   4.346   5.874  12.033 -1.0307 -0.2931 -0.3904
 6720TIP3   OH244354   4.535   4.105  12.122 -0.2429  0.1187  0.3900
 6720TIP3    H144355   4.518   4.012  12.115  0.0662 -0.0471  1.6211
 6720TIP3    H244356   4.571   4.129  12.037 -0.3141 -0.8806  0.0660
 6721TIP3   OH244357   0.737   1.690  10.898 -0.0113 -0.4321  0.0255
 6721TIP3    H144358   0.653   1.701  10.942  0.1867 -3.2833  1.3424
 6721TIP3    H244359   0.764   1.779  10.875 -2.0707  0.8146  2.0405
 6722TIP3   OH244360   4.846   1.396  12.409 -0.3112  0.4851  0.1712
 6722TIP3    H144361   4.921   1.421  12.463 -0.7136 -0.8971  1.4523
 6722TIP3    H244362   4.812   1.316  12.450 -3.3121  1.7617  0.4619
 6723TIP3   OH244363   7.615   4.801  11.291 -0.0198 -0.3264 -0.1811
 6723TIP3    H144364   7.571   4.812  11.374  0.9287 -1.1992  0.4668
 6723TIP3    H244365   7.545   4.796  11.226 -0.7183  2.6298  0.2221
 6724TIP3   OH244366   1.441   1.139  11.069 -0.5519 -0.2835 -0.2611
 6724TIP3    H144367   1.436   1.203  10.998 -0.4013  0.2639  0.2181
 6724TIP3    H244368   1.479   1.187  11.142 -1.1842 -0.7019  0.3499
 6725TIP3   OH244369   2.978   0.411  10.893  0.0140 -0.7588 -0.0047
 6725TIP3    H144370   3.015   0.410  10.982  0.4050  0.4011 -0.1366
 6725TIP3    H244371   3.053   0.399  10.836 -0.1000 -0.5382 -0.2035
 6726TIP3   OH244372   4.873   3.806  12.305 -0.0053 -0.3242  0.0316
 6726TIP3    H144373   4.877   3.846  12.392  0.5678 -0.5823  0.1239
 6726TIP3    H244374   4.908   3.872  12.246 -0.8575  0.0442 -0.0774
 6727TIP3   OH244375   1.440   4.849  11.260  0.1436  0.1062  0.4107
 6727TIP3    H144376   1.446   4.874  11.168  0.7387 -0.3608  0.3220
 6727TIP3    H244377   1.360   4.893  11.291 -0.4782 -0.3468 -0.5182
 6728TIP3   OH244378   7.397   0.346  10.821  0.0190 -0.1679 -0.2149
 6728TIP3    H144379   7.373   0.436  10.844 -0.0489 -0.1302 -0.4319
 6728TIP3    H244380   7.446   0.355  10.740 -0.2590 -0.3555 -0.4041
 6729TIP3   OH244381   0.822   2.485  11.255  0.0193 -0.0998 -0.0381
 6729TIP3    H144382   0.887   2.526  11.312 -0.2275  0.3078 -0.0537
 6729TIP3    H244383   0.743   2.538  11.266 -0.4825 -0.9067  0.3995
 6730TIP3   OH244384   7.158   5.826  11.372  0.0553 -0.1564 -0.4764
 6730TIP3    H144385   7.238   5.780  11.347 -0.5005 -1.1222 -0.5325
 6730TIP3    H244386   7.102   5.758  11.410 -0.4870  0.6285  0.1624
 6731TIP3   OH244387   0.513   0.957  10.750 -0.1215  0.3692 -0.3895
 6731TIP3    H144388   0.606   0.980  10.758  0.4597 -2.0301  0.9674
 6731TIP3    H244389   0.468   1.024  10.801  1.1097  0.4317  0.6944
 6732TIP3   OH244390   6.811   3.347  11.600 -0.1830 -0.0401  0.5943
 6732TIP3    H144391   6.738   3.409  11.596 -0.4040 -0.3663 -0.8435
 6732TIP3    H244392   6.876   3.391  11.655 -1.7704 -0.1202  2.6877
 6733TIP3   OH244393   5.018   4.740  11.055  0.3666 -0.3565 -0.3037
 6733TIP3    H144394   4.978   4.826  11.049  0.5177 -0.2882 -0.3412
 6733TIP3    H244395   4.955   4.681  11.012  0.3198 -0.2464 -0.3870
 6734TIP3   OH244396   2.462   4.287  12.266 -0.0395 -1.1488 -0.5424
 6734TIP3    H144397   2.393   4.353  12.257  1.3595  0.5523  0.4502
 6734TIP3    H244398   2.493   4.272  12.177 -0.4393 -0.5091 -0.7960
 6735TIP3   OH244399   0.555   5.766  11.147  0.4603 -0.4527 -0.1394
 6735TIP3    H144400   0.568   5.721  11.063  2.1681  0.1358 -0.2298
 6735TIP3    H244401   0.613   5.842  11.142 -1.2944  0.9884  0.5987
 6736TIP3   OH244402   4.157   2.275  11.253  0.6116 -0.1188  0.7403
 6736TIP3    H144403   4.205   2.205  11.296  1.4394  0.6298  1.0574
 6736TIP3    H244404   4.215   2.351  11.258 -0.7063  0.8888  1.3934
 6737TIP3   OH244405   6.190   2.954  10.841  0.0310 -0.3644 -0.1109
 6737TIP3    H144406   6.230   2.911  10.767  2.5987  2.6494 -0.7052
 6737TIP3    H244407   6.244   2.930  10.916  0.4719  0.4222 -0.1592
 6738TIP3   OH244408   5.731   3.724  11.918 -0.3938  0.7756  0.0247
 6738TIP3    H144409   5.692   3.740  12.005 -4.4218  2.0286 -1.7746
 6738TIP3    H244410   5.820   3.756  11.926 -0.1566 -0.3123  4.0143
 6739TIP3   OH244411   2.412   3.717  10.899  0.2484  0.1356  0.0598
 6739TIP3    H144412   2.326   3.757  10.887  0.1252 -0.1754 -0.1056
 6739TIP3    H244413   2.414   3.690  10.991 -1.5396 -3.7296 -0.8446
 6740TIP3   OH244414   5.693   5.940  11.030 -0.2149 -0.1199 -0.2221
 6740TIP3    H144415   5.747   5.909  10.958 -1.5081  0.2099 -1.3850
 6740TIP3    H244416   5.746   5.926  11.109  1.4613  0.0385 -1.2844
 6741TIP3   OH244417   3.487   1.441  10.851  0.7701  0.0627 -0.4480
 6741TIP3    H144418   3.474   1.536  10.850  0.0524  0.0097 -2.9459
 6741TIP3    H244419   3.577   1.430  10.882  0.3425  1.4197  1.4510
 6742TIP3   OH244420   1.121   4.368  10.606 -0.3912 -0.4040 -0.1139
 6742TIP3    H144421   1.193   4.348  10.547 -0.7712 -0.8486 -0.4290
 6742TIP3    H244422   1.144   4.326  10.689  0.1642  0.2597  0.0718
 6743TIP3   OH244423   4.422   3.504  11.611  0.9784  0.1437  0.8245
 6743TIP3    H144424   4.391   3.422  11.572  0.7193  0.2827  0.7431
 6743TIP3    H244425   4.409   3.492  11.705  0.0899  0.4488  0.7483
 6744TIP3   OH244426   6.540   0.507  12.762  0.3233  0.3820 -0.1203
 6744TIP3    H144427   6.465   0.565  12.780  2.0487  3.1077 -1.1642
 6744TIP3    H244428   6.614   0.550  12.805  1.8282 -0.6343 -1.5797
 6745TIP3   OH244429   7.426   2.031  10.630  0.1143  0.6067 -0.0360
 6745TIP3    H144430   7.385   2.057  10.712 -0.3166 -0.6052  0.1566
 6745TIP3    H244431   7.439   2.113  10.582 -0.8504  1.1926  0.6701
 6746TIP3   OH244432   7.704   6.514  11.350  0.0295 -0.2479 -0.0070
 6746TIP3    H144433   7.639   6.571  11.308  0.7272  0.9522  0.4876
 6746TIP3    H244434   7.688   6.525  11.443  0.5602 -0.3974  0.1013
 6747TIP3   OH244435   2.473   3.379  12.029  0.3074 -0.3385 -0.2159
 6747TIP3    H144436   2.544   3.440  12.047 -1.2730  1.3640  0.6826
 6747TIP3    H244437   2.498   3.335  11.948  1.3728  1.8258 -1.1379
 6748TIP3   OH244438   6.029   1.178  11.834  0.0390 -0.1297 -0.0397
 6748TIP3    H144439   6.055   1.110  11.771  0.4023 -0.0671  0.0432
 6748TIP3    H244440   6.029   1.259  11.783  2.1055  0.2216  0.4389
 6749TIP3   OH244441   5.132   6.988  11.472  0.1048  0.1937  0.2395
 6749TIP3    H144442   5.069   7.058  11.458  0.9740  0.6913 -1.4999
 6749TIP3    H244443   5.212   7.032  11.501  0.2683 -0.2060  0.4081
 6750TIP3   OH244444   5.561   6.550  10.531  0.2798  0.3982 -0.3346
 6750TIP3    H144445   5.481   6.540  10.479  1.1809 -1.2360 -1.4866
 6750TIP3    H244446   5.631   6.558  10.466  1.2504  0.0307  0.6469
 6751TIP3   OH244447   2.799   1.524  12.267 -0.2219 -0.3977 -0.2186
 6751TIP3    H144448   2.710   1.550  12.292 -0.1980 -0.2072 -0.3344
 6751TIP3    H244449   2.791   1.432  12.241 -0.1469 -0.7843  1.0513
 6752TIP3   OH244450   4.874   2.532  12.791 -0.0294  0.0096 -0.0640
 6752TIP3    H144451   4.927   2.462  12.751 -0.8533 -0.9301  0.4447
 6752TIP3    H244452   4.806   2.551  12.726 -0.3897 -0.3591  0.2027
 6753TIP3   OH244453   3.599   5.001  13.012  0.0933 -0.0118  0.2327
 6753TIP3    H144454   3.615   4.959  12.928  2.7075 -0.4187  0.8571
 6753TIP3    H244455   3.546   4.938  13.061 -2.5356  0.7371 -1.4294
 6754TIP3   OH244456   6.027   2.317  11.722 -0.2427  0.0224 -0.4120
 6754TIP3    H144457   6.119   2.323  11.697  0.1862 -1.4696  0.6384
 6754TIP3    H244458   6.023   2.351  11.811 -0.6759  0.0027 -0.4206
 6755TIP3   OH244459   2.231   0.437  11.364 -0.5603 -0.7188  0.1272
 6755TIP3    H144460   2.204   0.495  11.435  0.1719 -1.3401  0.9290
 6755TIP3    H244461   2.154   0.431  11.307 -1.6270 -1.3033  1.5798
 6756TIP3   OH244462   4.188   8.258  10.979 -0.1620 -0.6108  0.5917
 6756TIP3    H144463   4.153   8.170  10.993  1.4546 -1.6488 -1.3577
 6756TIP3    H244464   4.200   8.264  10.884  0.0410  1.6206  0.7133
 6757TIP3   OH244465   6.089   1.889  10.360 -0.2677 -0.0616 -0.2168
 6757TIP3    H144466   6.175   1.858  10.331 -0.2451  0.7859 -1.0865
 6757TIP3    H244467   6.027   1.825  10.325 -0.0093 -0.6110  0.3142
 6758TIP3   OH244468   6.162   7.198  11.685  0.5588  0.0616  0.3299
 6758TIP3    H144469   6.127   7.187  11.773 -0.1405  0.3873  0.0963
 6758TIP3    H244470   6.215   7.119  11.670  0.1002 -0.3386  0.7700
 6759TIP3   OH244471   3.772   5.820  10.977 -0.1982  0.0823  0.1755
 6759TIP3    H144472   3.711   5.885  11.011  1.8165  1.8829  0.5353
 6759TIP3    H244473   3.770   5.748  11.040 -2.0122  0.0236  0.0882
 6760TIP3   OH244474   2.296   8.049  11.027  0.4553  0.3828 -0.0161
 6760TIP3    H144475   2.362   8.086  10.968  1.5944 -0.6474  0.5459
 6760TIP3    H244476   2.246   8.124  11.058  0.2078  1.0190 -1.8144
 6761TIP3   OH244477   7.050   7.012  12.690  0.1102 -0.1266 -0.3602
 6761TIP3    H144478   7.092   6.938  12.735 -0.8438 -1.3152 -1.3607
 6761TIP3    H244479   7.006   6.973  12.615 -1.4213  1.2996 -0.2583
 6762TIP3   OH244480   6.608   4.433  12.363  0.1048 -0.3885  0.0921
 6762TIP3    H144481   6.562   4.468  12.439  1.5548 -2.0030  1.7762
 6762TIP3    H244482   6.544   4.378  12.319  0.2925 -2.6845  2.4596
 6763TIP3   OH244483   3.789   4.003  12.306  0.1480  0.3746 -0.6529
 6763TIP3    H144484   3.733   3.978  12.233  1.3779 -1.4755 -1.0468
 6763TIP3    H244485   3.729   4.039  12.372 -0.9208  2.5999 -2.7176
 6764TIP3   OH244486   5.825   1.645  11.750 -0.1411 -0.0111  0.2458
 6764TIP3    H144487   5.795   1.718  11.805 -2.2321 -0.6226  0.0300
 6764TIP3    H244488   5.789   1.664  11.664  2.7632  0.7260 -0.8884
 6765TIP3   OH244489   1.422   2.975  10.849 -0.2035 -0.1391 -0.1925
 6765TIP3    H144490   1.473   2.940  10.776 -0.4078 -0.7248 -0.0598
 6765TIP3    H244491   1.356   3.031  10.807  0.2177  0.2069 -0.3962
 6766TIP3   OH244492   8.438   1.022  11.275  0.4526  0.1579 -0.1639
 6766TIP3    H144493   8.527   0.991  11.291  0.0493 -1.0117 -0.1216
 6766TIP3    H244494   8.393   1.011  11.359  0.3837  1.2079 -0.0425
 6767TIP3   OH244495   3.460   3.843  10.826  1.1599  0.4632 -0.2143
 6767TIP3    H144496   3.399   3.912  10.802  0.1347 -0.4477 -0.2987
 6767TIP3    H244497   3.536   3.889  10.863  1.2131  1.7133 -1.7852
 6768TIP3   OH244498   6.249   4.747  12.421 -0.2025  0.3834 -0.4990
 6768TIP3    H144499   6.186   4.763  12.352 -1.1168  0.9096  0.4245
 6768TIP3    H244500   6.201   4.763  12.502  0.6077 -0.9853  0.3016
 6769TIP3   OH244501   3.242   0.465  12.347  0.0369 -0.3477  0.3353
 6769TIP3    H144502   3.312   0.414  12.388 -0.8082 -0.3943  1.8339
 6769TIP3    H244503   3.167   0.405  12.347 -0.3392  0.1153 -0.0642
 6770TIP3   OH244504   1.941   7.421  12.428  0.1088  0.2398 -0.2288
 6770TIP3    H144505   1.953   7.408  12.334  0.0800 -0.1945 -0.1772
 6770TIP3    H244506   1.971   7.339  12.468  0.4847  0.5637  0.1693
 6771TIP3   OH244507   5.056   3.295  10.415 -0.7205  0.0185 -0.7358
 6771TIP3    H144508   5.007   3.333  10.489 -0.7488  0.4254 -0.9571
 6771TIP3    H244509   5.052   3.201  10.430  2.5088  0.1053  1.8822
 6772TIP3   OH244510   6.893   6.459  10.939 -0.0213 -0.3584  0.0718
 6772TIP3    H144511   6.955   6.521  10.903 -0.3014 -0.6194 -0.8778
 6772TIP3    H244512   6.947   6.394  10.984  0.3714 -0.3358 -0.3591
 6773TIP3   OH244513   2.015   2.779  11.083 -0.1896  0.3306  0.2260
 6773TIP3    H144514   1.951   2.759  11.151  0.5950 -0.3809  0.7849
 6773TIP3    H244515   2.088   2.720  11.101  0.4463  0.8211 -0.6490
 6774TIP3   OH244516   4.089   6.725  12.226 -0.2574 -0.4444 -0.2752
 6774TIP3    H144517   4.075   6.635  12.257 -0.3194 -1.1526 -2.2309
 6774TIP3    H244518   4.109   6.715  12.133 -0.8599  1.6328 -0.6650
 6775TIP3   OH244519   4.120   5.808  12.277  0.0424  0.2038  0.2260
 6775TIP3    H144520   4.084   5.883  12.228 -0.0850 -0.4643 -0.7337
 6775TIP3    H244521   4.148   5.846  12.360  0.1228  1.3584 -0.2963
 6776TIP3   OH244522   8.023   2.575  10.834  0.2209 -0.1595  0.2553
 6776TIP3    H144523   7.936   2.551  10.802 -0.7224  1.0764  1.7476
 6776TIP3    H244524   8.014   2.667  10.861  2.8679  1.0663 -2.4875
 6777TIP3   OH244525   3.494   5.291  10.551  0.4420 -0.0282  0.8206
 6777TIP3    H144526   3.498   5.324  10.461 -0.2972 -0.7676  0.5060
 6777TIP3    H244527   3.422   5.339  10.591  0.5387  0.0403  0.9128
 6778TIP3   OH244528   7.799   4.016  10.850 -0.2823 -0.0899 -0.1416
 6778TIP3    H144529   7.726   4.014  10.788 -0.0182  0.1058 -0.4653
 6778TIP3    H244530   7.874   3.982  10.801  0.5226  2.3512 -0.7503
 6779TIP3   OH244531   2.281   5.795  12.303  0.0788 -0.0040  0.0574
 6779TIP3    H144532   2.244   5.794  12.214 -1.3998 -2.5083  0.5931
 6779TIP3    H244533   2.214   5.752  12.357  2.5215 -2.0996  1.6433
 6780TIP3   OH244534   1.090   7.255  11.709  0.2685  0.3357 -0.7199
 6780TIP3    H144535   1.114   7.166  11.734 -1.4933 -0.5189 -1.8364
 6780TIP3    H244536   1.046   7.245  11.624  0.6951  2.3712 -1.2359
 6781TIP3   OH244537   6.339   1.109  12.161  0.3009 -0.7361  0.1134
 6781TIP3    H144538   6.244   1.113  12.146  0.3788 -0.1130 -0.2728
 6781TIP3    H244539   6.348   1.077  12.250 -0.2430 -2.0028 -0.2646
 6782TIP3   OH244540   0.489   1.255  12.361 -0.9737  0.0658  0.0748
 6782TIP3    H144541   0.570   1.263  12.410 -0.0900 -3.0172 -0.6628
 6782TIP3    H244542   0.473   1.161  12.356 -2.1985  0.3049 -3.5876
 6783TIP3   OH244543   2.146   6.996  10.221  0.0185  0.1238  0.0042
 6783TIP3    H144544   2.106   6.917  10.184  0.1078  0.1443 -0.1372
 6783TIP3    H244545   2.157   6.976  10.314 -1.8413  0.7294  0.3809
 6784TIP3   OH244546   8.047   6.769  11.894 -0.5458 -0.2064 -0.1593
 6784TIP3    H144547   8.045   6.801  11.984 -0.9741 -0.6837  0.0042
 6784TIP3    H244548   8.140   6.772  11.870  0.0030 -2.6261  1.2567
 6785TIP3   OH244549   7.765   5.628  11.519  0.4057 -0.3124  0.5835
 6785TIP3    H144550   7.858   5.639  11.497  0.4897 -1.3534  0.3501
 6785TIP3    H244551   7.719   5.680  11.454  0.7492 -1.5573 -0.7033
 6786TIP3   OH244552   4.348   4.215  11.312  0.2494 -0.1180 -0.1250
 6786TIP3    H144553   4.396   4.266  11.247 -0.8915 -0.8700 -1.6041
 6786TIP3    H244554   4.415   4.163  11.356  1.0223  0.3137 -0.7633
 6787TIP3   OH244555   3.372   5.884  10.974  0.8552 -0.3017 -0.5723
 6787TIP3    H144556   3.334   5.844  11.053 -1.5093  1.5608 -0.6097
 6787TIP3    H244557   3.441   5.941  11.007  1.7440 -1.5918 -0.1609
 6788TIP3   OH244558   1.704   8.201  10.858 -0.4206  0.0612  0.2130
 6788TIP3    H144559   1.743   8.274  10.906  0.4740  0.2281 -0.7340
 6788TIP3    H244560   1.679   8.238  10.773  0.9409 -0.9198 -0.6593
 6789TIP3   OH244561   6.994   1.331  10.928  0.4254  0.0900  0.1698
 6789TIP3    H144562   6.922   1.271  10.946 -0.5579  1.0985 -0.2767
 6789TIP3    H244563   7.028   1.354  11.014 -0.4339  0.3690  0.4389
 6790TIP3   OH244564   3.376   6.709  10.763 -0.0601 -0.1613  0.2436
 6790TIP3    H144565   3.362   6.803  10.753  0.7912  0.1103  1.2982
 6790TIP3    H244566   3.422   6.682  10.684 -0.0196  0.3778  0.0832
 6791TIP3   OH244567   2.864   1.232  12.584 -0.3940  0.2555 -0.0147
 6791TIP3    H144568   2.854   1.137  12.587 -2.3909  0.3193 -2.0814
 6791TIP3    H244569   2.821   1.263  12.664  0.2108 -0.5731  0.6374
 6792TIP3   OH244570   4.975   7.499  12.549  0.3673 -0.2458 -0.1526
 6792TIP3    H144571   4.966   7.556  12.626 -1.3729 -1.6003  0.7257
 6792TIP3    H244572   5.057   7.452  12.564  1.5949  1.6022 -0.6656
 6793TIP3   OH244573   4.791   7.633  11.864 -0.0684  0.1100  0.2860
 6793TIP3    H144574   4.833   7.709  11.824 -0.3515 -0.4263 -1.0959
 6793TIP3    H244575   4.821   7.559  11.811 -0.7411 -0.5907  0.8631
 6794TIP3   OH244576   6.233   4.978  10.373 -0.2074  0.1370 -0.2187
 6794TIP3    H144577   6.183   4.977  10.455 -1.8296 -0.2670 -1.1805
 6794TIP3    H244578   6.230   4.888  10.342 -0.8001  0.5546 -1.4089
 6795TIP3   OH244579   3.452   3.552  11.741 -0.3092 -0.2972  0.1709
 6795TIP3    H144580   3.410   3.556  11.827 -0.3253  0.9851  0.1292
 6795TIP3    H244581   3.379   3.550  11.678 -0.2980 -0.9448  0.1756
 6796TIP3   OH244582   1.870   8.195  12.255 -0.4704 -0.7605  0.2702
 6796TIP3    H144583   1.878   8.100  12.243  1.4339 -0.4083 -2.1021
 6796TIP3    H244584   1.792   8.219  12.205 -0.2205 -0.9439 -0.2177
 6797TIP3   OH244585   3.969   1.737  12.115  0.3704 -0.1692 -0.3198
 6797TIP3    H144586   3.975   1.668  12.181 -0.6849  1.2316  1.3385
 6797TIP3    H244587   3.876   1.739  12.091  0.2620  1.0205  0.1070
 6798TIP3   OH244588   1.356   5.107  12.462  0.0610  0.1148 -0.5849
 6798TIP3    H144589   1.291   5.093  12.530  1.3824  0.6395  0.8346
 6798TIP3    H244590   1.398   5.021  12.452 -0.2397 -0.0014 -0.8544
 6799TIP3   OH244591   6.450   4.258  11.226  0.1629  0.1917  0.0882
 6799TIP3    H144592   6.459   4.233  11.134 -1.2810  0.0236 -0.0332
 6799TIP3    H244593   6.527   4.222  11.268  1.0151  0.5420 -1.1060
 6800TIP3   OH244594   6.233   3.424  10.773 -0.0977  0.1590  0.3833
 6800TIP3    H144595   6.203   3.354  10.716 -0.6482  1.5694 -1.1293
 6800TIP3    H244596   6.327   3.407  10.786  0.1325  0.0515 -1.2993
 6801TIP3   OH244597   6.614   7.857  12.788 -0.4933  0.6039 -0.2604
 6801TIP3    H144598   6.597   7.819  12.701  1.9816 -0.4585 -0.3722
 6801TIP3    H244599   6.600   7.784  12.848 -1.4310  1.1353  0.1875
 6802TIP3   OH244600   5.263   5.257  12.063 -0.8144 -0.1427  0.5924
 6802TIP3    H144601   5.303   5.344  12.050 -1.5679  0.1718  0.3314
 6802TIP3    H244602   5.194   5.253  11.997 -0.7791 -0.9517  0.6002
 6803TIP3   OH244603   6.816   3.146  11.857  0.1377  0.1229 -0.3345
 6803TIP3    H144604   6.798   3.240  11.849  1.3031  0.3558 -0.4038
 6803TIP3    H244605   6.740   3.103  11.818 -0.2821  1.0393 -0.5472
 6804TIP3   OH244606   0.636   0.122  10.806  0.0551  0.1483 -0.2703
 6804TIP3    H144607   0.603   0.038  10.775 -0.4676  0.3204 -0.1968
 6804TIP3    H244608   0.670   0.165  10.727  0.0359 -0.0002 -0.3599
 6805TIP3   OH244609   1.807   8.347  11.880 -0.4763 -0.6092  0.1300
 6805TIP3    H144610   1.888   8.295  11.878 -0.9063 -1.2750 -0.4784
 6805TIP3    H244611   1.781   8.346  11.972  1.4291  1.5881  0.7696
 6806TIP3   OH244612   1.943   1.874  10.782  0.1284  0.2722  0.0646
 6806TIP3    H144613   1.958   1.964  10.754  0.1488 -0.1491 -1.4178
 6806TIP3    H244614   1.962   1.874  10.876  0.3079  1.7595  0.0551
 6807TIP3   OH244615   5.557   4.853  11.819  0.0356  0.2297  0.0374
 6807TIP3    H144616   5.597   4.794  11.883 -1.0633  0.6115  1.1202
 6807TIP3    H244617   5.535   4.931  11.870  0.0012  0.9303 -1.0278
 6808TIP3   OH244618   4.990   1.279  10.834  0.3986  0.1610 -0.7787
 6808TIP3    H144619   5.015   1.233  10.914 -1.0565 -2.3050 -1.6217
 6808TIP3    H244620   4.895   1.287  10.840  0.4137  1.2038 -1.6579
 6809TIP3   OH244621   5.248   4.542  11.968  0.4543 -0.1443 -0.4228
 6809TIP3    H144622   5.304   4.613  12.000  1.2155  0.2340 -2.4353
 6809TIP3    H244623   5.219   4.572  11.881 -0.7271 -1.5016 -0.5307
 6810TIP3   OH244624   5.070   2.249  11.820  0.1045 -0.4578  0.5999
 6810TIP3    H144625   4.998   2.217  11.764  0.7272  1.4471 -1.4244
 6810TIP3    H244626   5.085   2.338  11.791  3.3586 -0.7956  0.8939
 6811TIP3   OH244627   2.144   6.876  11.096  0.2963  0.2299 -0.0618
 6811TIP3    H144628   2.086   6.833  11.159 -1.5480  1.8583 -0.5848
 6811TIP3    H244629   2.134   6.970  11.113  1.2099  0.6337 -1.5295
 6812TIP3   OH244630   5.554   1.021  10.614  0.1235  0.2708  0.4252
 6812TIP3    H144631   5.490   1.087  10.588  0.8046  0.6170 -0.4648
 6812TIP3    H244632   5.503   0.949  10.649 -0.7061  0.7963  0.3198
 6813TIP3   OH244633   5.217   2.539  10.673 -0.2537  0.9173 -0.4293
 6813TIP3    H144634   5.254   2.461  10.716  0.1255  0.2907 -1.8546
 6813TIP3    H244635   5.241   2.611  10.731  1.2603  0.2426 -0.1579
 6814TIP3   OH244636   7.668   3.364  11.953 -0.3814 -0.2505 -0.0591
 6814TIP3    H144637   7.660   3.272  11.979 -1.0590  0.0442  0.8261
 6814TIP3    H244638   7.578   3.397  11.955 -0.7110 -0.4783 -3.9871
 6815TIP3   OH244639   7.606   3.562  11.239 -0.2693  1.0439  0.1610
 6815TIP3    H144640   7.676   3.614  11.200 -1.1311  0.9051 -1.6679
 6815TIP3    H244641   7.616   3.475  11.199 -0.6490  0.6229  0.9545
 6816TIP3   OH244642   3.260   3.765  11.670  0.3865 -0.2970  0.3693
 6816TIP3    H144643   3.193   3.805  11.725 -0.5381  1.2862 -1.7730
 6816TIP3    H244644   3.342   3.801  11.701 -0.0429  0.0166  1.1521
 6817TIP3   OH244645   5.813   1.659  11.163  0.2198  0.1069  0.2846
 6817TIP3    H144646   5.766   1.579  11.138 -0.6356  0.7836 -0.3026
 6817TIP3    H244647   5.792   1.671  11.255 -0.3450  0.1176  0.1584
 6818TIP3   OH244648   5.457   5.461  12.026  0.3999 -0.5956  0.2166
 6818TIP3    H144649   5.504   5.504  12.097  0.4119 -0.1079 -0.0883
 6818TIP3    H244650   5.518   5.461  11.952  0.8381 -2.1634  0.5409
 6819TIP3   OH244651   0.669   8.424  10.353  0.1076 -1.0946 -0.4671
 6819TIP3    H144652   0.762   8.408  10.338  0.6101  0.3830  0.8139
 6819TIP3    H244653   0.655   8.398  10.444 -0.5384 -0.5348 -0.3992
 6820TIP3   OH244654   5.218   5.394  11.365  0.1525  0.1625  0.3322
 6820TIP3    H144655   5.231   5.325  11.301 -0.4627  0.6397 -0.3127
 6820TIP3    H244656   5.232   5.475  11.317  1.6845  0.4964  1.2609
 6821TIP3   OH244657   4.328   2.132  12.762 -0.0620 -0.1981  0.3206
 6821TIP3    H144658   4.340   2.044  12.798  0.1175 -0.4265 -0.2917
 6821TIP3    H244659   4.236   2.134  12.735  0.1951 -0.5617 -0.6162
 6822TIP3   OH244660   4.122   8.187  11.691  1.0380  0.1263  0.0358
 6822TIP3    H144661   4.197   8.133  11.716 -0.2469 -0.9196  1.8160
 6822TIP3    H244662   4.119   8.181  11.596  0.9867 -2.9271  0.1431
 6823TIP3   OH244663   7.196   4.710  12.366  0.1872  0.5671  0.2475
 6823TIP3    H144664   7.126   4.768  12.398 -0.8845 -0.6577  0.2139
 6823TIP3    H244665   7.270   4.769  12.350 -0.6556  1.8345  0.7909
 6824TIP3   OH244666   6.011   8.365  17.569 -0.3890 -0.4202 -0.0085
 6824TIP3    H144667   6.045   8.454  17.556 -0.3228 -0.8693 -4.6163
 6824TIP3    H244668   6.014   8.325  17.482 -0.9502 -4.8223  1.7258
 6825TIP3   OH244669   4.178   7.150  11.982  0.4610 -0.0395  0.2581
 6825TIP3    H144670   4.128   7.169  12.062 -1.0336 -2.2891 -0.0288
 6825TIP3    H244671   4.152   7.218  11.921  0.7599  1.0639  1.3220
 6826TIP3   OH244672   1.192   1.092  11.601 -0.2847  0.5265 -0.1110
 6826TIP3    H144673   1.109   1.073  11.646 -0.2700  0.0553 -0.2875
 6826TIP3    H244674   1.172   1.170  11.548 -0.0055  1.7917  1.5439
 6827TIP3   OH244675   3.494   5.951  11.364  0.3194 -0.0221  0.1888
 6827TIP3    H144676   3.568   5.922  11.417 -0.5803 -0.2011  1.3926
 6827TIP3    H244677   3.525   5.943  11.274  1.3875 -1.1370  0.6196
 6828TIP3   OH244678   6.429   6.950  12.194  0.0668 -0.1409 -0.2220
 6828TIP3    H144679   6.518   6.916  12.195 -0.2640 -1.0857 -1.4072
 6828TIP3    H244680   6.429   7.020  12.260  0.8979 -2.0895  1.9466
 6829TIP3   OH244681   2.407   4.856  12.113  0.2607 -0.4275 -0.2363
 6829TIP3    H144682   2.431   4.820  12.027  0.7650  1.7743 -1.0897
 6829TIP3    H244683   2.336   4.918  12.094 -1.4295 -1.8068  1.3393
 6830TIP3   OH244684   2.802   6.566  10.893 -0.2888 -0.5821 -0.6891
 6830TIP3    H144685   2.765   6.546  10.807 -0.4868 -1.9298 -0.3120
 6830TIP3    H244686   2.871   6.630  10.875 -2.5930  1.8766 -1.4383
 6831TIP3   OH244687   5.562   0.796  10.908  0.4207 -0.1764  0.5693
 6831TIP3    H144688   5.545   0.880  10.952 -0.5655 -0.0147 -0.0813
 6831TIP3    H244689   5.506   0.798  10.831  0.2890 -1.4889  0.6087
 6832TIP3   OH244690   5.548   2.155  11.190 -0.4201 -0.0964  0.0974
 6832TIP3    H144691   5.485   2.084  11.205 -2.9082  1.7854 -0.6400
 6832TIP3    H244692   5.574   2.183  11.278  0.7549 -1.9506  0.3985
 6833TIP3   OH244693   2.021   5.131  12.153  0.4665  0.3121 -0.6655
 6833TIP3    H144694   1.936   5.090  12.138  0.6914  0.1603 -1.6011
 6833TIP3    H244695   2.003   5.225  12.153  0.5280  0.3592 -2.5912
 6834TIP3   OH244696   0.998   3.000  11.192 -0.3247 -0.1701  0.0539
 6834TIP3    H144697   0.946   3.039  11.262 -1.2961 -0.6848 -0.3634
 6834TIP3    H244698   1.081   2.978  11.233  0.6300  3.0594  0.1465
 6835TIP3   OH244699   3.407   1.267  11.952  0.2148  0.3620  0.5087
 6835TIP3    H144700   3.420   1.234  11.863 -0.4103  0.6148  0.3145
 6835TIP3    H244701   3.477   1.332  11.964 -1.3538  2.4639 -0.8911
 6836TIP3   OH244702   5.000   0.946  11.417  0.1878  0.4946  0.2693
 6836TIP3    H144703   5.074   0.945  11.477  0.9303  1.4292 -0.6040
 6836TIP3    H244704   5.000   1.033  11.379  0.1007 -0.2398 -1.5289
 6837TIP3   OH244705   7.540   3.017  10.783  0.0726  0.4559  0.0485
 6837TIP3    H144706   7.566   3.089  10.725  1.9824 -1.2564 -1.3981
 6837TIP3    H244707   7.476   2.967  10.733 -1.2423  1.0877  1.0411
 6838TIP3   OH244708   7.147   1.984  10.543 -0.2483  0.8586  0.1761
 6838TIP3    H144709   7.234   1.969  10.579 -0.4387  0.8857  0.6513
 6838TIP3    H244710   7.144   2.078  10.526 -0.4109  0.9617  0.7588
 6839TIP3   OH244711   6.221   4.710  10.329  0.1754  0.1196 -0.2993
 6839TIP3    H144712   6.127   4.691  10.320  0.0291  1.7513 -3.5004
 6839TIP3    H244713   6.263   4.624  10.331 -1.3127 -0.6274  0.7227
 6840TIP3   OH244714   6.561   8.310  12.064  0.5064  0.3078  0.0498
 6840TIP3    H144715   6.498   8.334  11.996  1.6570  1.4019 -0.6825
 6840TIP3    H244716   6.594   8.225  12.036  0.5938  0.5166 -0.5038
 6841TIP3   OH244717   6.508   4.180  11.811  0.0912 -0.4784  0.4053
 6841TIP3    H144718   6.518   4.239  11.886  2.7974 -1.9885  1.3691
 6841TIP3    H244719   6.454   4.108  11.844  0.7742 -0.8402  0.7674
 6842TIP3   OH244720   3.609   3.048  11.811  0.5296  0.1366  0.0060
 6842TIP3    H144721   3.564   3.049  11.727 -0.0221  1.6100  0.2844
 6842TIP3    H244722   3.556   2.991  11.866  0.1801  0.1705 -0.2903
 6843TIP3   OH244723   8.274   0.923  12.002 -0.8961 -0.5928 -0.5771
 6843TIP3    H144724   8.218   0.911  11.925  1.7936 -0.4372 -2.6959
 6843TIP3    H244725   8.326   1.000  11.983 -0.9930  0.2327  2.0475
 6844TIP3   OH244726   3.640   5.119  11.754 -0.4351  0.1841  0.5613
 6844TIP3    H144727   3.728   5.146  11.726 -1.3170 -0.0616 -2.8337
 6844TIP3    H244728   3.653   5.031  11.789  0.8050  0.5898  1.2052
 6845TIP3   OH244729   2.851   5.900  10.786  0.5485  0.0617 -0.5918
 6845TIP3    H144730   2.887   5.953  10.715  2.8519 -0.3675  0.1612
 6845TIP3    H244731   2.914   5.828  10.796 -1.1379 -1.3866  0.1246
 6846TIP3   OH244732   4.095   5.830  11.194 -0.1388  0.1849  0.2476
 6846TIP3    H144733   4.053   5.914  11.217  0.4581  0.9328 -1.2892
 6846TIP3    H244734   4.022   5.773  11.169 -0.4071  0.8300 -0.4632
 6847TIP3   OH244735   7.526   5.858  11.723 -0.1208 -0.2805 -0.1226
 6847TIP3    H144736   7.503   5.917  11.795  0.9322 -1.3743  1.1867
 6847TIP3    H244737   7.448   5.855  11.668 -0.7254  1.1266  0.5923
 6848TIP3   OH244738   1.720   6.303  11.609  0.6434 -0.0137 -0.2193
 6848TIP3    H144739   1.665   6.226  11.597 -1.2559  1.3621 -0.9576
 6848TIP3    H244740   1.781   6.279  11.677 -0.2934 -1.9602 -0.0011
 6849TIP3   OH244741   1.104   0.132  10.746  0.1681 -0.0796 -0.2093
 6849TIP3    H144742   1.069   0.220  10.738 -1.7092 -0.7221  0.3923
 6849TIP3    H244743   1.182   0.142  10.800 -0.7289  1.0727  0.9418
 6850TIP3   OH244744   4.043   0.829  12.371  0.6435 -0.2368 -0.4338
 6850TIP3    H144745   3.962   0.838  12.422  1.5097  1.4084  0.7378
 6850TIP3    H244746   4.074   0.740  12.391  2.0516  0.9898  3.7578
 6851TIP3   OH244747   3.717   7.988  10.710  0.5171 -0.5165 -0.3843
 6851TIP3    H144748   3.767   8.042  10.772  0.3913 -0.6320 -0.1816
 6851TIP3    H244749   3.691   7.912  10.761  1.4895 -1.2256 -0.9197
 6852TIP3   OH244750   3.203   2.167  11.499 -0.5188  0.4429  0.3455
 6852TIP3    H144751   3.117   2.165  11.458 -0.7394  0.8759  0.7782
 6852TIP3    H244752   3.188   2.208  11.584 -0.5945 -2.9915  2.1541
 6853TIP3   OH244753   5.330   1.203  10.637  0.0229 -0.2686  0.2389
 6853TIP3    H144754   5.287   1.288  10.644  0.2646  0.2358 -2.9144
 6853TIP3    H244755   5.261   1.143  10.608  0.3036 -0.6768  0.4037
 6854TIP3   OH244756   1.332   6.818  10.830 -0.2509  0.2496  0.0338
 6854TIP3    H144757   1.237   6.814  10.824 -0.2913  0.6462  0.3878
 6854TIP3    H244758   1.355   6.906  10.799  0.0186  0.0972 -0.2178
 6855TIP3   OH244759   7.180   0.471  12.529 -0.0747  0.3363  0.0226
 6855TIP3    H144760   7.154   0.403  12.591  0.8002  1.1587  1.3516
 6855TIP3    H244761   7.104   0.529  12.524 -0.2679  0.0899  0.0870
 6856TIP3   OH244762   8.281   2.483  10.823  0.2238  0.3861  0.3859
 6856TIP3    H144763   8.193   2.519  10.832 -0.3534 -1.2578  1.9561
 6856TIP3    H244764   8.267   2.393  10.794  1.2602 -0.3830  2.1033
 6857TIP3   OH244765   1.640   2.774  11.136  0.7659  0.1963 -0.1047
 6857TIP3    H144766   1.684   2.851  11.099  0.5860  0.0833 -0.5609
 6857TIP3    H244767   1.558   2.768  11.087 -1.2153  2.1291  2.5763
 6858TIP3   OH244768   2.990   4.222  11.241  0.1407  0.9403 -0.3450
 6858TIP3    H144769   2.953   4.136  11.220 -2.1637  2.2242 -2.2141
 6858TIP3    H244770   3.072   4.204  11.285 -0.1024 -2.2064 -0.9700
 6859TIP3   OH244771   5.161   2.270  11.287  0.3543 -0.1796 -0.2452
 6859TIP3    H144772   5.207   2.275  11.203 -0.7835 -0.3691 -0.9076
 6859TIP3    H244773   5.230   2.273  11.353  1.2609  0.1410 -1.1842
 6860TIP3   OH244774   3.438   5.685  11.463  0.4127  0.6041  0.0574
 6860TIP3    H144775   3.359   5.739  11.454  0.7095  1.4186  2.0171
 6860TIP3    H244776   3.496   5.716  11.393 -0.9089  0.0763 -1.3387
 6861TIP3   OH244777   2.807   0.264  12.782  0.6043 -0.0020  0.0999
 6861TIP3    H144778   2.722   0.295  12.815  0.1848 -1.2579  0.2416
 6861TIP3    H244779   2.796   0.263  12.687  1.5237  2.7784 -0.1311
 6862TIP3   OH244780   0.726   3.949  10.802 -0.0940 -0.3529 -0.3658
 6862TIP3    H144781   0.659   3.893  10.841  0.3736 -0.3262  0.5194
 6862TIP3    H244782   0.696   3.965  10.713 -2.0986  0.9767  0.4749
 6863TIP3   OH244783   5.669   6.590  11.381 -0.1541 -0.1696  0.3333
 6863TIP3    H144784   5.576   6.568  11.380 -0.0554 -0.6150 -0.8972
 6863TIP3    H244785   5.690   6.606  11.289  0.8313  0.5938  0.6843
 6864TIP3   OH244786   1.508   6.147  10.491 -0.1766  0.0677  0.8462
 6864TIP3    H144787   1.441   6.079  10.492 -0.5119  0.3978  1.0765
 6864TIP3    H244788   1.571   6.117  10.425  0.1113 -0.8675  1.5208
 6865TIP3   OH244789   6.596   3.909  11.277 -0.1977 -0.0673 -0.0609
 6865TIP3    H144790   6.629   3.819  11.284  0.3694  0.0957 -0.5308
 6865TIP3    H244791   6.501   3.900  11.287 -0.1059 -0.6640  0.3508
 6866TIP3   OH244792   5.296   6.303  10.411  0.6053  0.2195 -0.1590
 6866TIP3    H144793   5.344   6.270  10.487  0.0912 -1.0136 -0.3410
 6866TIP3    H244794   5.278   6.225  10.358 -0.0833  0.8953 -0.9582
 6867TIP3   OH244795   5.904   7.848  11.848  0.1826 -0.1552  0.0701
 6867TIP3    H144796   5.881   7.799  11.769 -1.3363 -0.5645  0.7210
 6867TIP3    H244797   5.823   7.892  11.873  0.4529 -0.5263  1.7272
 6868TIP3   OH244798   0.056   6.304  11.067 -0.2092  0.1074 -0.1259
 6868TIP3    H144799  -0.026   6.278  11.024  0.3479  0.0468 -1.1823
 6868TIP3    H244800   0.085   6.381  11.018  0.0102  0.5562  0.6925
 6869TIP3   OH244801   4.753   4.613  12.383  0.0663  0.0605  0.8213
 6869TIP3    H144802   4.713   4.674  12.321  0.4703  0.7912  1.2582
 6869TIP3    H244803   4.829   4.660  12.417  0.2845 -0.6230  1.3057
 6870TIP3   OH244804   2.394   6.803  11.343  0.1955  0.0678 -0.1129
 6870TIP3    H144805   2.351   6.769  11.422  0.7348  1.6132  0.8853
 6870TIP3    H244806   2.391   6.730  11.282 -0.6224 -1.0430  1.1817
 6871TIP3   OH244807   4.861   7.661  11.509  0.5442  0.5912  0.1051
 6871TIP3    H144808   4.930   7.697  11.565  0.5325 -0.0278  0.5207
 6871TIP3    H244809   4.833   7.735  11.455  1.3045  0.9256  0.1629
 6872TIP3   OH244810   1.541   2.579  10.928 -0.1947 -0.1143 -0.6149
 6872TIP3    H144811   1.605   2.604  10.862  0.7789  0.4139  0.4965
 6872TIP3    H244812   1.457   2.611  10.894  0.0994 -0.9135 -2.1331
 6873TIP3   OH244813   5.971   7.140  10.579 -0.6755 -0.7613 -0.1554
 6873TIP3    H144814   6.038   7.112  10.518  0.2593 -0.6627  0.8007
 6873TIP3    H244815   5.896   7.084  10.559  0.0833 -1.6955 -0.4431
 6874TIP3   OH244816   5.699   1.083  12.112  0.0082  0.1298 -0.1393
 6874TIP3    H144817   5.670   1.116  12.027  0.4487  0.8470 -0.0184
 6874TIP3    H244818   5.765   1.016  12.090 -0.8195 -0.6235 -0.3823
 6875TIP3   OH244819   5.478   2.096  12.111 -0.2965 -0.0073 -0.1062
 6875TIP3    H144820   5.503   2.146  12.189 -1.0296  1.7077 -0.9060
 6875TIP3    H244821   5.505   2.006  12.130 -0.1881  0.4121  1.9949
 6876TIP3   OH244822   3.016   0.282  12.307 -0.8199 -0.4662  0.3447
 6876TIP3    H144823   2.959   0.347  12.349 -0.3744 -0.2417  0.6103
 6876TIP3    H244824   3.005   0.298  12.213 -0.4068  0.2766  0.4126
 6877TIP3   OH244825   0.333   2.790  11.893  0.5326 -0.0714 -0.0758
 6877TIP3    H144826   0.382   2.750  11.964 -0.7928  0.0990  0.9772
 6877TIP3    H244827   0.367   2.749  11.813  1.6483 -0.6816  0.6988
 6878TIP3   OH244828   5.528   1.622  12.580  0.2004  0.1800 -0.4530
 6878TIP3    H144829   5.445   1.668  12.579  1.2294  2.2442  1.0850
 6878TIP3    H244830   5.519   1.556  12.649 -0.5272 -0.4360 -1.1207
 6879TIP3   OH244831   1.775   7.330  10.709  0.1270 -0.6102 -0.1867
 6879TIP3    H144832   1.864   7.312  10.682  0.7987  0.9079  0.8510
 6879TIP3    H244833   1.760   7.421  10.682 -1.0654 -0.8040 -0.2369
 6880TIP3   OH244834   4.615   5.331  11.095  0.0621  0.1820 -0.1988
 6880TIP3    H144835   4.656   5.410  11.130 -0.1913  0.9047 -1.4895
 6880TIP3    H244836   4.686   5.285  11.049  0.0775 -0.0731  0.0706
 6881TIP3   OH244837   4.053   4.142  10.620 -0.5203  0.4526  0.3824
 6881TIP3    H144838   4.076   4.049  10.615 -0.7008  0.4601 -0.9234
 6881TIP3    H244839   4.117   4.179  10.680 -0.0308 -0.3967  0.4010
 6882TIP3   OH244840   2.575   1.506  12.709  0.4480  0.5952  0.3558
 6882TIP3    H144841   2.648   1.471  12.761  1.6255 -0.7603 -2.0434
 6882TIP3    H244842   2.614   1.575  12.656 -0.1951  0.3683 -0.4226
 6883TIP3   OH244843   3.842   0.480  11.270 -0.1043  0.1842 -0.0213
 6883TIP3    H144844   3.776   0.412  11.253  0.5358  0.1884 -3.2823
 6883TIP3    H244845   3.811   0.525  11.348 -3.0737 -0.8695 -0.4647
 6884TIP3   OH244846   4.979   2.820  10.345 -0.4794 -0.3449  0.2790
 6884TIP3    H144847   5.033   2.743  10.327  0.2581 -0.0142  1.0495
 6884TIP3    H244848   5.041   2.891  10.362 -1.1319 -0.0552  1.5682
 6885TIP3   OH244849   5.536   4.244  11.465  0.2515 -0.4538 -0.2017
 6885TIP3    H144850   5.563   4.326  11.507  1.6244 -1.2450  0.5575
 6885TIP3    H244851   5.592   4.238  11.388  2.6108 -2.2021  1.4827
 6886TIP3   OH244852   0.760   4.144  12.899 -0.5402  0.1138  0.6795
 6886TIP3    H144853   0.675   4.185  12.881 -0.8487 -1.0213 -0.6049
 6886TIP3    H244854   0.751   4.055  12.867  0.5393 -0.6096  2.2472
 6887TIP3   OH244855   2.806   7.260  12.379  0.4544 -0.3053 -0.0498
 6887TIP3    H144856   2.873   7.214  12.328  1.6927 -0.2570  1.4592
 6887TIP3    H244857   2.790   7.341  12.330  3.1297  0.7191  0.5867
 6888TIP3   OH244858   2.330   5.939  10.837  0.0694 -0.2893  0.8206
 6888TIP3    H144859   2.297   5.941  10.927  1.1054  0.1067  1.2096
 6888TIP3    H244860   2.418   5.902  10.844 -0.6049 -2.2517 -0.3162
 6889TIP3   OH244861   4.248   4.671  10.879 -0.0231 -0.1529 -0.4032
 6889TIP3    H144862   4.334   4.704  10.853  0.1863 -0.2647  0.1135
 6889TIP3    H244863   4.188   4.744  10.862 -0.2512 -0.8559 -2.9946
 6890TIP3   OH244864   3.120   1.519  10.595 -0.4762  0.3094  0.0225
 6890TIP3    H144865   3.075   1.603  10.598  0.7287  1.1182 -2.1805
 6890TIP3    H244866   3.052   1.454  10.616 -1.7440  1.7135  0.4194
 6891TIP3   OH244867   5.558   5.730  10.690 -0.1266  0.3102 -0.2905
 6891TIP3    H144868   5.627   5.677  10.730  0.6788  1.7681  0.3070
 6891TIP3    H244869   5.597   5.765  10.610  1.0869  3.7191  1.5797
 6892TIP3   OH244870   4.909   0.816  12.737 -0.5680 -0.1915 -0.3351
 6892TIP3    H144871   4.910   0.734  12.688 -0.1450 -0.3657 -0.0413
 6892TIP3    H244872   5.001   0.840  12.746 -0.6724  0.1393 -0.1250
 6893TIP3   OH244873   3.749   7.443  12.553  0.4077 -0.1838 -0.0589
 6893TIP3    H144874   3.766   7.355  12.586  2.1414 -0.2652 -1.0666
 6893TIP3    H244875   3.836   7.480  12.537 -0.3180  1.1386 -1.1266
 6894TIP3   OH244876   2.151   3.567  11.885 -0.5805  0.5267 -0.3074
 6894TIP3    H144877   2.102   3.646  11.908 -0.4024  0.0228  1.9658
 6894TIP3    H244878   2.114   3.498  11.940 -0.1821 -0.8408 -1.6582
 6895TIP3   OH244879   8.408   3.892  11.451  0.0990 -0.2289 -1.0710
 6895TIP3    H144880   8.475   3.957  11.431  0.3504 -0.0721  0.1590
 6895TIP3    H244881   8.340   3.906  11.385  1.4832 -0.7348 -2.6683
 6896TIP3   OH244882   5.085   3.028  10.503 -0.5702  0.1093 -0.3923
 6896TIP3    H144883   5.173   2.996  10.521 -0.3917 -0.3698 -1.9099
 6896TIP3    H244884   5.032   2.998  10.577  0.3585 -0.4009  0.0770
 6897TIP3   OH244885   4.994   6.424  11.081  0.1956 -0.0347  0.1016
 6897TIP3    H144886   5.030   6.345  11.122  0.7239 -0.4272 -1.0999
 6897TIP3    H244887   5.002   6.409  10.987 -1.9843  0.3848 -0.2144
 6898TIP3   OH244888   0.316   6.846  10.794 -0.5771 -0.4274 -0.4593
 6898TIP3    H144889   0.352   6.914  10.852  1.2311 -1.5179 -0.2455
 6898TIP3    H244890   0.221   6.853  10.807 -0.2888 -1.3851  3.6187
 6899TIP3   OH244891   4.752   2.140  11.043 -0.8377  0.4958  0.4384
 6899TIP3    H144892   4.725   2.184  10.962 -3.2854  1.0891  1.4617
 6899TIP3    H244893   4.742   2.207  11.111  1.6082  0.1428  1.2134
 6900TIP3   OH244894   8.156   5.524  10.593  1.1455  0.4524 -0.6533
 6900TIP3    H144895   8.074   5.571  10.576  0.7790  0.8982  1.9024
 6900TIP3    H244896   8.135   5.432  10.573 -0.6130  0.2690  1.5575
 6901TIP3   OH244897   8.032   2.287  11.477 -0.2036 -0.1747 -0.5844
 6901TIP3    H144898   7.994   2.291  11.389 -2.0140  0.7197  0.1801
 6901TIP3    H244899   8.109   2.343  11.472 -0.9509  0.8377 -1.3411
 6902TIP3   OH244900   6.316   4.043  12.077  0.1575 -0.0284  0.1659
 6902TIP3    H144901   6.310   3.981  12.150  0.7418  1.3212  1.3946
 6902TIP3    H244902   6.392   4.097  12.097  0.0013  0.7324 -1.1753
 6903TIP3   OH244903   7.468   1.849  11.049 -0.5687  0.5181  0.0188
 6903TIP3    H144904   7.524   1.890  10.983 -0.0238 -0.9343 -0.4598
 6903TIP3    H244905   7.528   1.794  11.100 -1.2126  0.6192  0.9114
 6904TIP3   OH244906   3.027   5.679  10.776 -0.4158  0.6092 -0.9430
 6904TIP3    H144907   2.995   5.700  10.688 -0.0542  1.9878 -0.7593
 6904TIP3    H244908   3.122   5.694  10.771 -0.1749 -0.6989 -0.7002
 6905TIP3   OH244909   0.702   5.745  10.738  0.5918  1.0404  0.4197
 6905TIP3    H144910   0.740   5.828  10.712  0.8399  0.7479 -0.1516
 6905TIP3    H244911   0.609   5.754  10.716  0.9326  0.4875 -1.3970
 6906TIP3   OH244912   7.174   7.163  11.192 -0.2516 -0.7701 -0.8728
 6906TIP3    H144913   7.151   7.135  11.280 -3.2105  0.2536 -1.2091
 6906TIP3    H244914   7.141   7.093  11.135 -1.4691  0.0965 -1.2943
 6907TIP3   OH244915   3.671   8.403  11.530 -0.7034  0.3214  0.0053
 6907TIP3    H144916   3.643   8.323  11.574 -0.8538  0.8643  0.9386
 6907TIP3    H244917   3.622   8.473  11.574 -0.8152  0.8960 -1.0041
 6908TIP3   OH244918   1.201   2.443  11.884  0.3975  0.1076 -0.5623
 6908TIP3    H144919   1.125   2.476  11.931 -0.2140 -1.2372 -0.5642
 6908TIP3    H244920   1.269   2.434  11.951 -0.1144 -0.7009 -0.1407
 6909TIP3   OH244921   2.197   6.713  11.538 -0.0107 -0.0176 -0.1300
 6909TIP3    H144922   2.231   6.705  11.628 -0.3976  0.2542  0.0441
 6909TIP3    H244923   2.107   6.681  11.543 -0.1724  0.3960 -0.3271
 6910TIP3   OH244924   6.965   3.529  10.696 -0.0988  0.0500 -0.0026
 6910TIP3    H144925   6.991   3.438  10.715  0.0670 -0.2836 -1.6439
 6910TIP3    H244926   7.035   3.582  10.735  0.3338 -0.5831  0.1064
 6911TIP3   OH244927   7.162   1.139  11.599 -0.7595  0.1129  0.6151
 6911TIP3    H144928   7.212   1.141  11.518 -0.3177  0.1756  0.8879
 6911TIP3    H244929   7.134   1.047  11.607  1.5155 -0.5617  1.7800
 6912TIP3   OH244930   4.166   0.229  11.101  0.2878 -0.3682 -0.4787
 6912TIP3    H144931   4.200   0.311  11.136 -0.3016 -0.3832  0.1306
 6912TIP3    H244932   4.241   0.169  11.104  0.3731 -0.2264  0.2993
 6913TIP3   OH244933   7.312   7.537  10.907 -0.2081 -0.1853  0.0543
 6913TIP3    H144934   7.373   7.538  10.833 -0.8438  1.1455 -0.4809
 6913TIP3    H244935   7.344   7.466  10.963  0.6319 -0.8328 -1.2007
 6914TIP3   OH244936   2.412   5.160  10.526 -0.7970  0.4545 -0.2878
 6914TIP3    H144937   2.359   5.206  10.460 -0.4833 -1.5732 -2.0522
 6914TIP3    H244938   2.498   5.201  10.520 -0.5295 -0.2656 -1.8159
 6915TIP3   OH244939   3.859   2.448  11.446 -0.5105  0.2000 -0.5062
 6915TIP3    H144940   3.951   2.445  11.474  0.4326  2.2287 -3.0138
 6915TIP3    H244941   3.809   2.439  11.527  1.9128  0.7272  1.1625
 6916TIP3   OH244942   4.868   8.047  10.710 -0.2804  0.0450 -0.3341
 6916TIP3    H144943   4.916   8.107  10.767  1.1051 -1.3781  0.0813
 6916TIP3    H244944   4.777   8.076  10.716  0.0945  1.0542  1.1671
 6917TIP3   OH244945   5.895   4.725  11.037 -0.0906 -0.3117 -0.8011
 6917TIP3    H144946   5.941   4.709  11.120 -1.5657 -0.9829 -0.0777
 6917TIP3    H244947   5.804   4.739  11.062 -0.3311  0.8719 -2.2127
 6918TIP3   OH244948   3.249   4.110  11.305  0.6058  0.1813 -0.0194
 6918TIP3    H144949   3.259   4.025  11.346 -0.2369  0.7858  1.5233
 6918TIP3    H244950   3.295   4.102  11.221 -0.8830 -2.3154 -0.7038
 6919TIP3   OH244951   2.100   8.196  10.437 -0.7866 -0.0522  0.4539
 6919TIP3    H144952   2.031   8.232  10.493 -1.6545  0.3009 -0.7893
 6919TIP3    H244953   2.119   8.267  10.375  0.5257 -0.2424  0.6203
 6920TIP3   OH244954   4.229   7.511  12.180 -0.0698  0.0798  0.4212
 6920TIP3    H144955   4.264   7.518  12.268  0.1053 -1.6140  0.5171
 6920TIP3    H244956   4.181   7.428  12.179 -0.6597  0.3967 -0.8794
 6921TIP3   OH244957   3.475   1.917  11.004 -0.0930 -0.4434 -0.5168
 6921TIP3    H144958   3.517   1.899  11.088  1.8241  0.2101 -1.2599
 6921TIP3    H244959   3.405   1.979  11.025  0.0983 -0.6009  0.6478
 6922TIP3   OH244960   2.703   5.677  11.014 -0.6784  0.2276  0.3361
 6922TIP3    H144961   2.720   5.626  10.934 -1.7260  0.8756 -0.3146
 6922TIP3    H244962   2.610   5.664  11.032 -0.9364  1.7557  0.2462
 6923TIP3   OH244963   1.524   1.790  11.097 -0.2826 -0.8137  0.0322
 6923TIP3    H144964   1.541   1.881  11.118 -0.8530 -0.7105  0.0574
 6923TIP3    H244965   1.505   1.790  11.003 -0.0727 -0.9383 -0.0114
 6924TIP3   OH244966   7.110   4.651  12.124  0.0643  0.1252 -0.0760
 6924TIP3    H144967   7.142   4.688  12.206  1.2389 -1.3411  0.1706
 6924TIP3    H244968   7.130   4.558  12.130 -0.3382 -0.1111 -1.7977
 6925TIP3   OH244969   2.782   1.681  11.343 -0.3067 -0.1838 -0.0748
 6925TIP3    H144970   2.830   1.764  11.335 -0.1968 -0.1236  1.0479
 6925TIP3    H244971   2.698   1.706  11.383 -0.6414 -0.5001 -0.5736
 6926TIP3   OH244972   6.670   5.768  10.778 -0.4121  0.3547 -0.1321
 6926TIP3    H144973   6.672   5.859  10.807 -0.3284  0.1694  0.4567
 6926TIP3    H244974   6.714   5.769  10.693  0.4995  0.7072  0.3265
 6927TIP3   OH244975   3.923   4.564  11.295  0.2997  0.2810 -0.1957
 6927TIP3    H144976   3.999   4.573  11.352  0.4561  0.0462 -0.3604
 6927TIP3    H244977   3.899   4.653  11.272  0.9303  0.3475 -0.6601
 6928TIP3   OH244978   0.189   4.416  11.462  0.4301 -0.1858  0.0212
 6928TIP3    H144979   0.283   4.398  11.456  0.4255 -0.5254  0.7527
 6928TIP3    H244980   0.175   4.437  11.554 -0.1672  0.1355 -0.1401
 6929TIP3   OH244981   4.828   7.355  12.087  0.4981  0.5161  0.5321
 6929TIP3    H144982   4.758   7.327  12.146  0.4416 -0.6104 -0.0620
 6929TIP3    H244983   4.901   7.296  12.107  0.9131  0.9709  0.3754
 6930TIP3   OH244984   1.221   2.221  11.508 -0.4624 -0.8621 -0.1277
 6930TIP3    H144985   1.161   2.292  11.533 -2.0156 -1.5582 -1.7142
 6930TIP3    H244986   1.235   2.233  11.414  1.3885 -1.1461  0.0675
 6931TIP3   OH244987   2.640   5.650  10.669  0.3507 -0.2858  0.0231
 6931TIP3    H144988   2.702   5.584  10.700 -1.0449 -1.3198  0.7531
 6931TIP3    H244989   2.571   5.599  10.626 -0.7157  0.6906  0.5186
 6932TIP3   OH244990   6.203   6.310  10.720  0.6087  0.0668 -0.0326
 6932TIP3    H144991   6.166   6.242  10.776  0.5856 -0.3051 -0.4996
 6932TIP3    H244992   6.135   6.328  10.656  1.1914 -0.5427 -0.8316
 6933TIP3   OH244993   0.361   0.022  11.299  0.3075 -0.3997  0.3330
 6933TIP3    H144994   0.316  -0.042  11.354  0.0004  1.2507  2.0889
 6933TIP3    H244995   0.293   0.058  11.242 -0.2475  0.7199  1.6625
 6934TIP3   OH244996   0.622   1.668  11.302  0.0288 -0.0144  0.3397
 6934TIP3    H144997   0.625   1.577  11.331 -0.6826 -0.9321 -2.1761
 6934TIP3    H244998   0.576   1.714  11.372 -1.1807 -1.9551  0.8928
 6935TIP3   OH244999   0.600   1.265  11.100  0.0522  0.4041 -0.5603
 6935TIP3    H145000   0.619   1.220  11.183 -0.0720 -0.7637 -1.1389
 6935TIP3    H245001   0.685   1.275  11.058  0.1647  1.3519 -0.1385
 6936TIP3   OH245002   6.686   7.312  10.567 -0.3860 -0.3602  0.2013
 6936TIP3    H145003   6.731   7.248  10.513  2.6194  1.0860  0.7679
 6936TIP3    H245004   6.646   7.373  10.505  0.8845 -0.1172 -0.3938
 6937TIP3   OH245005   7.097   2.382  11.798  0.2656 -0.2448 -0.1736
 6937TIP3    H145006   7.163   2.317  11.821 -2.4412 -2.3819  2.1784
 6937TIP3    H245007   7.117   2.457  11.855 -0.1368 -1.4320  1.5987
 6938TIP3   OH245008   4.993   3.409  10.950 -0.3551 -0.5328  0.1608
 6938TIP3    H145009   4.992   3.503  10.931  1.6733 -0.3714  0.6139
 6938TIP3    H245010   5.081   3.381  10.927 -0.5989 -2.1259  1.0029
 6939TIP3   OH245011   2.278   3.655  10.609 -0.0474  0.0469  0.0605
 6939TIP3    H145012   2.362   3.641  10.566 -0.0295 -1.0157  0.4106
 6939TIP3    H245013   2.275   3.749  10.627  0.6544  0.2424 -0.7807
 6940TIP3   OH245014   6.672   7.430  11.393  0.6307  0.2654  0.2045
 6940TIP3    H145015   6.671   7.526  11.387 -0.3284  0.1661 -2.2956
 6940TIP3    H245016   6.646   7.412  11.483 -1.0002  2.3480  0.2228
 6941TIP3   OH245017   2.483   3.991  10.440 -0.2893  0.1287  0.4834
 6941TIP3    H145018   2.519   3.966  10.354  1.8673 -1.0025  1.6392
 6941TIP3    H245019   2.472   4.086  10.435 -1.2440 -0.0375 -1.3971
 6942TIP3   OH245020   3.023   1.177  11.970 -0.0086 -0.0812  0.2515
 6942TIP3    H145021   3.091   1.140  12.025  0.0101  0.9475  0.9408
 6942TIP3    H245022   2.968   1.102  11.947  0.6015 -0.7027  0.7618
 6943TIP3   OH245023   5.822   0.633  10.806  0.0535 -0.1890  0.7232
 6943TIP3    H145024   5.770   0.709  10.830 -1.4443 -1.4614  1.7503
 6943TIP3    H245025   5.795   0.565  10.868  2.0834 -1.2749  0.5000
 6944TIP3   OH245026   4.019   6.132  11.346 -0.1700 -0.0852 -0.4238
 6944TIP3    H145027   4.007   6.218  11.306 -0.2640  0.0157 -0.1841
 6944TIP3    H245028   4.033   6.151  11.439  5.3054  0.0926 -1.0036
 6945TIP3   OH245029   0.891   6.331  10.678 -0.1153 -0.4130  0.0375
 6945TIP3    H145030   0.847   6.415  10.688 -1.4805 -1.0463 -0.3831
 6945TIP3    H245031   0.983   6.354  10.664 -0.5505  1.0330 -0.6745
 6946TIP3   OH245032   2.120   5.352  10.964  0.0122 -0.8460 -0.2041
 6946TIP3    H145033   2.096   5.298  10.889 -1.3762 -1.3101  0.5410
 6946TIP3    H245034   2.058   5.327  11.032  1.2253 -0.4170  1.1001
 6947TIP3   OH245035   4.517   7.698  11.288 -0.2242 -0.1832 -0.7101
 6947TIP3    H145036   4.471   7.781  11.280  0.0277  0.0313  0.0208
 6947TIP3    H245037   4.609   7.718  11.271  0.1144  0.0352  1.0997
 6948TIP3   OH245038   1.422   8.076  11.148 -0.4695 -0.4595 -0.2703
 6948TIP3    H145039   1.380   8.098  11.065 -0.5427 -1.3527 -0.4843
 6948TIP3    H245040   1.472   8.154  11.172 -0.3806 -0.2211 -1.2000
 6949TIP3   OH245041   3.557   4.844  10.822  0.5601 -0.1227 -0.4918
 6949TIP3    H145042   3.627   4.904  10.848  0.6306  0.2824 -1.5600
 6949TIP3    H245043   3.494   4.899  10.775  0.3788 -0.7849 -1.0498
 6950TIP3   OH245044   4.382   5.948  10.663  0.4105  0.6767 -0.0818
 6950TIP3    H145045   4.383   5.943  10.567  0.7346 -0.2526 -0.0402
 6950TIP3    H245046   4.471   5.977  10.686  0.2305  1.2335 -0.0694
 6951TIP3   OH245047   3.158   7.624  10.676  0.0275  0.0962  0.3088
 6951TIP3    H145048   3.082   7.640  10.620  1.0443 -0.9309 -1.4526
 6951TIP3    H245049   3.227   7.679  10.640  1.0730 -1.5582 -0.3410
 6952TIP3   OH245050   0.108   5.975  10.753  0.1451  0.4032  0.2162
 6952TIP3    H145051   0.082   5.944  10.840 -0.5096  1.5211  0.4476
 6952TIP3    H245052   0.146   5.898  10.710  1.5522  0.1002  1.8849
 6953TIP3   OH245053   5.203   3.293  12.830 -0.2655 -0.1403  0.4953
 6953TIP3    H145054   5.219   3.386  12.846 -0.5439  0.0822 -0.4429
 6953TIP3    H245055   5.273   3.267  12.770  0.2580 -0.7344  1.3437
 6954TIP3   OH245056   6.906   7.197  11.055  0.0960  0.8693 -0.5176
 6954TIP3    H145057   6.845   7.189  10.982  0.5148 -0.1848 -0.7796
 6954TIP3    H245058   6.967   7.266  11.028  0.5349  0.1632 -1.3977
 6955TIP3   OH245059   0.515   7.534  11.534  0.3521  0.2344  0.1086
 6955TIP3    H145060   0.496   7.483  11.613 -0.1986  0.0738 -0.1223
 6955TIP3    H245061   0.600   7.502  11.505  0.7501  0.5838  0.8619
 6956TIP3   OH245062   3.977   5.360  12.162  0.0140 -0.3699  0.2133
 6956TIP3    H145063   3.929   5.413  12.098 -0.1132  1.7488  1.9355
 6956TIP3    H245064   4.026   5.297  12.110 -0.4384  0.9551 -1.9226
 6957TIP3   OH245065   5.773   5.820  11.300 -0.0265  0.1008 -0.0359
 6957TIP3    H145066   5.799   5.730  11.281 -0.0555  0.0868 -0.0098
 6957TIP3    H245067   5.709   5.813  11.371  1.5194  0.2765  1.4389
 6958TIP3   OH245068   7.071   5.689  11.112 -0.1626 -0.0095  0.1224
 6958TIP3    H145069   6.976   5.682  11.117 -0.0797 -0.9965  0.4060
 6958TIP3    H245070   7.096   5.735  11.192 -0.2579 -1.3120  0.9221
 6959TIP3   OH245071   2.622   1.068  10.445 -0.0882  0.6073 -0.1607
 6959TIP3    H145072   2.603   0.975  10.451  0.9681  0.4691  1.6329
 6959TIP3    H245073   2.716   1.073  10.430 -0.0875  1.3808  0.0402
 6960TIP3   OH245074   0.524   1.211  10.392 -0.3617 -0.0152 -0.1875
 6960TIP3    H145075   0.497   1.137  10.337  0.6070  1.4063 -2.7247
 6960TIP3    H245076   0.619   1.201  10.401 -0.7000 -1.6815  3.6693
 6961TIP3   OH245077   5.426   3.122  12.134 -0.6584 -0.6035 -0.1994
 6961TIP3    H145078   5.480   3.070  12.075 -0.1072  0.4339 -0.6329
 6961TIP3    H245079   5.427   3.072  12.216  1.3817 -0.3935 -0.0270
 6962TIP3   OH245080   5.218   5.857  11.242 -0.4607  0.5402 -0.5108
 6962TIP3    H145081   5.229   5.894  11.329  2.4493 -0.3839 -0.3999
 6962TIP3    H245082   5.132   5.815  11.245  0.5233 -1.7013  2.8546
 6963TIP3   OH245083   2.973   3.369  11.102 -0.0418  0.9914  0.6263
 6963TIP3    H145084   2.977   3.369  11.198  0.5230 -0.2667  0.6181
 6963TIP3    H245085   3.063   3.354  11.074  0.1591  3.3396 -0.1669
 6964TIP3   OH245086   0.319   5.825  11.429 -0.1890  0.0755 -0.1547
 6964TIP3    H145087   0.289   5.748  11.477  0.9029 -1.5188 -1.8385
 6964TIP3    H245088   0.405   5.845  11.467  0.1168 -0.4060 -0.5677
 6965TIP3   OH245089   2.666   2.009  12.272  0.7092 -0.1209 -0.1604
 6965TIP3    H145090   2.637   2.092  12.234  1.0487 -0.3065 -0.8396
 6965TIP3    H245091   2.704   2.034  12.356 -0.6241  0.2183  0.3707
 6966TIP3   OH245092   5.528   3.874  12.487 -0.0495 -0.2928 -0.1578
 6966TIP3    H145093   5.591   3.928  12.440 -0.8658 -0.0086 -0.9695
 6966TIP3    H245094   5.458   3.935  12.512  0.4815 -0.3922  1.6809
 6967TIP3   OH245095   5.361   2.623  11.944 -0.3199  0.7436 -0.1950
 6967TIP3    H145096   5.429   2.607  12.009 -2.1485  2.3150  2.2691
 6967TIP3    H245097   5.310   2.541  11.942  1.4518 -0.4130 -1.9978
 6968TIP3   OH245098   7.794   3.917  11.626 -0.3996  0.1063  0.3743
 6968TIP3    H145099   7.812   4.010  11.616 -0.1274  0.1502  1.1919
 6968TIP3    H245100   7.853   3.874  11.563 -0.9384  0.4993 -0.4190
 6969TIP3   OH245101   3.034   7.656  10.908 -0.2633  0.2564  0.7562
 6969TIP3    H145102   3.080   7.656  10.824 -0.8433  0.5611  0.4357
 6969TIP3    H245103   2.952   7.612  10.891 -0.6745  0.9141  0.9942
 6970TIP3   OH245104   7.191   3.555  12.098 -0.3212 -0.5224 -0.7752
 6970TIP3    H145105   7.112   3.503  12.112 -0.9210  0.6577  0.5431
 6970TIP3    H245106   7.181   3.590  12.009 -0.2600 -2.0268 -1.3899
 6971TIP3   OH245107   0.382   4.487  10.624 -0.2559  0.1134  0.3379
 6971TIP3    H145108   0.333   4.440  10.557  0.3090 -0.0180  0.0082
 6971TIP3    H245109   0.364   4.579  10.608  0.4993  0.1214 -0.4901
 6972TIP3   OH245110   3.360   0.091  12.658  0.0292  0.1936 -0.0571
 6972TIP3    H145111   3.351   0.034  12.734  1.4573  1.4943  1.1634
 6972TIP3    H245112   3.370   0.031  12.584 -0.8810 -1.1078  0.8297
 6973TIP3   OH245113   0.271   4.671  11.065  0.3067 -0.2016 -0.0119
 6973TIP3    H145114   0.291   4.590  11.018 -0.5689 -0.2758 -0.2800
 6973TIP3    H245115   0.204   4.646  11.128 -2.0116  0.7947 -1.9205
 6974TIP3   OH245116   2.382   0.546  12.724  0.2878 -0.2545 -0.1062
 6974TIP3    H145117   2.301   0.508  12.759  0.4648 -0.3915  0.1639
 6974TIP3    H245118   2.357   0.633  12.693 -0.6562 -1.4088 -2.8997
 6975TIP3   OH245119   5.743   3.981  11.362  0.2014 -0.2767 -0.2512
 6975TIP3    H145120   5.740   4.071  11.329 -1.4386 -0.4185 -0.6263
 6975TIP3    H245121   5.769   3.989  11.453  0.0386  0.5821 -0.2710
 6976TIP3   OH245122   6.482   0.125  11.606  0.5845 -0.1141  0.0108
 6976TIP3    H145123   6.469   0.128  11.511  0.0855 -2.5197 -0.0388
 6976TIP3    H245124   6.394   0.130  11.643  0.6892 -0.3772  0.3021
 6977TIP3   OH245125   3.870   3.354  12.406  0.4075 -0.5629 -0.0885
 6977TIP3    H145126   3.819   3.305  12.342 -1.3675 -0.1509  0.9478
 6977TIP3    H245127   3.875   3.296  12.482 -0.4745  0.2895  0.6293
 6978TIP3   OH245128   4.108   7.274  11.648 -0.0661  0.5589  0.2736
 6978TIP3    H145129   4.152   7.333  11.587  1.5287 -1.3816 -0.5805
 6978TIP3    H245130   4.117   7.187  11.608  1.4762 -0.9038  3.4129
 6979TIP3   OH245131   7.921   7.686  12.664 -0.0288  0.6397  0.1789
 6979TIP3    H145132   7.978   7.751  12.622 -1.5349  1.5932 -0.4951
 6979TIP3    H245133   7.980   7.615  12.690  1.1232  0.3477 -2.8138
 6980TIP3   OH245134   5.781   4.597  11.806 -0.2885  0.2009 -0.3995
 6980TIP3    H145135   5.759   4.620  11.896  0.4536  1.1617 -0.4428
 6980TIP3    H245136   5.696   4.593  11.761 -0.5638  1.9218 -0.1396
 6981TIP3   OH245137   7.878   8.367  12.032  0.6880  0.3809  0.3131
 6981TIP3    H145138   7.836   8.292  11.990  2.5234 -1.2893  1.3196
 6981TIP3    H245139   7.862   8.355  12.125  1.1795  1.1349  0.5033
 6982TIP3   OH245140   2.731   6.477  11.996 -0.2695  0.4749  0.6112
 6982TIP3    H145141   2.783   6.518  11.927 -1.0224  0.8887  0.2800
 6982TIP3    H245142   2.771   6.507  12.077  0.8137 -0.2537  0.3746
 6983TIP3   OH245143   0.768   7.757  11.557 -0.0305  0.7048 -0.1033
 6983TIP3    H145144   0.845   7.779  11.610  0.6133  1.5289 -1.3117
 6983TIP3    H245145   0.771   7.662  11.548  0.5473  0.6762  0.3093
 6984TIP3   OH245146   2.995   2.431  11.424 -0.3249  0.4477 -0.4431
 6984TIP3    H145147   3.011   2.353  11.371 -0.0340  0.0417  0.2383
 6984TIP3    H245148   2.937   2.485  11.370 -0.5471 -0.2477 -0.9057
 6985TIP3   OH245149   6.537   2.771  11.462  0.2513  0.1236 -0.4993
 6985TIP3    H145150   6.627   2.754  11.431  0.0920 -1.0514 -0.3701
 6985TIP3    H245151   6.548   2.799  11.552  0.3927 -2.4313  0.3590
 6986TIP3   OH245152   6.912   7.731  11.615 -0.0077  0.5172 -0.4733
 6986TIP3    H145153   6.950   7.652  11.653 -0.4291 -0.3462 -1.7892
 6986TIP3    H245154   6.846   7.759  11.678 -0.8458 -1.0081 -0.6163
 6987TIP3   OH245155   7.847   0.370  10.309 -0.5187 -0.5535 -0.5324
 6987TIP3    H145156   7.940   0.366  10.287 -0.4253 -1.4033 -0.0321
 6987TIP3    H245157   7.804   0.389  10.225  0.0885 -0.3835 -0.8118
 6988TIP3   OH245158   4.418   8.189  12.394 -0.4307 -0.4189  0.4975
 6988TIP3    H145159   4.504   8.159  12.423  0.1032  0.9155  0.3479
 6988TIP3    H245160   4.397   8.135  12.318  0.0253 -1.1128  0.8568
 6989TIP3   OH245161   7.256   7.249  12.092 -0.5256 -0.2474 -0.0855
 6989TIP3    H145162   7.212   7.334  12.098  0.7081  0.3215  2.4504
 6989TIP3    H245163   7.326   7.262  12.028  0.8015  1.2936  1.5591
 6990TIP3   OH245164   1.431   2.421  11.115  0.4084 -0.2377 -0.2758
 6990TIP3    H145165   1.475   2.482  11.056 -0.4876 -1.9766 -2.9283
 6990TIP3    H245166   1.339   2.428  11.092  0.2366 -2.2285 -0.3583
 6991TIP3   OH245167   0.450   4.624  12.399  0.4818  0.4321  0.0534
 6991TIP3    H145168   0.544   4.604  12.399  0.6437  0.7302  2.9667
 6991TIP3    H245169   0.444   4.716  12.424 -0.5515 -0.0013  1.6159
 6992TIP3   OH245170   3.050   1.428  12.783 -0.0233 -0.0500  0.0183
 6992TIP3    H145171   3.031   1.502  12.725 -0.8292  0.0554  0.4100
 6992TIP3    H245172   2.971   1.375  12.781  0.0648 -0.2162  0.7739
 6993TIP3   OH245173   7.339   6.322  11.794  0.2111  0.0049  0.1356
 6993TIP3    H145174   7.303   6.410  11.783  0.2200  0.0313  0.3066
 6993TIP3    H245175   7.263   6.267  11.812  0.3370  0.2193  1.4320
 6994TIP3   OH245176   2.039   3.612  10.498  0.0564  0.3204  0.0815
 6994TIP3    H145177   1.983   3.594  10.574 -0.3103 -2.3341 -0.7198
 6994TIP3    H245178   2.122   3.642  10.537 -0.4773  0.0622  1.4916
 6995TIP3   OH245179   4.223   2.801  12.567 -0.8156 -0.6125  0.4250
 6995TIP3    H145180   4.251   2.875  12.514 -2.1311  0.5138  1.2254
 6995TIP3    H245181   4.279   2.729  12.540 -0.6033  0.2446 -1.5714
 6996TIP3   OH245182   2.552   4.655  11.547 -0.5518  0.0368 -0.3846
 6996TIP3    H145183   2.579   4.572  11.587 -3.0099 -0.4055  0.5201
 6996TIP3    H245184   2.472   4.634  11.500  0.1798  1.3992 -2.4025
 6997TIP3   OH245185   2.145   6.279  11.567  0.0264  0.0211 -0.4912
 6997TIP3    H145186   2.134   6.321  11.652 -0.4070 -2.6699  0.8821
 6997TIP3    H245187   2.118   6.346  11.504 -0.6452  1.7586  1.5074
 6998TIP3   OH245188   1.784   3.627  10.399 -0.0128  0.0715 -0.1304
 6998TIP3    H145189   1.756   3.551  10.348 -0.5273  2.3506 -3.5917
 6998TIP3    H245190   1.880   3.625  10.396 -0.0257 -0.5147 -0.0939
 6999TIP3   OH245191   0.411   6.722  11.856 -0.4269  0.1347  0.0022
 6999TIP3    H145192   0.429   6.711  11.949 -0.7355 -0.4825 -0.0031
 6999TIP3    H245193   0.315   6.728  11.851 -0.3947  0.4667 -0.2445
 7000TIP3   OH245194   7.868   7.830  12.295 -0.0039  0.1131 -0.1078
 7000TIP3    H145195   7.879   7.736  12.281  0.2409  0.3236 -1.4477
 7000TIP3    H245196   7.799   7.856  12.234  0.7449  0.9959 -0.6126
 7001TIP3   OH245197   3.504   6.677  11.436  0.0580 -0.2348  0.9766
 7001TIP3    H145198   3.415   6.691  11.468  0.1956  1.2570  0.7820
 7001TIP3    H245199   3.561   6.708  11.507  0.3746  1.0548  0.2051
 7002TIP3   OH245200   5.575   0.413  11.842  0.5581  0.1285 -0.2473
 7002TIP3    H145201   5.534   0.499  11.829  0.1565  0.0791  0.6706
 7002TIP3    H245202   5.574   0.399  11.936  0.8776 -0.7694 -0.3659
 7003TIP3   OH245203   4.794   1.034  10.625  0.6070  0.3020  0.3099
 7003TIP3    H145204   4.758   0.984  10.699  0.4360  0.5603  0.4014
 7003TIP3    H245205   4.731   1.019  10.554 -1.3879  3.1699  1.2957
 7004TIP3   OH245206   5.837   0.960  10.696 -0.1459 -0.3409  0.6461
 7004TIP3    H145207   5.758   0.986  10.649 -0.6916 -1.1964  1.0670
 7004TIP3    H245208   5.831   1.006  10.780  0.9562  1.3911 -0.1678
 7005TIP3   OH245209   3.105   2.364  11.663  0.1992 -0.3352 -0.0268
 7005TIP3    H145210   3.163   2.438  11.642  0.3768 -0.2969  0.5791
 7005TIP3    H245211   3.047   2.357  11.587  0.8919 -0.2682 -0.5719
 7006TIP3   OH245212   3.007   8.220  10.249  0.1375  0.0344  0.3013
 7006TIP3    H145213   2.993   8.175  10.332  0.8897 -0.2287  0.2947
 7006TIP3    H245214   2.986   8.154  10.182 -1.8643  0.6655  0.2378
 7007TIP3   OH245215   7.345   6.697  10.786 -0.5868  0.5339  0.0137
 7007TIP3    H145216   7.305   6.672  10.703 -2.3300  2.1222  0.3150
 7007TIP3    H245217   7.387   6.617  10.817  0.1867 -0.0766 -2.4040
 7008TIP3   OH245218   5.905   2.929  11.192  0.5308 -0.3240 -0.3174
 7008TIP3    H145219   5.972   2.869  11.227 -0.1259 -1.2998 -0.6974
 7008TIP3    H245220   5.909   2.917  11.098  2.0756  2.0788 -0.6536
 7009TIP3   OH245221   5.843   2.318  11.058 -0.2933  0.5955 -0.1773
 7009TIP3    H145222   5.885   2.233  11.049  2.6219  2.0239 -1.3236
 7009TIP3    H245223   5.798   2.332  10.974 -0.1718  0.4877 -0.2594
 7010TIP3   OH245224   7.687   5.630  10.707  0.3157 -0.2375 -0.4387
 7010TIP3    H145225   7.666   5.539  10.728 -1.5139  0.3222  0.3592
 7010TIP3    H245226   7.703   5.672  10.791 -0.4152  0.5228 -0.6591
 7011TIP3   OH245227   4.540   3.327  10.548 -1.0622 -0.2022  0.2835
 7011TIP3    H145228   4.487   3.371  10.614  0.8767 -0.8299  2.3954
 7011TIP3    H245229   4.487   3.253  10.518 -1.2446 -1.1355  2.7353
 7012TIP3   OH245230   6.813   1.229  12.756  0.0426  0.0934  0.4253
 7012TIP3    H145231   6.891   1.285  12.761 -0.6634  1.2561 -0.9212
 7012TIP3    H245232   6.846   1.141  12.775  1.3733  0.7843  1.5339
 7013TIP3   OH245233   5.462   5.932  10.861 -0.1831 -0.1188  0.1252
 7013TIP3    H145234   5.537   5.950  10.918  0.0852 -0.0400 -0.2483
 7013TIP3    H245235   5.496   5.871  10.795 -0.7326 -0.9502  0.5888
 7014TIP3   OH245236   4.156   3.623  11.409  0.0875 -0.1046 -0.0646
 7014TIP3    H145237   4.151   3.617  11.505 -0.3784  0.9294 -0.0002
 7014TIP3    H245238   4.065   3.638  11.382  0.1488 -0.8647 -0.7172
 7015TIP3   OH245239   1.125   4.611  12.206 -0.0954 -0.5385 -0.1302
 7015TIP3    H145240   1.182   4.678  12.243 -0.5578  0.2463 -0.8024
 7015TIP3    H245241   1.040   4.628  12.246 -0.0420 -1.2281  0.2933
 7016TIP3   OH245242   1.833   4.902  11.237  0.1727  0.2973  0.0092
 7016TIP3    H145243   1.894   4.883  11.308 -1.2190 -0.8548  0.9559
 7016TIP3    H245244   1.888   4.905  11.159  1.4755 -0.4565  0.8485
 7017TIP3   OH245245   6.249   2.393  11.546 -0.2930  0.3524  0.6057
 7017TIP3    H145246   6.334   2.378  11.504 -0.6343  0.8286 -0.2836
 7017TIP3    H245247   6.210   2.464  11.495 -1.3298 -0.0307  0.8618
 7018TIP3   OH245248   4.302   6.645  11.373  0.5152  0.8000 -0.4501
 7018TIP3    H145249   4.262   6.689  11.298  1.1284  2.2994  0.0579
 7018TIP3    H245250   4.389   6.684  11.381  1.0554 -0.4330  0.1267
 7019TIP3   OH245251   4.362   5.438  11.748  0.1523 -0.2351 -0.0048
 7019TIP3    H145252   4.427   5.388  11.699 -1.2599 -1.0432 -1.1408
 7019TIP3    H245253   4.342   5.384  11.825  2.4868  1.1071  1.6873
 7020TIP3   OH245254   6.601   7.020  10.663 -0.1263  0.2110 -0.1146
 7020TIP3    H145255   6.571   6.936  10.628  1.8991 -0.2088 -0.9322
 7020TIP3    H245256   6.670   7.049  10.604  0.4413  1.5933  1.1421
 7021TIP3   OH245257   6.640   4.180  11.402  0.3137 -0.4028  0.0215
 7021TIP3    H145258   6.733   4.194  11.419  0.3609 -0.3414 -0.2776
 7021TIP3    H245259   6.637   4.098  11.352  0.3189  0.2355 -1.0556
 7022TIP3   OH245260   4.938   0.879  12.397 -0.1278 -0.0932  0.4444
 7022TIP3    H145261   5.022   0.898  12.354 -0.8749 -0.1339 -1.0818
 7022TIP3    H245262   4.923   0.786  12.380 -1.3006  0.2951 -0.8413
 7023TIP3   OH245263   7.359   5.279  11.985  0.2270  0.4379  0.0944
 7023TIP3    H145264   7.322   5.304  11.900 -2.0353  1.9102  1.3780
 7023TIP3    H245265   7.398   5.360  12.019  2.6620 -0.5341 -0.1822
 7024TIP3   OH245266   5.512   6.100  11.414 -0.4089 -0.1822  0.0506
 7024TIP3    H145267   5.585   6.144  11.456 -0.6518  0.1300  0.1432
 7024TIP3    H245268   5.518   6.009  11.445 -0.9077  0.1575  1.1974
 7025TIP3   OH245269   3.610   1.511  10.448 -0.0108 -0.6549 -0.0001
 7025TIP3    H145270   3.674   1.443  10.471 -0.3749 -1.2690 -0.7705
 7025TIP3    H245271   3.530   1.463  10.429 -0.4467  0.0455  0.0580
 7026TIP3   OH245272   7.866   7.587  12.161  0.3427  0.4772  0.6024
 7026TIP3    H145273   7.952   7.550  12.140  0.4292  1.1460 -0.2856
 7026TIP3    H245274   7.807   7.549  12.097  0.2621  1.1566  0.2620
 7027TIP3   OH245275   3.361   8.321  12.377 -0.0437  0.0075  0.0470
 7027TIP3    H145276   3.343   8.250  12.315 -1.6292 -0.3787  0.8987
 7027TIP3    H245277   3.286   8.380  12.368  0.0136  0.2640  1.1376
 7028TIP3   OH245278   2.231   5.091  11.971 -0.1611  0.6856 -0.2668
 7028TIP3    H145279   2.268   5.179  11.981  0.0532  0.6164 -0.4509
 7028TIP3    H245280   2.146   5.096  12.015  0.6019  0.4945  1.3103
 7029TIP3   OH245281   5.764   7.791  11.575 -0.7477  0.6595 -0.2830
 7029TIP3    H145282   5.732   7.878  11.550 -0.2780  0.3173 -2.2201
 7029TIP3    H245283   5.849   7.783  11.532 -0.5399 -0.5627  0.3162
 7030TIP3   OH245284   3.019   0.287  11.429 -0.5095  0.0963 -0.1754
 7030TIP3    H145285   2.970   0.210  11.457  0.4810 -0.1778  0.8525
 7030TIP3    H245286   2.951   0.354  11.414 -1.3999 -1.0086 -1.3528
 7031TIP3   OH245287   1.668   4.123  12.253 -0.1806 -0.1217  0.3182
 7031TIP3    H145288   1.710   4.111  12.168 -0.9149 -0.5383  0.0026
 7031TIP3    H245289   1.736   4.161  12.308  0.3588 -0.0119 -0.4042
 7032TIP3   OH245290   2.034   3.827  11.983 -0.5007  0.5274  0.5242
 7032TIP3    H145291   2.126   3.853  11.987 -0.5017  0.5630  0.3124
 7032TIP3    H245292   1.989   3.904  11.949 -0.4337  0.0831 -0.6061
 7033TIP3   OH245293   1.420   8.247  10.236 -0.2750 -0.0902 -0.0595
 7033TIP3    H145294   1.481   8.176  10.258  0.5038  0.3922 -0.5945
 7033TIP3    H245295   1.339   8.224  10.281  0.1458 -1.0149  0.2555
 7034TIP3   OH245296   3.578   0.243  10.732  0.3748  0.0383  0.2422
 7034TIP3    H145297   3.566   0.182  10.804 -1.0362  0.8183  0.7068
 7034TIP3    H245298   3.662   0.286  10.751  0.9202 -1.0600  0.3993
 7035TIP3   OH245299   7.380   1.132  10.771  0.4759  0.0996 -0.0313
 7035TIP3    H145300   7.326   1.053  10.772 -0.2913  0.6150 -0.5508
 7035TIP3    H245301   7.322   1.202  10.800  1.3822  0.3547  1.2930
 7036TIP3   OH245302   6.657   5.995  12.407  0.6672  0.8632 -0.6067
 7036TIP3    H145303   6.639   6.077  12.361  0.2567 -0.2498 -2.5505
 7036TIP3    H245304   6.587   5.937  12.378  1.2846 -0.3463  0.2787
 7037TIP3   OH245305   7.054   8.185  12.806 -0.4117  0.0459  0.0428
 7037TIP3    H145306   6.985   8.128  12.840 -2.0260  1.4844 -0.6294
 7037TIP3    H245307   7.131   8.163  12.857 -0.5935 -3.5620 -0.9643
 7038TIP3   OH245308   7.482   5.194  17.855 -0.1973 -0.0056  0.0459
 7038TIP3    H145309   7.433   5.217  17.776  0.8268  0.3039 -0.5199
 7038TIP3    H245310   7.414   5.180  17.921 -1.0223  1.6078 -0.3805
 7039TIP3   OH245311   6.524   0.990  11.071 -0.0038  0.2169 -0.4692
 7039TIP3    H145312   6.515   0.906  11.026 -0.2411  0.0581 -0.1340
 7039TIP3    H245313   6.560   0.967  11.157  3.6258  0.7915 -1.6436
 7040TIP3   OH245314   5.953   7.954  10.997  0.2320  0.4880 -0.6731
 7040TIP3    H145315   5.956   7.950  11.093 -0.1041 -1.7479 -0.7118
 7040TIP3    H245316   5.862   7.976  10.977  0.1274  0.2246 -0.4918
 7041TIP3   OH245317   5.720   7.610  12.435  0.0955 -0.1524 -0.0828
 7041TIP3    H145318   5.677   7.688  12.468  0.7464  0.3442 -0.3978
 7041TIP3    H245319   5.648   7.546  12.424 -0.5035  0.5420 -0.2663
 7042TIP3   OH245320   5.532   1.029  11.048 -0.2713  0.1094 -0.1587
 7042TIP3    H145321   5.494   1.097  10.992 -2.4301  0.0855  1.1454
 7042TIP3    H245322   5.466   1.014  11.115  1.6602 -0.7835  1.6638
 7043TIP3   OH245323   0.335   5.066  11.598 -0.9859 -0.2601  0.4778
 7043TIP3    H145324   0.431   5.061  11.606 -1.1609 -1.1460  2.7770
 7043TIP3    H245325   0.309   4.981  11.564 -0.9410  0.1917 -0.7279
 7044TIP3   OH245326   7.751   1.571  10.575 -0.5416  0.8540 -0.6358
 7044TIP3    H145327   7.677   1.581  10.515 -0.7134 -2.9083 -1.2302
 7044TIP3    H245328   7.710   1.558  10.661 -0.4807  0.5531 -0.6544
 7045TIP3   OH245329   2.401   4.898  11.595 -0.0035  0.5035 -0.4790
 7045TIP3    H145330   2.474   4.869  11.540  1.1743  0.3114  1.1158
 7045TIP3    H245331   2.362   4.816  11.628  0.9102  0.6115  0.9604
 7046TIP3   OH245332   3.929   5.361  12.744 -0.4148 -0.0123 -0.3105
 7046TIP3    H145333   4.013   5.314  12.743 -0.8050 -0.7507  0.3026
 7046TIP3    H245334   3.901   5.357  12.835 -0.8741  0.6888 -0.4158
 7047TIP3   OH245335   1.051   1.063  11.973 -0.1408  0.3089  0.0652
 7047TIP3    H145336   1.007   1.148  11.978  1.4041  1.1136  0.6213
 7047TIP3    H245337   1.129   1.073  12.027  1.2821 -0.7264 -1.6881
 7048TIP3   OH245338   6.601   1.433  11.446 -0.4183 -0.1185 -0.0105
 7048TIP3    H145339   6.583   1.497  11.377  0.1825 -1.3145 -1.3577
 7048TIP3    H245340   6.674   1.471  11.496  0.5537 -0.1156 -1.3616
 7049TIP3   OH245341   2.646   4.145  11.514 -0.0184  0.4003  0.5258
 7049TIP3    H145342   2.709   4.197  11.565  2.3787 -0.8957 -0.9273
 7049TIP3    H245343   2.622   4.073  11.573  1.6843 -0.3441  0.3658
 7050TIP3   OH245344   4.433   4.596  11.409 -0.0190  0.2561 -0.0333
 7050TIP3    H145345   4.407   4.687  11.425 -0.0482  0.5655 -1.5957
 7050TIP3    H245346   4.399   4.577  11.321  1.7924 -0.5595 -0.6109
 7051TIP3   OH245347   4.147   4.709  12.722  0.2232  0.5642 -0.3785
 7051TIP3    H145348   4.199   4.776  12.766  0.7745 -0.1375  0.0531
 7051TIP3    H245349   4.072   4.757  12.686  0.0105  1.2310  0.8945
 7052TIP3   OH245350   6.221   6.384  11.401 -0.0007  0.0608 -0.4424
 7052TIP3    H145351   6.192   6.424  11.484  1.3178 -1.1516  0.6564
 7052TIP3    H245352   6.312   6.410  11.393  0.3061 -1.0839 -0.7203
 7053TIP3   OH245353   5.065   5.683  10.995  0.1651  0.2640 -0.0707
 7053TIP3    H145354   5.031   5.710  11.081  0.2398 -1.4350  0.5184
 7053TIP3    H245355   5.109   5.762  10.962  0.0880  0.9799  1.4200
 7054TIP3   OH245356   5.877   0.480  10.598  0.4864  0.2720  0.1404
 7054TIP3    H145357   5.896   0.392  10.629 -2.8842 -0.2496  1.1032
 7054TIP3    H245358   5.861   0.530  10.678 -0.5495  0.9673 -0.4843
 7055TIP3   OH245359   7.067   1.852  12.778  0.4797  0.3552 -0.5220
 7055TIP3    H145360   7.099   1.798  12.850  2.3020  0.5797 -1.1260
 7055TIP3    H245361   7.069   1.794  12.701  1.8909  1.0812 -1.0583
 7056TIP3   OH245362   1.486   6.166  12.179  0.4995 -0.1850  0.3291
 7056TIP3    H145363   1.419   6.120  12.129  0.5665 -0.1207  0.1782
 7056TIP3    H245364   1.438   6.219  12.242  0.4088 -0.1369  0.2184
 7057TIP3   OH245365   2.891   0.615  10.390 -0.1704 -0.1614 -0.2468
 7057TIP3    H145366   2.807   0.584  10.423  0.2881  0.2911  1.4467
 7057TIP3    H245367   2.916   0.551  10.323 -2.6448  0.6388 -2.0555
 7058TIP3   OH245368   5.601   8.182  10.663  0.6048  0.6643 -0.2367
 7058TIP3    H145369   5.686   8.143  10.641  0.1907  0.1510 -0.9573
 7058TIP3    H245370   5.610   8.206  10.755  1.2189 -0.2482 -0.0360
 7059TIP3   OH245371   6.941   0.203  11.700  0.2869  0.3206  0.1472
 7059TIP3    H145372   6.995   0.129  11.726 -0.1828  0.0482  0.3698
 7059TIP3    H245373   6.898   0.175  11.619  1.8982  1.2409 -1.0970
 7060TIP3   OH245374   8.021   8.110  12.289 -0.4780 -0.2816 -0.5483
 7060TIP3    H145375   8.028   8.107  12.193 -2.3268  2.2947 -0.8561
 7060TIP3    H245376   7.941   8.158  12.306 -0.1066 -0.5004  2.3519
 7061TIP3   OH245377   6.799   7.861  11.878 -0.2994  0.1667 -0.1514
 7061TIP3    H145378   6.867   7.927  11.861  0.1647 -0.5263 -1.0385
 7061TIP3    H245379   6.823   7.825  11.964  1.0791 -0.7833 -0.8921
 7062TIP3   OH245380   3.277   4.410  11.251 -0.1621 -0.5868 -0.3221
 7062TIP3    H145381   3.362   4.441  11.218 -0.0111  0.8953  1.3367
 7062TIP3    H245382   3.296   4.324  11.289  0.2782 -0.9130 -1.2405
 7063TIP3   OH245383   0.427   2.169  10.543  0.2780  0.2267  0.9061
 7063TIP3    H145384   0.460   2.255  10.518 -0.4409  0.0599 -0.7621
 7063TIP3    H245385   0.332   2.179  10.540  0.1845 -0.7553  0.1459
 7064TIP3   OH245386   0.741   1.095  11.929 -0.3102 -0.2186  0.1660
 7064TIP3    H145387   0.770   1.006  11.952  1.2706  0.3050  0.3281
 7064TIP3    H245388   0.713   1.133  12.013  0.8218  0.0534  0.4381
 7065TIP3   OH245389   4.199   6.921  12.595  0.2086  0.0894 -0.2468
 7065TIP3    H145390   4.128   6.860  12.573  0.0367  0.5014 -0.8655
 7065TIP3    H245391   4.248   6.931  12.513  1.8048 -1.2155  0.4698
 7066TIP3   OH245392   1.841   7.037  11.364  0.3871  0.3976 -0.6367
 7066TIP3    H145393   1.757   7.040  11.410  0.3050  0.2362 -0.7724
 7066TIP3    H245394   1.879   7.124  11.376 -0.1515  0.7223 -1.2214
 7067TIP3   OH245395   7.022   4.145  10.974  0.3797  0.0583  0.2643
 7067TIP3    H145396   6.970   4.099  11.040  0.7592  0.6768  1.0053
 7067TIP3    H245397   7.007   4.095  10.893 -1.5007  0.3214  0.4067
 7068TIP3   OH245398   7.933   7.870  11.232 -0.1464  0.3365 -0.1280
 7068TIP3    H145399   7.980   7.950  11.256 -2.3256  1.7780 -0.4227
 7068TIP3    H245400   7.923   7.876  11.137  1.7586 -1.5560 -0.5306
 7069TIP3   OH245401   2.848   4.190  11.684 -0.5240  0.2028 -0.6854
 7069TIP3    H145402   2.927   4.186  11.630 -0.7994 -0.0301 -1.0823
 7069TIP3    H245403   2.880   4.199  11.773 -0.0238 -0.6689 -0.7608
 7070TIP3   OH245404   3.938   0.243  12.337 -0.2951  0.5641  1.2205
 7070TIP3    H145405   3.917   0.151  12.320 -0.2709  0.7495  0.1268
 7070TIP3    H245406   4.029   0.242  12.365 -0.2623  0.2676  1.1079
 7071TIP3   OH245407   7.050   6.285  11.104 -0.1895 -0.0530 -0.2397
 7071TIP3    H145408   7.093   6.265  11.187  1.8644  0.9902 -0.9953
 7071TIP3    H245409   7.060   6.205  11.052  1.0328  0.2381 -0.4691
 7072TIP3   OH245410   0.063   1.116  11.940  0.1974  0.3826  0.2137
 7072TIP3    H145411   0.087   1.062  11.865 -1.7809 -0.4112  0.0875
 7072TIP3    H245412   0.146   1.138  11.982  1.1240 -2.8655  0.3245
 7073TIP3   OH245413   2.785   5.695  11.665  0.0774  0.2624 -0.1086
 7073TIP3    H145414   2.689   5.690  11.666  0.0625  0.5079 -0.3300
 7073TIP3    H245415   2.804   5.788  11.658  0.3249  0.0928 -2.2669
 7074TIP3   OH245416   7.372   7.244  10.729  0.2946 -0.1096  0.3484
 7074TIP3    H145417   7.412   7.299  10.795  0.5177 -0.2428  0.3255
 7074TIP3    H245418   7.445   7.215  10.674  0.0245  0.5593 -0.3755
 7075TIP3   OH245419   7.707   4.854  11.878 -0.0689 -0.3750 -0.0471
 7075TIP3    H145420   7.726   4.760  11.876 -0.8279 -0.5281 -0.5487
 7075TIP3    H245421   7.792   4.896  11.891  0.4538 -1.0793 -1.1387
 7076TIP3   OH245422   4.345   5.825  11.100 -0.0646  0.2505 -0.3044
 7076TIP3    H145423   4.352   5.921  11.093  1.6463  0.2844  1.2745
 7076TIP3    H245424   4.262   5.812  11.147 -0.5173  0.9285 -0.8842
 7077TIP3   OH245425   2.262   0.545  12.258  0.5819  0.1241  0.5891
 7077TIP3    H145426   2.213   0.620  12.227  1.4809  0.2269 -0.6683
 7077TIP3    H245427   2.216   0.516  12.337 -1.2368  0.4368 -0.3179
 7078TIP3   OH245428   1.754   5.931  10.887  0.8325  0.3354 -0.7115
 7078TIP3    H145429   1.832   5.970  10.847  1.3076  1.7132  1.3945
 7078TIP3    H245430   1.787   5.853  10.931  0.8887  0.4918 -0.4737
 7079TIP3   OH245431   2.303   0.783  12.567 -0.6182 -0.0601 -0.5527
 7079TIP3    H145432   2.216   0.746  12.587 -1.1408  2.4112  2.5551
 7079TIP3    H245433   2.284   0.865  12.521  0.3372 -1.1292 -3.0421
 7080TIP3   OH245434   2.811   2.447  10.354  0.0482 -0.2486  0.4428
 7080TIP3    H145435   2.728   2.462  10.308  1.6097  1.8875 -1.9189
 7080TIP3    H245436   2.832   2.356  10.337 -1.0561 -0.3908 -0.2456
 7081TIP3   OH245437   8.008   0.481  12.336 -1.0049  0.3841 -0.5484
 7081TIP3    H145438   8.040   0.569  12.354  0.5199 -0.3732  0.6472
 7081TIP3    H245439   8.008   0.437  12.421 -3.7820 -0.1942 -0.7354
 7082TIP3   OH245440   5.005   6.044  12.241 -0.3186  0.4371 -0.8597
 7082TIP3    H145441   5.062   6.119  12.261 -1.5148  1.2526 -0.3787
 7082TIP3    H245442   4.965   6.022  12.325  1.5277 -2.1250 -0.5301
 7083TIP3   OH245443   4.759   6.762  10.461  0.0835  0.6530 -0.0328
 7083TIP3    H145444   4.668   6.732  10.460  0.3366 -0.1757  0.5427
 7083TIP3    H245445   4.761   6.829  10.529 -0.0038  0.3351  0.2884
 7084TIP3   OH245446   8.246   4.828  12.546 -0.3267  0.2253  0.1403
 7084TIP3    H145447   8.223   4.905  12.495 -0.0768  0.5376  0.4846
 7084TIP3    H245448   8.329   4.798  12.508 -0.0891  0.5165  0.4173
 7085TIP3   OH245449   7.544   0.986  10.979 -0.0338  0.2635  0.2016
 7085TIP3    H145450   7.492   0.971  11.058  0.3703  0.9597  0.6076
 7085TIP3    H245451   7.498   1.057  10.934  0.4815  0.8059  0.5069
 7086TIP3   OH245452   8.311   6.316  11.800  0.0574 -0.1430 -0.0700
 7086TIP3    H145453   8.293   6.393  11.853 -1.3233 -1.2358  1.1215
 7086TIP3    H245454   8.243   6.317  11.732  0.3627 -0.0415 -0.3798
 7087TIP3   OH245455   8.217   7.176  11.096  0.1223 -0.6949 -0.0064
 7087TIP3    H145456   8.271   7.255  11.089 -0.0686 -0.3271  1.9275
 7087TIP3    H245457   8.262   7.124  11.163 -1.3999 -0.7841  0.9905
 7088TIP3   OH245458   7.825   4.155  11.326 -0.6842  0.3059  0.1907
 7088TIP3    H145459   7.774   4.236  11.339 -1.2991 -0.2893  1.7617
 7088TIP3    H245460   7.778   4.108  11.257 -1.4797  0.3850  0.6697
 7089TIP3   OH245461   6.038   6.528  12.476  1.0022  0.5768  0.1399
 7089TIP3    H145462   6.038   6.481  12.560  1.9826  1.2273  0.5187
 7089TIP3    H245463   6.034   6.620  12.501  1.0635  0.7684 -0.5458
 7090TIP3   OH245464   5.459   4.070  11.124  0.2893 -0.1445  0.2331
 7090TIP3    H145465   5.410   4.072  11.206  1.6902  0.3978  1.1082
 7090TIP3    H245466   5.548   4.045  11.150  0.9517  0.7778 -1.0002
 7091TIP3   OH245467   7.552   2.538  11.042  0.1556  0.3116  0.1674
 7091TIP3    H145468   7.609   2.500  11.109 -1.3025 -1.6187  0.3746
 7091TIP3    H245469   7.570   2.487  10.963 -0.1451  0.7501 -0.1889
 7092TIP3   OH245470   2.433   4.220  10.316 -0.1706 -0.1165 -0.6289
 7092TIP3    H145471   2.407   4.280  10.386 -0.1623  0.7366 -1.3350
 7092TIP3    H245472   2.376   4.243  10.243  2.3154  1.7027 -2.1637
 7093TIP3   OH245473   4.874   5.773  10.703  0.0586 -0.1380  0.5524
 7093TIP3    H145474   4.914   5.720  10.772  1.3991  0.2432  0.1086
 7093TIP3    H245475   4.893   5.726  10.622 -1.0332 -0.3071  0.3822
 7094TIP3   OH245476   4.660   4.699  10.613  0.0035 -0.1042  0.0063
 7094TIP3    H145477   4.632   4.765  10.549  0.6813  0.1952  0.0170
 7094TIP3    H245478   4.615   4.619  10.585 -0.1519  0.1567 -0.5096
 7095TIP3   OH245479   6.906   5.352  11.133  0.3475  0.2127 -0.3525
 7095TIP3    H145480   6.990   5.316  11.160 -1.1652 -1.4410  2.6624
 7095TIP3    H245481   6.902   5.439  11.174 -0.3896 -0.7681  1.7837
 7096TIP3   OH245482   8.212   0.459  12.573 -0.0549  0.6354  0.4224
 7096TIP3    H145483   8.289   0.405  12.591  0.4673  1.7179  1.6097
 7096TIP3    H245484   8.138   0.398  12.578  0.5977 -0.1504  0.7713
 7097TIP3   OH245485   8.107   6.338  10.396 -0.1485  0.0762 -0.0354
 7097TIP3    H145486   8.085   6.246  10.411 -2.2480  0.6570  0.8834
 7097TIP3    H245487   8.194   6.349  10.433 -0.6708 -1.1337  1.6670
 7098TIP3   OH245488   7.749   6.488  12.624  0.1691  0.1774 -0.6912
 7098TIP3    H145489   7.687   6.500  12.695 -0.6613 -1.4049 -1.1023
 7098TIP3    H245490   7.752   6.573  12.580 -0.5420  0.7017  0.2473
 7099TIP3   OH245491   4.115   3.169  10.918 -0.1882 -0.2491  0.0225
 7099TIP3    H145492   4.205   3.145  10.938  0.0341 -0.9260 -1.6519
 7099TIP3    H245493   4.118   3.200  10.827 -1.4587  0.8164  0.3088
 7100TIP3   OH245494   3.303   1.566  12.177 -0.1044 -0.5228  0.3363
 7100TIP3    H145495   3.234   1.528  12.123 -0.5286 -0.5185  0.8681
 7100TIP3    H245496   3.372   1.591  12.115 -1.3196  1.0937 -0.4250
 7101TIP3   OH245497   4.333   2.713  11.373 -0.0659  0.4115  0.7073
 7101TIP3    H145498   4.258   2.747  11.325 -0.6511  0.5140  1.6738
 7101TIP3    H245499   4.333   2.619  11.354  1.5326  0.8547 -1.9359
 7102TIP3   OH245500   1.320   2.801  11.630  0.1084 -0.3674 -0.7027
 7102TIP3    H145501   1.231   2.767  11.627  0.5967 -1.6356 -2.7528
 7102TIP3    H245502   1.369   2.737  11.682  0.2305 -0.7985 -1.3343
 7103TIP3   OH245503   2.470   2.486  12.090 -0.7007 -0.3140  0.4207
 7103TIP3    H145504   2.401   2.438  12.045  0.9656 -0.6914 -1.9000
 7103TIP3    H245505   2.512   2.538  12.022  0.7187  0.6408  1.9333
 7104TIP3   OH245506   6.923   6.879  12.505 -0.2217  0.0890 -0.7618
 7104TIP3    H145507   6.834   6.902  12.476 -0.5524 -1.0610 -0.7146
 7104TIP3    H245508   6.943   6.799  12.457 -0.1396 -0.9634  0.9758
 7105TIP3   OH245509   2.016   4.845  11.430 -0.0172 -0.0798  0.3223
 7105TIP3    H145510   2.039   4.811  11.516 -1.9585  1.0751  1.3481
 7105TIP3    H245511   2.067   4.925  11.421  0.8474 -0.6553  0.0026
 7106TIP3   OH245512   5.396   3.890  10.331 -0.4394 -0.7692 -0.3521
 7106TIP3    H145513   5.471   3.846  10.372 -0.6451 -0.5881  0.2321
 7106TIP3    H245514   5.323   3.829  10.343 -0.8707 -0.0184  1.0286
 7107TIP3   OH245515   5.193   5.488  11.621  0.1124  0.6255  0.3880
 7107TIP3    H145516   5.206   5.471  11.528 -0.1054  3.4773 -0.2705
 7107TIP3    H245517   5.251   5.426  11.665 -0.5713 -1.5177 -1.5547
 7108TIP3   OH245518   6.647   4.859  11.534  0.2318 -0.1289 -0.0496
 7108TIP3    H145519   6.621   4.826  11.449  0.9061  0.0301 -0.3206
 7108TIP3    H245520   6.630   4.787  11.594  1.2498 -0.8022 -0.5611
 7109TIP3   OH245521   0.815   4.144  11.650  0.4980  0.0904 -0.7317
 7109TIP3    H145522   0.748   4.202  11.687  0.3605 -0.3635 -0.2661
 7109TIP3    H245523   0.808   4.156  11.555  0.6347  1.0223 -0.6325
 7110TIP3   OH245524   3.429   3.348  12.606 -0.2222  0.7347  0.0926
 7110TIP3    H145525   3.484   3.270  12.607  1.5449  1.9250 -0.5189
 7110TIP3    H245526   3.342   3.315  12.583  0.7580 -0.8928 -1.5388
 7111TIP3   OH245527   8.001   5.699  12.113  0.5282  0.3972 -0.1246
 7111TIP3    H145528   7.962   5.783  12.138  0.4939  0.2227  0.4318
 7111TIP3    H245529   8.009   5.651  12.196 -0.1045 -0.4312 -0.5339
 7112TIP3   OH245530   3.252   7.879  12.392 -0.1429 -0.1445 -0.6955
 7112TIP3    H145531   3.176   7.902  12.445  0.9591  1.3735  0.3007
 7112TIP3    H245532   3.257   7.949  12.326  2.0728  1.5344  1.1047
 7113TIP3   OH245533   2.179   0.385  12.808  0.2122 -0.4852  0.5920
 7113TIP3    H145534   2.114   0.362  12.742  3.0414 -0.7539 -2.3658
 7113TIP3    H245535   2.181   0.311  12.868 -2.0168 -0.5170  0.6994
 7114TIP3   OH245536   5.212   6.249  10.847 -0.0839 -0.0928 -0.4711
 7114TIP3    H145537   5.175   6.181  10.903 -1.3120  1.5233  0.7611
 7114TIP3    H245538   5.144   6.266  10.781  0.3032 -0.1834 -0.9052
 7115TIP3   OH245539   7.574   7.546  10.599 -0.4649 -0.2349 -0.6108
 7115TIP3    H145540   7.623   7.619  10.560  0.0767  0.8581  1.9095
 7115TIP3    H245541   7.597   7.470  10.545 -1.9547  1.5419 -4.0798
 7116TIP3   OH245542   6.960   2.293  11.323 -0.0848 -0.1829 -0.2919
 7116TIP3    H145543   7.029   2.249  11.371 -0.7598 -0.6570  0.2624
 7116TIP3    H245544   7.003   2.367  11.281  0.6740 -0.2332  0.3825
 7117TIP3   OH245545   1.551   3.901  11.362  0.2479  0.0534  0.0659
 7117TIP3    H145546   1.471   3.849  11.353  0.0953  0.2811  0.1119
 7117TIP3    H245547   1.621   3.835  11.366  0.3457 -0.1218 -2.6864
 7118TIP3   OH245548   3.203   1.432  11.551  0.1260  0.1420  0.1755
 7118TIP3    H145549   3.243   1.476  11.627  0.0991 -0.1526  0.3630
 7118TIP3    H245550   3.129   1.385  11.588 -1.3631  1.9231 -0.3944
 7119TIP3   OH245551   3.552   8.060  11.023 -0.1777 -1.0365 -0.0868
 7119TIP3    H145552   3.583   8.147  11.047  1.7728 -1.0734 -2.1139
 7119TIP3    H245553   3.632   8.008  11.011 -1.2146 -2.5481 -0.8526
 7120TIP3   OH245554   7.232   5.459  10.904 -0.1727 -0.0579  0.6489
 7120TIP3    H145555   7.325   5.462  10.926 -0.1572  1.7821  0.4419
 7120TIP3    H245556   7.195   5.397  10.968  1.2382 -1.2098  0.4135
 7121TIP3   OH245557   0.025   5.861  11.557 -0.2238  0.3937  0.5226
 7121TIP3    H145558   0.023   5.866  11.461 -1.8863 -1.3785  0.4015
 7121TIP3    H245559   0.061   5.774  11.576 -2.6223 -0.5252  1.3472
 7122TIP3   OH245560   1.604   7.733  11.275 -0.0617 -0.3105  0.3028
 7122TIP3    H145561   1.648   7.815  11.297 -0.8698  0.2297  0.0042
 7122TIP3    H245562   1.573   7.698  11.358 -0.3703  0.0934  0.3636
 7123TIP3   OH245563   2.286   4.370  11.936 -0.1993 -0.2435 -0.3571
 7123TIP3    H145564   2.355   4.346  11.875 -1.1384 -1.8105 -0.8323
 7123TIP3    H245565   2.240   4.442  11.893  2.0902  2.0365  0.7028
 7124TIP3   OH245566   7.846   5.934  11.036  0.5858  0.2470  0.1148
 7124TIP3    H145567   7.830   6.027  11.048  0.6757  0.2354  0.3446
 7124TIP3    H245568   7.829   5.896  11.123  2.8515  0.3660  0.6603
 7125TIP3   OH245569   6.372   6.711  11.096  0.0286  0.2173 -0.1776
 7125TIP3    H145570   6.429   6.786  11.084 -1.0226  1.0823  0.0345
 7125TIP3    H245571   6.302   6.724  11.032 -1.1623  0.4433  1.1043
 7126TIP3   OH245572   7.080   2.898  10.608 -0.5285  0.0015 -0.3546
 7126TIP3    H145573   7.156   2.906  10.551 -0.7787  1.2675 -0.5590
 7126TIP3    H245574   7.115   2.905  10.696 -0.3868  0.5266 -0.4465
 7127TIP3   OH245575   4.324   1.990  11.615 -0.1169 -0.3014 -0.0735
 7127TIP3    H145576   4.376   1.933  11.558 -0.1638  0.6708 -1.1251
 7127TIP3    H245577   4.387   2.054  11.649 -0.3860  0.1500 -0.4035
 7128TIP3   OH245578   6.973   4.817  11.495 -0.1209  0.4684  0.4401
 7128TIP3    H145579   6.890   4.770  11.485 -0.5466  1.1305  0.8143
 7128TIP3    H245580   6.973   4.881  11.424 -0.4160  1.1705  1.0643
 7129TIP3   OH245581   1.682   2.950  12.137  0.3286 -0.1942 -0.3072
 7129TIP3    H145582   1.607   3.007  12.151  1.1834  1.1444 -0.9879
 7129TIP3    H245583   1.699   2.911  12.222  0.1513  1.1172  0.3514
 7130TIP3   OH245584   7.771   2.839  10.675 -0.1790 -0.0436  0.2322
 7130TIP3    H145585   7.710   2.876  10.739 -0.5744 -0.3287  0.0226
 7130TIP3    H245586   7.857   2.854  10.714 -0.3898  0.1925  0.6210
 7131TIP3   OH245587   4.846   7.980  12.318  0.0725  0.5263 -0.2397
 7131TIP3    H145588   4.835   7.934  12.236 -4.2923  0.7886 -0.0233
 7131TIP3    H245589   4.879   7.914  12.379 -0.2225 -0.6768 -1.3505
 7132TIP3   OH245590   4.915   2.090  11.646 -0.4790 -0.3079  0.7530
 7132TIP3    H145591   4.825   2.074  11.674 -0.7783  0.3159  0.1760
 7132TIP3    H245592   4.907   2.120  11.555  0.0983  2.0087  1.4021
 7133TIP3   OH245593   6.586   3.520  11.595 -0.4993  0.0993  0.4532
 7133TIP3    H145594   6.561   3.547  11.683 -1.4392 -0.5501  0.3927
 7133TIP3    H245595   6.510   3.475  11.561  0.8929 -2.4233  0.4534
 7134TIP3   OH245596   7.895   2.521  11.755  0.4977  0.1114 -0.4265
 7134TIP3    H145597   7.941   2.587  11.806  0.7517 -0.4400  0.0709
 7134TIP3    H245598   7.826   2.569  11.709  0.8138  0.7488 -0.2351
 7135TIP3   OH245599   6.156   2.389  11.077  0.1180 -0.4481 -0.2233
 7135TIP3    H145600   6.075   2.436  11.097  0.6917  0.0492  1.0349
 7135TIP3    H245601   6.216   2.456  11.043  0.5855 -0.4500  0.5651
 7136TIP3   OH245602   6.168   2.200  11.267  0.4126 -1.0113  0.3065
 7136TIP3    H145603   6.122   2.251  11.334  0.6771 -1.2490  0.6797
 7136TIP3    H245604   6.192   2.263  11.200  1.3473 -0.4994  1.0915
 7137TIP3   OH245605   1.090   7.928  12.340  0.0786  0.1843 -0.1157
 7137TIP3    H145606   1.113   7.841  12.372  0.9502 -0.6192 -2.6491
 7137TIP3    H245607   0.998   7.938  12.363 -0.0161 -1.3899  0.3390
 7138TIP3   OH245608   8.074   1.423  12.158  0.3745  0.1534  0.0302
 7138TIP3    H145609   8.079   1.414  12.254  0.0759 -1.0990 -0.0540
 7138TIP3    H245610   8.134   1.357  12.124  0.6265  0.7258 -0.6524
 7139TIP3   OH245611   4.773   6.936  10.679 -0.1090 -0.0306 -0.4624
 7139TIP3    H145612   4.817   7.014  10.714 -0.1640 -0.3078  0.2293
 7139TIP3    H245613   4.820   6.862  10.718  0.1677 -0.3575 -1.3907
 7140TIP3   OH245614   5.992   6.475  10.586 -0.0079 -0.2485 -0.1970
 7140TIP3    H145615   6.021   6.503  10.673  1.1077  0.7777 -0.8584
 7140TIP3    H245616   5.906   6.436  10.600  0.3496 -0.5111  1.4226
 7141TIP3   OH245617   8.089   7.283  12.543  0.0980 -0.3106  0.1080
 7141TIP3    H145618   8.118   7.374  12.540  0.4952 -0.3818  1.3404
 7141TIP3    H245619   8.158   7.237  12.589  0.4153 -1.4671 -1.4399
 7142TIP3   OH245620   4.636   0.760  11.781 -0.4883  0.0910  0.0101
 7142TIP3    H145621   4.621   0.683  11.726 -0.6946 -0.0832  0.3031
 7142TIP3    H245622   4.581   0.828  11.743  0.4192  0.3772 -0.8244
 7143TIP3   OH245623   6.514   5.402  12.601 -0.5098 -0.3163 -0.0780
 7143TIP3    H145624   6.438   5.460  12.607 -0.2017  0.0677  0.1579
 7143TIP3    H245625   6.482   5.316  12.630 -1.2107 -0.4978 -1.3322
 7144TIP3   OH245626   3.087   7.339  12.289 -0.3296  0.2627 -0.1710
 7144TIP3    H145627   3.152   7.390  12.337  1.1821 -0.7879 -1.0541
 7144TIP3    H245628   3.103   7.248  12.314 -2.4327  0.0660  0.7112
 7145TIP3   OH245629   5.336   4.082  12.454  0.4566  0.3543 -0.8984
 7145TIP3    H145630   5.311   4.075  12.362 -2.1467  1.0028 -0.3120
 7145TIP3    H245631   5.273   4.027  12.500  0.7896  1.1837  0.6147
 7146TIP3   OH245632   3.863   1.138  11.495 -0.2532  0.4165 -0.5772
 7146TIP3    H145633   3.903   1.102  11.574  1.4420  2.0101 -0.6207
 7146TIP3    H245634   3.773   1.156  11.520 -0.5286 -1.6569  0.1064
 7147TIP3   OH245635   7.694   6.534  12.002  0.7023  0.4087 -0.8048
 7147TIP3    H145636   7.680   6.449  11.960  0.7390 -0.1526  0.2854
 7147TIP3    H245637   7.716   6.593  11.930  2.5035 -0.8933 -1.3906
 7148TIP3   OH245638   4.099   7.986  11.981 -0.1757 -0.3415  0.0679
 7148TIP3    H145639   4.095   7.904  12.031 -1.3001 -0.8754 -0.8298
 7148TIP3    H245640   4.139   7.961  11.897 -0.0798  0.1264 -0.0272
 7149TIP3   OH245641   4.077   7.652  10.530 -0.1882  0.4036 -0.3604
 7149TIP3    H145642   4.170   7.674  10.533 -0.1935  0.3935  1.9859
 7149TIP3    H245643   4.032   7.735  10.514  0.1289  0.9331  1.3298
 7150TIP3   OH245644   6.021   7.429  11.641 -0.1810  0.0329  0.1259
 7150TIP3    H145645   5.974   7.453  11.562 -2.5466 -2.2166  0.7255
 7150TIP3    H245646   6.076   7.355  11.615  0.4345  0.4316  0.2432
 7151TIP3   OH245647   2.927   3.314  11.885  0.6035  0.0789 -0.0890
 7151TIP3    H145648   2.910   3.326  11.979 -0.3517 -2.0340  0.0592
 7151TIP3    H245649   2.889   3.392  11.845 -0.4592  0.2450  1.1592
 7152TIP3   OH245650   4.249   6.452  11.830  0.1629  1.0345 -0.1220
 7152TIP3    H145651   4.195   6.427  11.905  1.4309 -0.1212  0.4476
 7152TIP3    H245652   4.209   6.533  11.799 -1.2883  0.7549  0.8750
 7153TIP3   OH245653   8.193   6.010  11.693  0.0147 -0.0083 -0.1862
 7153TIP3    H145654   8.259   5.961  11.645  0.1358 -1.0685  1.0113
 7153TIP3    H245655   8.203   6.100  11.663  0.3132 -0.5581 -1.8515
 7154TIP3   OH245656   8.061   8.312  11.398  0.3504 -0.1352 -0.0741
 7154TIP3    H145657   8.034   8.280  11.484 -0.0956 -1.2899 -0.6167
 7154TIP3    H245658   8.020   8.252  11.336  1.6229 -0.0449 -1.0542
 7155TIP3   OH245659   3.692   4.516  10.471  0.2327  0.1045  0.2981
 7155TIP3    H145660   3.742   4.438  10.446 -0.6219 -0.2967 -0.1922
 7155TIP3    H245661   3.605   4.482  10.494 -0.8641  1.1386 -2.0854
 7156TIP3   OH245662   3.492   0.003  12.036 -0.1837 -0.1395 -0.1730
 7156TIP3    H145663   3.555   0.011  11.965 -0.4242  0.3373 -0.3402
 7156TIP3    H245664   3.434   0.079  12.025  0.2464  0.3873  0.9914
 7157TIP3   OH245665   0.191   7.939  11.665 -0.6621  0.1376 -0.2260
 7157TIP3    H145666   0.265   7.982  11.707 -0.9092  0.5556 -0.2039
 7157TIP3    H245667   0.200   7.847  11.687  1.2638 -0.2618 -2.3061
 7158TIP3   OH245668   6.529   3.080  11.011  0.2737  0.0598  0.0603
 7158TIP3    H145669   6.587   3.116  10.943  1.5649  1.2647  1.7160
 7158TIP3    H245670   6.480   3.156  11.043 -2.2204 -0.9159 -1.2008
 7159TIP3   OH245671   3.603   4.138  10.912  0.3667  0.3224  0.2634
 7159TIP3    H145672   3.682   4.147  10.965  0.6312  0.5948 -0.1756
 7159TIP3    H245673   3.635   4.120  10.823 -0.0149  2.1035 -0.2640
 7160TIP3   OH245674   2.004   4.391  10.756 -0.0649  0.1044 -0.3740
 7160TIP3    H145675   1.994   4.457  10.687 -0.6436 -2.0385 -2.4359
 7160TIP3    H245676   1.923   4.396  10.807  1.2357  3.2274  1.7355
 7161TIP3   OH245677   8.324   1.472  10.466  0.0357 -0.5715  0.0756
 7161TIP3    H145678   8.335   1.392  10.517 -0.7161 -0.1670  0.8986
 7161TIP3    H245679   8.411   1.510  10.462  0.0992 -0.5884  1.1150
 7162TIP3   OH245680   2.404   6.267  11.477 -0.4043 -0.3703 -0.0057
 7162TIP3    H145681   2.311   6.252  11.495 -0.8405  0.5338 -1.4239
 7162TIP3    H245682   2.416   6.239  11.387  0.4659  0.5420 -0.1863
 7163TIP3   OH245683   3.284   7.815  11.571 -0.1236 -0.6758 -0.4512
 7163TIP3    H145684   3.213   7.820  11.634  0.3629 -0.9760  0.1365
 7163TIP3    H245685   3.248   7.766  11.497 -1.2254  1.1066 -1.1633
 7164TIP3   OH245686   3.966   1.048  11.210 -0.3515  0.3907  0.0957
 7164TIP3    H145687   3.964   1.044  11.114  1.0677  2.5734 -0.0925
 7164TIP3    H245688   3.903   0.981  11.238 -1.3762  0.2249 -2.3513
 7165TIP3   OH245689   6.143   6.221  12.629 -0.2114  0.6406 -0.6379
 7165TIP3    H145690   6.051   6.243  12.624 -0.0431  1.2406 -1.2271
 7165TIP3    H245691   6.178   6.276  12.699 -0.4227 -0.0452  0.0134
 7166TIP3   OH245692   7.871   4.803  11.592  0.3402 -0.3723  0.7117
 7166TIP3    H145693   7.883   4.844  11.506 -1.3035 -0.0132  0.6245
 7166TIP3    H245694   7.805   4.857  11.635  1.1314 -0.5571  2.2182
 7167TIP3   OH245695   4.706   5.300  10.578 -0.3093  0.6371 -0.6612
 7167TIP3    H145696   4.749   5.351  10.646 -1.3448  0.2828  0.2846
 7167TIP3    H245697   4.613   5.321  10.587 -0.5494 -0.0273 -1.4428
 7168TIP3   OH245698   0.225   6.229  11.275 -0.1236 -0.2856  0.0432
 7168TIP3    H145699   0.263   6.275  11.200 -1.6931  0.8564 -0.1194
 7168TIP3    H245700   0.152   6.285  11.303  0.9218 -0.1957  2.9886
 7169TIP3   OH245701   7.158   0.210  12.648  0.4364  0.0993 -0.0914
 7169TIP3    H145702   7.248   0.188  12.621  1.2558 -0.4319  2.7474
 7169TIP3    H245703   7.141   0.152  12.722 -0.5351  3.1933  2.3078
 7170TIP3   OH245704   0.111   0.994  10.721  0.0583 -0.6136 -0.5655
 7170TIP3    H145705   0.117   0.898  10.724 -1.6170 -0.7285  0.3474
 7170TIP3    H245706   0.181   1.020  10.661  0.7632 -2.3769 -0.5923
 7171TIP3   OH245707   3.356   6.490  12.115  0.5954  0.7090  0.6091
 7171TIP3    H145708   3.282   6.502  12.173 -2.0583 -1.2719 -2.0615
 7171TIP3    H245709   3.431   6.478  12.173 -1.7470 -0.6628  3.5838
 7172TIP3   OH245710   6.148   1.514  10.453 -0.1839  1.1044  0.5465
 7172TIP3    H145711   6.074   1.457  10.469  0.3263  0.2639 -0.0092
 7172TIP3    H245712   6.216   1.483  10.513  0.1644  0.9999  0.0969
 7173TIP3   OH245713   1.213   4.786  12.412 -0.2614 -0.3633 -0.4100
 7173TIP3    H145714   1.157   4.842  12.465  0.2293 -1.4950  1.3688
 7173TIP3    H245715   1.298   4.829  12.413 -0.5189  0.2086 -1.2897
 7174TIP3   OH245716   7.720   0.851  11.309 -0.2206  0.4533 -0.3517
 7174TIP3    H145717   7.750   0.929  11.264 -1.6132  0.2611 -1.7117
 7174TIP3    H245718   7.660   0.884  11.377  1.0613  0.6750  0.7172
 7175TIP3   OH245719   1.427   1.048  10.434 -0.1278 -0.3533 -0.0033
 7175TIP3    H145720   1.412   1.090  10.350  0.1387  0.6674  0.4355
 7175TIP3    H245721   1.346   1.062  10.483  0.6865  1.5290  0.8886
 7176TIP3   OH245722   6.090   0.625  11.049 -0.2667  0.1045 -0.0830
 7176TIP3    H145723   6.020   0.663  10.996 -1.3564 -1.2803  0.3003
 7176TIP3    H245724   6.116   0.546  11.001  1.4827  0.8841 -0.5175
 7177TIP3   OH245725   6.252   3.983  11.586 -0.5890  0.2696 -0.0682
 7177TIP3    H145726   6.160   4.005  11.602 -0.4491 -0.2453  1.6469
 7177TIP3    H245727   6.293   4.067  11.565 -1.3558  0.5638 -0.4482
 7178TIP3   OH245728   0.313   4.434  10.930  0.9858  0.3831  0.3259
 7178TIP3    H145729   0.369   4.453  10.854 -1.2174  2.3027 -0.9639
 7178TIP3    H245730   0.261   4.359  10.902 -0.2978  1.4992 -0.4370
 7179TIP3   OH245731   2.331   5.522  10.978  0.4526 -0.0936  0.3369
 7179TIP3    H145732   2.251   5.471  10.987  0.3280  0.3712  2.2850
 7179TIP3    H245733   2.397   5.471  11.025  0.6831  0.8014  0.9901
 7180TIP3   OH245734   6.190   7.831  11.887  0.0504 -0.2742 -0.1029
 7180TIP3    H145735   6.216   7.739  11.883  0.1636 -0.2908  0.9003
 7180TIP3    H245736   6.098   7.831  11.861 -0.0990 -0.7360  0.4142
 7181TIP3   OH245737   5.187   7.808  10.298 -0.3197 -0.0190 -0.1235
 7181TIP3    H145738   5.109   7.767  10.262 -0.1085 -1.7350  1.2302
 7181TIP3    H245739   5.155   7.865  10.368 -0.5598  1.8275 -1.6277
 7182TIP3   OH245740   3.888   2.632  10.636 -0.0834  0.0185  0.0142
 7182TIP3    H145741   3.840   2.680  10.569  0.2171  0.9691  0.4609
 7182TIP3    H245742   3.977   2.667  10.633  1.1611 -2.8500 -1.9354
 7183TIP3   OH245743   0.480   1.377  11.899  0.4915  0.0099 -0.2062
 7183TIP3    H145744   0.409   1.412  11.953  0.4335 -0.0073 -0.2705
 7183TIP3    H245745   0.551   1.440  11.910  0.0010  0.7633 -1.2198
 7184TIP3   OH245746   8.439   0.667  11.124 -0.6908  0.0565  0.3546
 7184TIP3    H145747   8.445   0.680  11.030  0.3845  1.6602  0.6163
 7184TIP3    H245748   8.474   0.579  11.138  1.1132  0.5949 -0.5441
 7185TIP3   OH245749   1.074   3.869  10.416 -0.1137  0.3273  0.7311
 7185TIP3    H145750   1.103   3.953  10.380  1.6359 -1.0438 -1.3282
 7185TIP3    H245751   0.979   3.871  10.409 -0.1230  2.1846  0.9049
 7186TIP3   OH245752   4.871   3.148  10.976 -0.4071 -0.0638 -0.0701
 7186TIP3    H145753   4.799   3.183  11.029  1.3988 -0.8495  3.1312
 7186TIP3    H245754   4.935   3.219  10.973  0.2997 -0.6708  0.4103
 7187TIP3   OH245755   5.294   1.604  10.501  0.4650  0.0528 -0.1487
 7187TIP3    H145756   5.324   1.658  10.574 -1.7749  0.1831  0.7256
 7187TIP3    H245757   5.250   1.530  10.542 -1.1710  0.3242 -1.3283
 7188TIP3   OH245758   6.964   5.686  11.688  0.4668 -0.1304 -0.2140
 7188TIP3    H145759   6.877   5.654  11.711  0.8617 -0.5355  0.7646
 7188TIP3    H245760   6.989   5.634  11.611 -0.5409  0.6751 -1.1150
 7189TIP3   OH245761   3.297   5.926  12.521 -0.3153  0.3898  0.5805
 7189TIP3    H145762   3.296   5.944  12.426 -4.4926  0.3922  0.4478
 7189TIP3    H245763   3.280   6.011  12.561  0.2285  0.1728  1.2805
 7190TIP3   OH245764   1.254   3.995  12.500  0.6096 -0.3470  0.2610
 7190TIP3    H145765   1.169   4.034  12.481 -0.3782 -1.9013  1.2897
 7190TIP3    H245766   1.312   4.070  12.516 -0.4569  0.7395 -0.8117
 7191TIP3   OH245767   7.160   8.249  10.980  0.0430 -0.0870  0.6928
 7191TIP3    H145768   7.084   8.240  10.923 -0.1658  1.9220  0.5807
 7191TIP3    H245769   7.233   8.268  10.921  0.0464  0.8764  0.9869
 7192TIP3   OH245770   1.807   5.581  11.811  0.2455  0.0957 -0.1672
 7192TIP3    H145771   1.800   5.492  11.776  0.2694  0.0201  0.0203
 7192TIP3    H245772   1.779   5.574  11.902  2.9349 -0.2666  0.7189
 7193TIP3   OH245773   2.286   1.096  10.684  0.0993 -0.4505  0.1059
 7193TIP3    H145774   2.297   1.157  10.611 -0.1881 -0.7718 -0.2033
 7193TIP3    H245775   2.287   1.010  10.644  0.9827 -0.6791  0.5963
 7194TIP3   OH245776   5.121   4.976  12.486  0.0451 -0.3179  0.4480
 7194TIP3    H145777   5.029   4.956  12.468  0.0463  0.5756 -0.6724
 7194TIP3    H245778   5.123   5.072  12.494  0.5700 -0.4398  2.4000
 7195TIP3   OH245779   0.209   7.002  11.184 -0.4903 -0.2061  0.0724
 7195TIP3    H145780   0.275   6.981  11.251  0.2762  2.8455  0.4332
 7195TIP3    H245781   0.261   7.016  11.105 -0.8277  0.7327  0.0027
 7196TIP3   OH245782   3.822   1.694  11.837  0.0244 -0.6008 -0.2846
 7196TIP3    H145783   3.777   1.620  11.796 -0.1438  0.4534 -2.1295
 7196TIP3    H245784   3.886   1.654  11.895  0.5203 -2.2458 -1.8630
 7197TIP3   OH245785   2.323   8.173  12.626  0.1429  0.3470 -0.0335
 7197TIP3    H145786   2.317   8.269  12.635  0.3070  0.3608 -0.0588
 7197TIP3    H245787   2.417   8.156  12.622  0.1723  0.5186 -3.7109
 7198TIP3   OH245788   3.336   4.708  10.332 -0.6446 -0.3415  0.4567
 7198TIP3    H145789   3.368   4.628  10.289  0.6461  0.4382 -0.0757
 7198TIP3    H245790   3.405   4.732  10.393 -0.9354  0.4729  0.4742
 7199TIP3   OH245791   5.725   0.700  12.065  0.6404 -0.5799 -0.1608
 7199TIP3    H145792   5.743   0.734  12.153  0.2566  0.4757 -0.4729
 7199TIP3    H245793   5.659   0.632  12.079 -0.9054  0.9221  0.2019
 7200TIP3   OH245794   5.418   6.470  10.808 -0.2396  0.1552 -0.3803
 7200TIP3    H145795   5.436   6.492  10.716 -0.0260 -1.2560 -0.7126
 7200TIP3    H245796   5.359   6.395  10.803 -2.2485  1.5707  0.6786
 7201TIP3   OH245797   6.039   3.939  11.319  0.1919  0.2219 -0.2239
 7201TIP3    H145798   6.032   3.938  11.224 -1.6355 -0.2625 -0.1123
 7201TIP3    H245799   5.958   3.900  11.350  0.2698  1.3750  1.5767
 7202TIP3   OH245800   2.116   2.436  12.302  0.5846  1.0697 -0.0866
 7202TIP3    H145801   2.133   2.390  12.220 -0.8738 -0.9104  0.6265
 7202TIP3    H245802   2.021   2.437  12.309  0.6842  0.6559  1.8405
 7203TIP3   OH245803   0.876   3.220  10.548  0.0314  0.3821 -0.4707
 7203TIP3    H145804   0.826   3.211  10.467  0.9427  1.4175 -1.1696
 7203TIP3    H245805   0.816   3.265  10.608 -0.8078 -0.7918 -0.3836
 7204TIP3   OH245806   1.137   2.410  11.097 -0.1650  0.2603 -0.3617
 7204TIP3    H145807   1.063   2.446  11.049  0.0972  2.0010  0.4698
 7204TIP3    H245808   1.105   2.400  11.187  0.2839 -0.0232 -0.2260
 7205TIP3   OH245809   4.095   5.520  11.789 -0.0001 -0.5098 -0.3195
 7205TIP3    H145810   4.179   5.475  11.793 -0.3186 -1.4781 -3.0203
 7205TIP3    H245811   4.029   5.451  11.786 -0.8228  0.2197  0.0687
 7206TIP3   OH245812   6.953   7.474  11.233 -0.3226 -0.0265  0.4794
 7206TIP3    H145813   7.003   7.403  11.273  2.4342  1.3524 -0.3086
 7206TIP3    H245814   6.867   7.470  11.277  0.4771 -2.3989  2.0218
 7207TIP3   OH245815   1.964   7.632  10.630 -0.2279  0.1543 -0.4805
 7207TIP3    H145816   1.984   7.547  10.670 -1.9165 -0.2105 -0.3423
 7207TIP3    H245817   1.995   7.697  10.693 -0.7298 -0.3827  0.3232
 7208TIP3   OH245818   7.180   1.022  10.992 -0.5835 -0.5334  0.5217
 7208TIP3    H145819   7.213   0.951  11.048 -0.5951 -0.5823  0.4654
 7208TIP3    H245820   7.159   1.093  11.054 -0.0565 -0.3798  0.5257
 7209TIP3   OH245821   6.940   6.080  11.462  0.1023 -0.4060 -0.1335
 7209TIP3    H145822   6.863   6.046  11.416 -0.5552  0.3250  0.3860
 7209TIP3    H245823   6.921   6.062  11.554 -0.5641  1.8367  0.2332
 7210TIP3   OH245824   4.945   6.778  10.229  0.5133  0.2908 -0.6013
 7210TIP3    H145825   4.881   6.800  10.296  1.1526  2.1459 -0.5549
 7210TIP3    H245826   4.909   6.815  10.148  1.4996  1.3816 -0.5708
 7211TIP3   OH245827   0.251   4.226  12.115 -0.3759  0.4415 -0.2025
 7211TIP3    H145828   0.200   4.148  12.135  1.1791 -0.4425  0.5091
 7211TIP3    H245829   0.188   4.298  12.117 -1.8444 -0.7722 -0.8651
 7212TIP3   OH245830   0.172   4.900  12.039  0.3346 -0.1592  0.0394
 7212TIP3    H145831   0.179   4.911  12.134  0.9091  0.7440 -0.0971
 7212TIP3    H245832   0.092   4.848  12.027  0.8003 -1.1653  1.0615
 7213TIP3   OH245833   7.467   1.232  13.110  0.3463 -0.1390  0.0405
 7213TIP3    H145834   7.466   1.198  13.200 -2.9014  0.6732  0.4600
 7213TIP3    H245835   7.440   1.157  13.057  1.8425 -0.4983 -0.2618
 7214TIP3   OH245836   1.794   3.186  11.327  0.0184  0.3429  0.3067
 7214TIP3    H145837   1.812   3.116  11.264  0.4777 -1.5668  2.4502
 7214TIP3    H245838   1.716   3.156  11.374 -0.3851  1.7790  0.6016
 7215TIP3   OH245839   3.291   4.060  11.867 -0.5416 -0.2645  0.5510
 7215TIP3    H145840   3.258   4.149  11.876  0.7597  0.1586  1.4871
 7215TIP3    H245841   3.284   4.023  11.956  3.1871  0.5096  1.3125
 7216TIP3   OH245842   4.572   7.340  11.420 -0.6462 -0.3340 -0.0271
 7216TIP3    H145843   4.541   7.374  11.503 -1.4702  0.8216 -0.7787
 7216TIP3    H245844   4.495   7.341  11.363 -0.6710 -3.2227 -0.1976
 7217TIP3   OH245845   1.242   5.994  11.300  0.0326 -0.3448 -0.4737
 7217TIP3    H145846   1.246   6.002  11.205 -1.0718 -0.5768 -0.5489
 7217TIP3    H245847   1.311   5.930  11.321 -0.8856 -1.6503 -1.3074
 7218TIP3   OH245848   6.687   6.549  10.785  0.3786  0.0266  0.1666
 7218TIP3    H145849   6.603   6.512  10.812 -0.0069  1.9085  1.7501
 7218TIP3    H245850   6.750   6.514  10.850  0.1226  1.5494  1.2783
 7219TIP3   OH245851   2.724   1.904  10.361 -0.3391  0.2496  0.0005
 7219TIP3    H145852   2.709   1.888  10.454 -0.2070 -0.9005 -0.1502
 7219TIP3    H245853   2.762   1.822  10.329 -0.3903  0.6254 -1.0656
 7220TIP3   OH245854   2.945   0.492  12.115 -0.2781  0.4928 -0.5792
 7220TIP3    H145855   2.919   0.524  12.201  0.1934 -0.5564 -0.0250
 7220TIP3    H245856   2.899   0.548  12.053 -2.1801  0.0433  0.3494
 7221TIP3   OH245857   6.700   5.611  11.770  0.1705 -0.0448  0.0403
 7221TIP3    H145858   6.693   5.649  11.857 -0.7363  0.1186 -0.0932
 7221TIP3    H245859   6.673   5.519  11.781 -0.6797  0.1627 -0.1825
 7222TIP3   OH245860   6.272   4.703  11.808 -0.1683  0.1362  0.1640
 7222TIP3    H145861   6.252   4.671  11.896  1.2722 -1.1247  0.0657
 7222TIP3    H245862   6.186   4.712  11.766 -0.8076 -0.3202  1.3266
 7223TIP3   OH245863   4.286   0.158  10.661 -0.6617  0.3440  0.3733
 7223TIP3    H145864   4.336   0.096  10.608 -0.8861 -0.0157  0.5775
 7223TIP3    H245865   4.343   0.235  10.667  0.4647 -0.5456  1.7342
 7224TIP3   OH245866   2.710   1.158  11.622 -0.3925 -0.0953  0.1138
 7224TIP3    H145867   2.640   1.223  11.618 -0.8887 -0.6350 -0.3127
 7224TIP3    H245868   2.672   1.080  11.580 -0.2193 -1.0393  1.6376
 7225TIP3   OH245869   6.554   4.719  11.777  0.5597 -0.6412 -0.1453
 7225TIP3    H145870   6.543   4.630  11.745 -1.6975 -0.6284  0.4219
 7225TIP3    H245871   6.481   4.732  11.838  0.5701  1.7252 -0.5298
 7226TIP3   OH245872   0.679   0.679  10.883  0.0800 -0.1445 -0.4186
 7226TIP3    H145873   0.596   0.697  10.928  0.3665 -0.2307  0.1649
 7226TIP3    H245874   0.729   0.760  10.893 -0.4534  0.4028 -1.9869
 7227TIP3   OH245875   3.647   4.809  12.805 -0.0332  0.1881 -0.0872
 7227TIP3    H145876   3.602   4.817  12.721 -1.4206  1.7896  0.7225
 7227TIP3    H245877   3.711   4.740  12.792 -1.4739 -0.9151 -1.8957
 7228TIP3   OH245878   7.788   7.729  10.496 -0.3879 -0.4244 -0.0785
 7228TIP3    H145879   7.859   7.770  10.447 -0.4773  0.0104  0.1522
 7228TIP3    H245880   7.761   7.795  10.559 -0.2728 -0.9776  0.5677
 7229TIP3   OH245881   7.205   0.872  10.639 -0.2855  0.2418  0.5185
 7229TIP3    H145882   7.151   0.887  10.561  2.3801  0.3342 -1.4295
 7229TIP3    H245883   7.261   0.798  10.615 -0.1539 -0.4882  2.8225
 7230TIP3   OH245884   5.882   3.055  11.900 -0.3907  0.7040 -0.3106
 7230TIP3    H145885   5.951   3.000  11.863 -0.6083 -0.2923  0.7025
 7230TIP3    H245886   5.827   3.077  11.825  0.4541  0.6679 -0.9596
 7231TIP3   OH245887   0.464   2.354  10.791 -0.2544  0.3763 -0.2194
 7231TIP3    H145888   0.394   2.367  10.727 -0.3114 -0.2593 -0.2932
 7231TIP3    H245889   0.419   2.332  10.872 -0.1591  0.5365 -0.1234
 7232TIP3   OH245890   0.418   0.075  10.344  0.0791  0.2243 -0.3410
 7232TIP3    H145891   0.394  -0.016  10.365  0.0582  0.2970 -0.0462
 7232TIP3    H245892   0.510   0.070  10.320  0.3221  0.2548  0.5384
 7233TIP3   OH245893   1.248   3.682  11.777 -0.2392 -0.4677 -0.2948
 7233TIP3    H145894   1.268   3.617  11.711  1.0031 -2.3071  1.7555
 7233TIP3    H245895   1.218   3.632  11.853 -1.2005  1.4980  0.7294
 7234TIP3   OH245896   4.519   7.009  10.603  0.4989 -0.2509  0.0725
 7234TIP3    H145897   4.504   6.914  10.601 -1.7531 -0.0366  1.9638
 7234TIP3    H245898   4.611   7.018  10.627  0.6174 -1.9855  0.4066
 7235TIP3   OH245899   1.664   7.624  12.775  0.0157 -0.4621  0.3820
 7235TIP3    H145900   1.731   7.563  12.806 -1.0550 -1.5362  0.6872
 7235TIP3    H245901   1.709   7.708  12.767  1.9231 -1.5745 -1.4891
 7236TIP3   OH245902   3.552   4.286  11.382 -0.1402  0.0934 -0.2758
 7236TIP3    H145903   3.594   4.350  11.439 -0.6045  0.4580 -0.3302
 7236TIP3    H245904   3.506   4.227  11.442 -1.5398  1.1234 -0.2856
 7237TIP3   OH245905   2.881   1.482  10.764  0.3464 -0.5106  0.0409
 7237TIP3    H145906   2.904   1.537  10.840  0.1886  0.2419 -0.4400
 7237TIP3    H245907   2.856   1.398  10.802 -0.2050  0.0099  0.8700
 7238TIP3   OH245908   3.554   5.579  10.717  0.1199  0.3215 -0.3130
 7238TIP3    H145909   3.470   5.624  10.725  0.0890  0.1783  0.2315
 7238TIP3    H245910   3.560   5.526  10.797  1.1115  0.9637  0.0573
 7239TIP3   OH245911   4.564   4.299  11.619  0.2861  0.3003  0.0444
 7239TIP3    H145912   4.578   4.247  11.698 -0.6077 -0.0309 -0.0074
 7239TIP3    H245913   4.576   4.236  11.547  0.1049  0.3787 -0.0530
 7240TIP3   OH245914   6.643   0.033  12.723  0.5527 -0.2677 -0.0519
 7240TIP3    H145915   6.666  -0.038  12.782  0.2935 -0.1820  0.1500
 7240TIP3    H245916   6.674   0.112  12.767 -1.6130  0.0484  1.0410
 7241TIP3   OH245917   5.470   1.041  11.606 -0.2060 -0.0568 -0.5154
 7241TIP3    H145918   5.501   1.011  11.692  1.3610  0.2495 -0.9287
 7241TIP3    H245919   5.466   1.136  11.614  1.8679  0.1646 -1.2978
 7242TIP3   OH245920   6.524   3.190  11.340  0.5884 -0.0303  0.4299
 7242TIP3    H145921   6.504   3.227  11.426 -0.5169  0.8298 -0.1566
 7242TIP3    H245922   6.439   3.160  11.306  0.8668  0.3304 -0.6512
 7243TIP3   OH245923   0.992   0.668  11.003 -0.1763  0.3121  0.0797
 7243TIP3    H145924   1.065   0.656  11.064 -0.6524 -0.3606  0.5364
 7243TIP3    H245925   1.016   0.616  10.926 -0.1753  0.0826  0.2334
 7244TIP3   OH245926   2.088   1.968  11.677  0.3302 -0.4828 -0.6273
 7244TIP3    H145927   2.036   1.897  11.638 -0.3738 -0.4273  0.1687
 7244TIP3    H245928   2.102   1.940  11.768  1.2289 -0.2287 -0.6788
 7245TIP3   OH245929   2.848   1.031  11.830  0.1845  0.1926  0.3807
 7245TIP3    H145930   2.836   1.100  11.764  1.7722  1.2576  1.1399
 7245TIP3    H245931   2.761   0.992  11.840 -0.5680  1.4978 -0.7239
 7246TIP3   OH245932   4.858   2.756  11.426 -0.4220  0.0287  0.4141
 7246TIP3    H145933   4.763   2.754  11.423 -0.4640  1.5790 -0.0872
 7246TIP3    H245934   4.884   2.805  11.348  0.7256  0.5682  1.1083
 7247TIP3   OH245935   4.394   5.066  12.682  0.1685  0.2181 -0.0229
 7247TIP3    H145936   4.349   4.993  12.724  0.8944 -0.5054 -0.4791
 7247TIP3    H245937   4.396   5.044  12.589  0.1959  0.9315 -0.2010
 7248TIP3   OH245938   2.916   2.896  11.488  0.1162  0.1461  0.0570
 7248TIP3    H145939   2.948   2.974  11.534 -2.7652  1.3462  0.2364
 7248TIP3    H245940   2.894   2.834  11.558  0.5259 -0.0497  0.0149
 7249TIP3   OH245941   6.169   0.789  12.328 -0.8089 -0.0312 -0.1553
 7249TIP3    H145942   6.188   0.703  12.365 -2.2716 -0.1443  0.3787
 7249TIP3    H245943   6.176   0.777  12.234 -2.0974 -1.0286 -0.1378
 7250TIP3   OH245944   2.138   1.135  11.516  0.0979  0.3501  0.3283
 7250TIP3    H145945   2.121   1.194  11.443 -0.5841 -0.3340 -0.0772
 7250TIP3    H245946   2.099   1.178  11.592 -3.2605 -0.9578 -0.4746
 7251TIP3   OH245947   2.976   8.370  10.934  0.0827  0.1259  0.0672
 7251TIP3    H145948   2.883   8.392  10.946 -0.5601 -1.3746 -1.7288
 7251TIP3    H245949   2.996   8.311  11.007 -0.6536 -0.2591 -0.0293
 7252TIP3   OH245950   4.602   6.653  11.193  0.3725  0.3284 -0.0681
 7252TIP3    H145951   4.692   6.679  11.173  0.4008  0.9840  0.8315
 7252TIP3    H245952   4.606   6.618  11.282 -0.3858  1.1110  0.2888
 7253TIP3   OH245953   6.575   6.140  11.414  0.4938  0.0151  0.5722
 7253TIP3    H145954   6.614   6.054  11.430  0.1397 -0.7436 -2.1623
 7253TIP3    H245955   6.482   6.122  11.401  0.4283  0.7872 -0.0766
 7254TIP3   OH245956   0.260   4.728  10.366  0.0511 -0.0579  0.1014
 7254TIP3    H145957   0.270   4.779  10.286  0.8884  1.3541  1.0509
 7254TIP3    H245958   0.166   4.728  10.383  0.0009  0.8208 -0.1432
 7255TIP3   OH245959   1.468   3.500  10.821 -0.6734  0.8188 -0.7099
 7255TIP3    H145960   1.508   3.433  10.876 -0.5156 -0.8914 -2.7610
 7255TIP3    H245961   1.528   3.575  10.825  0.2696  0.0423 -0.0516
 7256TIP3   OH245962   0.885   2.257  10.529  0.3110 -0.0672  0.4905
 7256TIP3    H145963   0.913   2.292  10.614  0.2495 -0.1112  0.5288
 7256TIP3    H245964   0.907   2.164  10.534  2.4764  0.3332 -0.4154
 7257TIP3   OH245965   1.442   7.384  12.542  0.4478  0.5086 -0.0459
 7257TIP3    H145966   1.430   7.453  12.608 -1.6292  0.9776 -0.8228
 7257TIP3    H245967   1.377   7.318  12.565  1.2384 -0.3922 -0.3342
 7258TIP3   OH245968   7.913   7.522  10.646  0.5475 -0.2018 -0.4133
 7258TIP3    H145969   7.843   7.560  10.593 -0.3371 -0.7201  0.3597
 7258TIP3    H245970   7.982   7.588  10.645 -0.5734  1.0151  0.0910
 7259TIP3   OH245971   7.484   1.185  12.284 -0.1952  0.0322  0.2512
 7259TIP3    H145972   7.458   1.107  12.333  1.0990 -0.3326  0.3974
 7259TIP3    H245973   7.571   1.164  12.250 -0.9697  0.3100 -2.1108
 7260TIP3   OH245974   4.353   3.843  11.575  0.1099 -0.3983  0.0110
 7260TIP3    H145975   4.369   3.762  11.527 -0.3547  0.0605 -0.9415
 7260TIP3    H245976   4.288   3.890  11.523 -0.2219  0.2340  0.9644
 7261TIP3   OH245977   7.236   4.985  11.358  0.1401  0.9044  0.1344
 7261TIP3    H145978   7.315   5.030  11.326  0.6567  1.1809  1.6761
 7261TIP3    H245979   7.226   4.910  11.301 -0.3341  2.5486 -2.0922
 7262TIP3   OH245980   6.187   1.864  11.573  0.1386 -0.5268 -0.1343
 7262TIP3    H145981   6.187   1.777  11.613  0.9855 -1.0872 -1.2683
 7262TIP3    H245982   6.143   1.851  11.489 -1.8253  0.6727  0.6569
 7263TIP3   OH245983   3.682   2.063  11.491  0.1563 -0.0523 -0.1556
 7263TIP3    H145984   3.669   2.013  11.571 -0.5189 -1.6252 -1.2127
 7263TIP3    H245985   3.725   2.144  11.521  2.2056 -1.6168  1.5123
 7264TIP3   OH245986   2.588   5.860  10.803  0.1769 -0.1783  0.0674
 7264TIP3    H145987   2.679   5.880  10.824  0.0788 -0.8464  1.1543
 7264TIP3    H245988   2.593   5.784  10.745  0.4089  1.2905 -1.9821
 7265TIP3   OH245989   3.582   2.928  17.682  0.5081 -0.4855  0.0426
 7265TIP3    H145990   3.494   2.903  17.654  0.6890 -0.6688 -0.3622
 7265TIP3    H245991   3.602   2.867  17.753  0.4227 -0.6240 -0.0531
 7266TIP3   OH245992   0.714   2.046  11.502 -0.2659 -0.2132 -0.4556
 7266TIP3    H145993   0.634   2.094  11.481 -0.7695 -0.8941 -0.1677
 7266TIP3    H245994   0.707   2.030  11.596 -1.0791 -2.4731 -0.8303
 7267TIP3   OH245995   7.510   6.549  10.519  0.6008  0.5409  0.1402
 7267TIP3    H145996   7.588   6.599  10.542  0.8237  0.7394 -0.9789
 7267TIP3    H245997   7.438   6.611  10.532  0.8030  0.9206 -0.4927
 7268TIP3   OH245998   5.211   3.930  10.958 -0.0073 -0.0607  0.2363
 7268TIP3    H145999   5.173   3.972  11.035  1.6726 -1.2489  1.7959
 7268TIP3    H246000   5.270   3.996  10.921  0.0147  0.1438  0.6301
 7269TIP3   OH246001   3.641   5.215  11.149  0.6578 -0.9994 -0.0115
 7269TIP3    H146002   3.577   5.264  11.200  2.5084 -0.3824  1.8384
 7269TIP3    H246003   3.589   5.168  11.084 -1.4471  1.2678 -0.1068
 7270TIP3   OH246004   1.023   1.376  11.515  0.3660  0.0379 -0.1166
 7270TIP3    H146005   0.971   1.342  11.588 -0.1661 -0.5104 -0.7438
 7270TIP3    H246006   0.983   1.461  11.494 -1.1342 -0.9324 -1.4252
 7271TIP3   OH246007   6.177   2.734  10.471 -0.6790  0.4044 -0.5768
 7271TIP3    H146008   6.142   2.651  10.440 -0.7928  0.8569 -1.7162
 7271TIP3    H246009   6.270   2.717  10.487 -1.0343 -0.3563  0.8114
 7272TIP3   OH246010   8.145   8.005  11.400  0.1610 -0.0381 -0.0636
 7272TIP3    H146011   8.206   8.074  11.428 -0.4094  1.0970 -1.5282
 7272TIP3    H246012   8.201   7.938  11.362  0.6117  0.2562  0.0684
 7273TIP3   OH246013   1.441   4.051  10.779 -0.1452 -0.5157 -0.5231
 7273TIP3    H146014   1.485   4.127  10.740  1.1027 -0.6752  0.5294
 7273TIP3    H246015   1.357   4.047  10.733 -0.4123  1.7284 -0.3753
 7274TIP3   OH246016   8.227   4.400  10.818  0.0389  0.0961 -0.2119
 7274TIP3    H146017   8.176   4.390  10.899  0.8009 -0.3866  0.2202
 7274TIP3    H246018   8.247   4.494  10.814 -0.2993  0.1777 -0.0201
 7275TIP3   OH246019   0.270   4.370  12.715 -0.3836  0.0837 -0.0148
 7275TIP3    H146020   0.204   4.398  12.780 -0.3311 -1.4478  0.7383
 7275TIP3    H246021   0.245   4.416  12.635 -2.2868 -0.3257  0.2966
 7276TIP3   OH246022   4.723   2.958  10.632  0.0010 -0.2570 -0.6674
 7276TIP3    H146023   4.710   2.900  10.557  0.8580 -0.1100 -0.9501
 7276TIP3    H246024   4.640   2.958  10.678 -0.2247 -1.1612 -1.0545
 7277TIP3   OH246025   3.466   0.135  11.621  0.2251 -0.2293  0.7249
 7277TIP3    H146026   3.511   0.209  11.664 -0.5184  0.0905  0.9647
 7277TIP3    H246027   3.373   0.158  11.626  0.0305 -0.9191  0.2902
 7278TIP3   OH246028   1.176   7.715  11.123  0.1280 -0.0002  0.4601
 7278TIP3    H146029   1.086   7.742  11.104  0.5923  1.5954  0.3698
 7278TIP3    H246030   1.175   7.693  11.216 -0.1393  1.0158  0.7093
 7279TIP3   OH246031   5.980   7.427  11.064  0.2391 -0.4759  0.0846
 7279TIP3    H146032   6.010   7.514  11.040  0.1709 -0.2262  0.8965
 7279TIP3    H246033   5.951   7.388  10.981  2.2152 -0.5035 -0.6494
 7280TIP3   OH246034   4.944   6.740  10.784  0.1465  0.4176 -0.6756
 7280TIP3    H146035   5.005   6.708  10.852 -0.4665  0.2318 -0.2033
 7280TIP3    H246036   4.899   6.661  10.754  2.1059  0.1068 -3.0570
 7281TIP3   OH246037   5.236   1.922  12.540  0.3368  0.1650  0.2025
 7281TIP3    H146038   5.168   1.861  12.569  1.2017 -0.4377  1.0247
 7281TIP3    H246039   5.189   2.004  12.524 -1.0837 -0.9870 -2.1789
 7282TIP3   OH246040   5.577   3.688  11.413  0.5788 -0.4113  0.9364
 7282TIP3    H146041   5.642   3.735  11.464 -0.2689  0.5937  1.1183
 7282TIP3    H246042   5.494   3.707  11.457 -0.1835  0.5226 -0.8309
 7283TIP3   OH246043   2.545   7.993  12.433  0.0385  0.1969  0.0405
 7283TIP3    H146044   2.597   7.940  12.493  1.3213 -0.9244 -1.9414
 7283TIP3    H246045   2.546   7.944  12.351  0.1141  2.6201 -1.5018
 7284TIP3   OH246046   6.853   5.958  11.686 -0.1504 -0.4059  0.2140
 7284TIP3    H146047   6.914   5.884  11.688 -1.1633 -1.2602  1.8729
 7284TIP3    H246048   6.769   5.919  11.662 -0.6847  0.2178  1.0421
 7285TIP3   OH246049   3.977   6.288  11.586 -0.2638 -0.0678  0.3077
 7285TIP3    H146050   3.969   6.214  11.647 -0.5041  0.0376  0.4076
 7285TIP3    H246051   3.932   6.360  11.629  2.1739  0.9077  1.3694
 7286TIP3   OH246052   2.286   1.079  12.204 -0.3985  0.1698 -0.0743
 7286TIP3    H146053   2.313   1.159  12.249 -3.8604  2.0202 -0.9094
 7286TIP3    H246054   2.255   1.021  12.273 -1.2415  1.0490  0.2969
 7287TIP3   OH246055   3.048   4.404  11.699 -0.2481 -0.5048 -0.4563
 7287TIP3    H146056   3.020   4.479  11.751 -1.3303 -0.3129 -1.2712
 7287TIP3    H246057   3.102   4.442  11.629 -0.0221 -0.5923 -0.3297
 7288TIP3   OH246058   2.347   2.572  12.460 -0.0919 -0.3280  0.2858
 7288TIP3    H146059   2.371   2.628  12.534 -2.0852  0.3318  0.4710
 7288TIP3    H246060   2.252   2.575  12.457 -0.1049 -1.2973 -1.5941
 7289TIP3   OH246061   5.303   1.618  10.915 -0.7972  0.2825 -0.3194
 7289TIP3    H146062   5.263   1.684  10.972 -2.3472  0.3519 -1.4072
 7289TIP3    H246063   5.370   1.577  10.969 -1.5021  1.0319  1.2048
 7290TIP3   OH246064   2.625   7.778  11.390  1.0143  0.1706 -0.3522
 7290TIP3    H146065   2.621   7.806  11.298 -1.5463 -1.1848 -0.7509
 7290TIP3    H246066   2.593   7.854  11.439 -0.2881 -0.0171 -0.8716
 7291TIP3   OH246067   3.849   2.766  11.694  0.2744  0.5811  0.2922
 7291TIP3    H146068   3.861   2.858  11.717 -0.4793  0.1709  2.6016
 7291TIP3    H246069   3.774   2.738  11.747  0.0609 -1.2061 -0.8709
 7292TIP3   OH246070   1.899   2.467  10.807  0.0864  0.2261 -0.4470
 7292TIP3    H146071   1.871   2.400  10.744  1.9712 -1.9704  0.9090
 7292TIP3    H246072   1.994   2.456  10.812  0.2219  1.8143  1.1865
 7293TIP3   OH246073   2.549   3.751  10.669 -0.0625  0.3993  0.1048
 7293TIP3    H146074   2.574   3.843  10.672 -2.0497  1.0307 -0.7270
 7293TIP3    H246075   2.508   3.734  10.754 -0.6607  0.6017 -0.1385
 7294TIP3   OH246076   6.009   1.160  10.611  0.9874  0.5451 -0.0803
 7294TIP3    H146077   6.098   1.128  10.630  0.8017  0.3868  0.5472
 7294TIP3    H246078   5.952   1.104  10.663  0.3732 -0.4307 -1.7682
 7295TIP3   OH246079   4.189   7.598  11.757  0.3678 -0.0853  0.0017
 7295TIP3    H146080   4.212   7.528  11.696 -0.1906  0.5658 -0.9736
 7295TIP3    H246081   4.212   7.563  11.843  2.5021 -0.4883 -0.6752
 7296TIP3   OH246082   2.944   3.423  12.425 -0.1841 -0.0962 -0.2348
 7296TIP3    H146083   2.919   3.334  12.449  0.1954 -0.0241  0.4562
 7296TIP3    H246084   2.870   3.477  12.453  0.1964 -0.0297  0.6708
 7297TIP3   OH246085   8.073   4.901  12.756  0.4267  0.4947  0.2487
 7297TIP3    H146086   8.145   4.877  12.697  1.7408  1.5083  1.3610
 7297TIP3    H246087   8.044   4.987  12.725  1.2144  1.0947  1.1047
 7298TIP3   OH246088   8.341   7.441  10.945 -0.1719  0.6047  0.4137
 7298TIP3    H146089   8.274   7.454  11.012 -1.5814  0.7331 -0.9857
 7298TIP3    H246090   8.385   7.360  10.972 -2.5320 -0.9018  0.0686
 7299TIP3   OH246091   1.925   4.400  12.313 -0.3173 -0.2137 -0.2655
 7299TIP3    H146092   1.929   4.411  12.408 -1.8687 -1.5740  0.0201
 7299TIP3    H246093   1.959   4.312  12.298  2.3656  0.9018 -1.3127
 7300TIP3   OH246094   1.409   1.319  10.839  0.0828 -0.0222 -0.0450
 7300TIP3    H146095   1.502   1.324  10.815  0.0507 -0.4424 -0.2594
 7300TIP3    H246096   1.364   1.307  10.756 -0.1938  0.4853  0.0256
 7301TIP3   OH246097   7.932   5.699  10.573 -0.9798  0.4212 -0.7701
 7301TIP3    H146098   7.979   5.724  10.652 -1.2416 -0.4011 -0.3453
 7301TIP3    H246099   7.839   5.704  10.597 -1.0513 -0.3893 -0.8327
 7302TIP3   OH246100   0.659   2.837  11.731 -0.4751 -0.4965 -0.4802
 7302TIP3    H146101   0.730   2.877  11.682 -1.9764  1.3731 -1.2343
 7302TIP3    H246102   0.656   2.886  11.813 -0.7472 -0.7464 -0.3385
 7303TIP3   OH246103   5.996   3.623  11.030  0.2181  0.0107  0.0099
 7303TIP3    H146104   5.968   3.664  11.112 -1.0996 -1.7511  0.5260
 7303TIP3    H246105   5.920   3.571  11.003  1.6559 -1.8331 -0.7165
 7304TIP3   OH246106   3.341   0.229  13.023 -0.2523 -0.0166 -0.5459
 7304TIP3    H146107   3.249   0.255  13.034 -0.6706 -1.0313 -1.4458
 7304TIP3    H246108   3.374   0.286  12.953 -0.5006 -0.3405 -0.9302
 7305TIP3   OH246109   8.155   3.476  11.288  0.1358 -0.1786 -0.5720
 7305TIP3    H146110   8.108   3.408  11.338 -0.0182 -0.6800 -1.3796
 7305TIP3    H246111   8.130   3.558  11.329 -3.5428 -0.1416 -2.5143
 7306TIP3   OH246112   6.645   5.926  10.502 -0.2576  0.0967 -0.4394
 7306TIP3    H146113   6.727   5.877  10.500  0.3799  1.1441 -0.5957
 7306TIP3    H246114   6.671   6.018  10.505 -1.4261  0.4822 -1.1522
 7307TIP3   OH246115   4.780   1.484  11.452 -0.1412  0.9449 -0.4134
 7307TIP3    H146116   4.833   1.532  11.515  0.2203 -1.5715  1.3457
 7307TIP3    H246117   4.841   1.457  11.384  0.6044 -0.6252  0.8175
 7308TIP3   OH246118   7.826   6.955  12.260 -0.5373 -0.0788  0.2691
 7308TIP3    H146119   7.733   6.964  12.279 -0.3598  1.8196  0.4091
 7308TIP3    H246120   7.870   6.980  12.341  0.1368 -2.1283  0.6177
 7309TIP3   OH246121   7.231   3.626  10.968  0.0765  0.3721  0.2789
 7309TIP3    H146122   7.219   3.565  11.040  2.5054  0.1846  0.6291
 7309TIP3    H246123   7.326   3.626  10.953 -0.0962  2.3612 -1.2027
 7310TIP3   OH246124   7.638   2.344  11.606  0.1737 -0.4255 -0.3258
 7310TIP3    H146125   7.545   2.362  11.596  0.1716 -0.3585 -0.1799
 7310TIP3    H246126   7.680   2.429  11.594  0.2905 -0.6219 -1.3947
 7311TIP3   OH246127   1.859   0.728  10.586  0.4578  0.0212 -0.4459
 7311TIP3    H146128   1.823   0.735  10.674  2.9105  3.2499  0.4712
 7311TIP3    H246129   1.786   0.748  10.528 -0.1445  2.8595  1.1499
 7312TIP3   OH246130   1.279   1.572  11.821 -0.2572 -0.1475  0.2094
 7312TIP3    H146131   1.202   1.579  11.765 -0.5824 -0.6050  0.5869
 7312TIP3    H246132   1.244   1.572  11.910  0.2313  0.3031  0.4079
 7313TIP3   OH246133   7.956   8.187  11.658  0.0585 -0.5507 -0.0872
 7313TIP3    H146134   7.934   8.103  11.617  2.4641 -0.8894 -0.8935
 7313TIP3    H246135   7.980   8.165  11.748  1.7543 -0.9513 -0.6048
 7314TIP3   OH246136   2.681   8.314  12.260 -0.3770  0.0729  0.1553
 7314TIP3    H146137   2.673   8.257  12.336 -0.8396  1.6239  1.3314
 7314TIP3    H246138   2.606   8.291  12.205 -2.5256  1.6740  2.1793
 7315TIP3   OH246139   0.891   6.631  11.196  0.5423 -0.1520  0.3739
 7315TIP3    H146140   0.900   6.721  11.167 -0.2750 -0.4590 -0.9217
 7315TIP3    H246141   0.979   6.606  11.224  0.7075  1.1336  1.0603
 7316TIP3   OH246142   8.013   0.566  11.092 -0.0610  0.1144  0.0185
 7316TIP3    H146143   8.002   0.527  11.005 -1.5858  0.2791  0.0973
 7316TIP3    H246144   7.943   0.631  11.098  0.1365  0.2417  1.3029
 7317TIP3   OH246145   7.296   5.708  12.133  0.9533 -0.0088 -0.4249
 7317TIP3    H146146   7.278   5.779  12.072  0.5691  0.7523  0.5298
 7317TIP3    H246147   7.247   5.633  12.099  0.6545  0.4301 -0.9741
 7318TIP3   OH246148   6.223   0.548  11.268  0.4532 -0.1173 -0.1414
 7318TIP3    H146149   6.215   0.609  11.341  0.4318  0.4318 -0.5933
 7318TIP3    H246150   6.179   0.592  11.195  0.4412 -0.6714 -0.4732
 7319TIP3   OH246151   5.262   8.141  10.330 -0.2859 -0.3812  0.0408
 7319TIP3    H146152   5.201   8.116  10.399  0.2620 -2.4794 -0.1695
 7319TIP3    H246153   5.232   8.094  10.252  0.7868 -0.3652 -0.4076
 7320TIP3   OH246154   3.859   0.204  11.573 -0.5652  0.2375  1.1745
 7320TIP3    H146155   3.842   0.186  11.480  2.0142  0.7573  0.5202
 7320TIP3    H246156   3.880   0.119  11.610  0.3370  0.2668  0.7731
 7321TIP3   OH246157   6.904   0.966  12.782 -0.4145  0.1798 -0.2160
 7321TIP3    H146158   6.867   0.880  12.805 -2.7437 -0.0368 -3.9187
 7321TIP3    H246159   6.967   0.946  12.713  0.2665  1.3475  0.0583
 7322TIP3   OH246160   6.333   0.726  10.409 -0.2775  0.3775  0.0648
 7322TIP3    H146161   6.258   0.669  10.426 -0.2845  0.5322  0.5580
 7322TIP3    H246162   6.294   0.813  10.397  0.0094  1.1458  3.5921
 7323TIP3   OH246163   2.982   8.043  10.465 -0.0191 -0.0060  0.4579
 7323TIP3    H146164   2.980   8.077  10.554 -0.5175  0.5076  0.2571
 7323TIP3    H246165   2.917   7.973  10.464 -0.1946  0.1535  0.4428
 7324TIP3   OH246166   0.491   4.014  11.550  0.1954 -0.8721 -0.0235
 7324TIP3    H146167   0.519   3.945  11.490 -0.3998 -1.1427  0.0042
 7324TIP3    H246168   0.506   3.977  11.637 -1.4447 -1.5409  0.0064
 7325TIP3   OH246169   5.079   4.070  11.536 -0.3530 -0.1068  0.7871
 7325TIP3    H146170   5.093   4.160  11.567  0.2212  0.5931 -1.3583
 7325TIP3    H246171   5.126   4.015  11.600  0.6230  1.2289  1.2699
 7326TIP3   OH246172   6.218   2.016  11.818 -0.0413  0.5297 -0.1094
 7326TIP3    H146173   6.207   1.976  11.732  0.3546 -1.2128  0.6090
 7326TIP3    H246174   6.130   2.048  11.841 -0.4590 -0.2645 -0.5621
 7327TIP3   OH246175   0.041   7.875  11.067  0.0542  0.0362 -0.1380
 7327TIP3    H146176   0.024   7.905  10.978  0.7546 -2.2939 -1.1056
 7327TIP3    H246177   0.136   7.875  11.075  0.0633 -1.4648 -0.0279
 7328TIP3   OH246178   6.692   2.637  11.243 -0.6978 -0.1533 -0.2461
 7328TIP3    H146179   6.641   2.567  11.200  1.0483 -1.4667 -0.2696
 7328TIP3    H246180   6.684   2.711  11.183 -0.8508 -0.9968 -1.3201
 7329TIP3   OH246181   0.457   2.749  11.232 -0.4566 -0.2267 -0.0483
 7329TIP3    H146182   0.391   2.682  11.211 -1.3107  0.2911  0.8811
 7329TIP3    H246183   0.463   2.802  11.153 -0.0975 -1.1220 -0.6436
 7330TIP3   OH246184   3.680   5.483  12.353  0.3425  0.1744 -0.3246
 7330TIP3    H146185   3.669   5.391  12.330 -1.0208  0.1331  0.4005
 7330TIP3    H246186   3.707   5.525  12.271  1.4189 -0.9326 -0.5512
 7331TIP3   OH246187   4.497   3.612  11.369  0.0405  0.0946  0.0371
 7331TIP3    H146188   4.474   3.565  11.449 -0.8859  1.4160  0.5830
 7331TIP3    H246189   4.589   3.635  11.379 -0.0771  0.2600  0.7279
 7332TIP3   OH246190   2.190   2.260  10.524  0.3190  0.0639 -0.3987
 7332TIP3    H146191   2.237   2.294  10.600 -0.4448  1.9548 -0.7204
 7332TIP3    H246192   2.163   2.171  10.550  2.8423 -0.5938  0.2798
 7333TIP3   OH246193   4.747   6.525  11.762  0.2625  0.0815 -0.2859
 7333TIP3    H146194   4.660   6.556  11.737  0.6101  1.2286 -0.0999
 7333TIP3    H246195   4.772   6.464  11.692 -1.1479 -1.1624  0.2386
 7334TIP3   OH246196   5.226   8.326  10.881  0.0886 -0.2133  0.3337
 7334TIP3    H146197   5.246   8.403  10.934 -1.8611  0.1836  0.5602
 7334TIP3    H246198   5.131   8.318  10.885 -0.1182 -0.4919 -2.6219
 7335TIP3   OH246199   3.135   0.167  10.375  0.1729  0.1234  0.5341
 7335TIP3    H146200   3.103   0.076  10.380 -1.2421  0.5980  0.5338
 7335TIP3    H246201   3.219   0.165  10.422  1.1813 -1.5997 -1.1571
 7336TIP3   OH246202   5.576   4.528  10.685  0.3531  0.2276 -0.2107
 7336TIP3    H146203   5.600   4.467  10.755  0.4235 -0.1289 -0.5414
 7336TIP3    H246204   5.593   4.615  10.722 -3.3533  0.3547  1.7584
 7337TIP3   OH246205   3.919   6.907  11.685 -0.0528 -0.1821 -0.0269
 7337TIP3    H146206   3.953   6.996  11.675  0.1303 -0.2340  0.1405
 7337TIP3    H246207   3.947   6.862  11.605 -2.0642  0.5209 -1.1905
 7338TIP3   OH246208   4.726   1.331  10.861  0.5603 -0.5706 -0.0795
 7338TIP3    H146209   4.700   1.345  10.952 -0.3584 -0.4235 -0.3573
 7338TIP3    H246210   4.730   1.420  10.824 -1.8579 -0.7494 -0.9217
 7339TIP3   OH246211   2.996   0.888  10.888  0.1405  0.3370  0.4614
 7339TIP3    H146212   2.977   0.905  10.796 -0.3188 -0.2566  0.4487
 7339TIP3    H246213   3.075   0.834  10.886  1.4643  2.1761  0.4941
 7340TIP3   OH246214   6.729   4.780  11.224  0.1292  0.2135  0.3139
 7340TIP3    H146215   6.759   4.715  11.288  1.1478  0.5821  0.2407
 7340TIP3    H246216   6.675   4.731  11.163  0.6346 -0.5026  0.4285
 7341TIP3   OH246217   2.066   8.175  11.534  0.5350 -0.6430  0.7707
 7341TIP3    H146218   1.987   8.156  11.585 -1.4228 -0.6710 -2.0773
 7341TIP3    H246219   2.069   8.270  11.529 -2.3180 -0.5409 -3.1575
 7342TIP3   OH246220   7.875   4.147  11.867 -0.5407 -0.1847  0.2668
 7342TIP3    H146221   7.964   4.157  11.901 -0.3199 -2.1806  0.3939
 7342TIP3    H246222   7.878   4.187  11.780  0.5104 -0.3206  0.2297
 7343TIP3   OH246223   5.259   1.788  12.282 -0.9111 -0.2840  0.2009
 7343TIP3    H146224   5.262   1.794  12.377  1.3259 -1.0366  0.2331
 7343TIP3    H246225   5.207   1.863  12.254 -0.2546  0.8534  1.9434
 7344TIP3   OH246226   7.568   5.953  10.975  0.3426  0.5361 -1.0510
 7344TIP3    H146227   7.654   5.978  11.008 -0.5083  0.7738  1.1988
 7344TIP3    H246228   7.515   6.032  10.985 -0.2815  0.2330 -1.8785
 7345TIP3   OH246229   3.340   0.847  12.522  0.3083  0.3452 -0.0195
 7345TIP3    H146230   3.296   0.819  12.441 -0.4905  0.8160  0.2415
 7345TIP3    H246231   3.429   0.868  12.494 -0.3380  1.8785 -1.0835
 7346TIP3   OH246232   4.958   0.073  11.514 -0.0660 -0.5712  0.0770
 7346TIP3    H146233   4.962  -0.012  11.470 -2.9500 -0.5401 -0.3860
 7346TIP3    H246234   4.889   0.063  11.580 -0.2422  1.3142  0.2316
 7347TIP3   OH246235   0.228   6.195  10.705  0.1269  0.7563 -0.3096
 7347TIP3    H146236   0.185   6.111  10.719  0.5878  0.2920 -1.4888
 7347TIP3    H246237   0.262   6.220  10.791 -0.9560  0.2844  0.2739
 7348TIP3   OH246238   2.541   7.960  10.610 -0.1040  0.8586  0.3583
 7348TIP3    H146239   2.516   7.895  10.545 -2.6016  0.9766  1.0993
 7348TIP3    H246240   2.623   7.998  10.576  1.0447 -2.0689 -0.4572
 7349TIP3   OH246241   2.441   6.315  12.151 -0.7564 -0.2964  0.0064
 7349TIP3    H146242   2.349   6.339  12.145 -0.7575 -0.3110 -0.0383
 7349TIP3    H246243   2.453   6.249  12.083 -0.7031 -0.2623 -0.0179
 7350TIP3   OH246244   1.438   8.386  11.349  0.5147  0.5625  0.0806
 7350TIP3    H146245   1.503   8.405  11.282  1.1329  1.8412  1.0264
 7350TIP3    H246246   1.440   8.461  11.408 -0.7105 -0.0853  1.0029
 7351TIP3   OH246247   3.199   1.827  12.913 -0.0735 -0.0743  0.0513
 7351TIP3    H146248   3.185   1.823  12.818 -0.4227 -0.3118  0.1104
 7351TIP3    H246249   3.294   1.825  12.924 -0.0485 -1.0005 -0.2567
 7352TIP3   OH246250   8.130   0.842  10.838  0.2953  0.4754 -0.4032
 7352TIP3    H146251   8.055   0.895  10.865  0.5463  0.3723  0.5297
 7352TIP3    H246252   8.204   0.880  10.885  1.0137  1.1596 -2.0057
 7353TIP3   OH246253   7.916   1.946  12.116  0.1481 -0.3816  0.3506
 7353TIP3    H146254   7.843   1.952  12.177  0.2441  1.8435  0.3371
 7353TIP3    H246255   7.993   1.969  12.168  0.6629 -1.3932  0.0582
 7354TIP3   OH246256   5.646   1.465  12.154  0.2841 -0.1501  0.6134
 7354TIP3    H146257   5.612   1.453  12.242 -0.7297 -2.7595 -0.0437
 7354TIP3    H246258   5.740   1.478  12.166  0.2210 -0.8285  2.0779
 7355TIP3   OH246259   2.211   7.562  10.414 -0.3982 -0.0657 -0.6086
 7355TIP3    H146260   2.132   7.592  10.458 -1.6292 -1.5783 -1.6503
 7355TIP3    H246261   2.218   7.617  10.336  0.3802  0.9842  0.1909
 7356TIP3   OH246262   5.587   4.318  10.517 -0.3886 -0.5953  0.1446
 7356TIP3    H146263   5.496   4.289  10.507 -0.7592 -0.3746  2.2373
 7356TIP3    H246264   5.580   4.399  10.568  0.8392  1.2532 -2.4246
 7357TIP3   OH246265   5.735   3.144  10.848 -0.0653  0.5228  0.1885
 7357TIP3    H146266   5.727   3.192  10.931  1.0405  1.4516 -0.2041
 7357TIP3    H246267   5.767   3.210  10.786 -0.8423 -0.1648 -0.9780
 7358TIP3   OH246268   1.231   1.690  11.523 -0.2642  0.4563  0.0561
 7358TIP3    H146269   1.229   1.637  11.444  0.2196 -0.4804  0.6500
 7358TIP3    H246270   1.215   1.780  11.493  1.8813  0.4196 -1.3475
 7359TIP3   OH246271   5.116   8.417  11.877 -0.2536  0.2261 -0.4872
 7359TIP3    H146272   5.154   8.440  11.792 -0.4496  0.0119 -0.6329
 7359TIP3    H246273   5.122   8.498  11.928 -2.2961  1.0774 -1.4863
 7360TIP3   OH246274   3.577   3.099  12.596  0.6601  0.1187  0.1028
 7360TIP3    H146275   3.577   3.082  12.502 -1.6058  2.1088 -0.3689
 7360TIP3    H246276   3.550   3.017  12.635  0.6531 -0.4592 -1.0596
 7361TIP3   OH246277   8.044   0.067  11.836  0.2937 -0.2818 -0.0495
 7361TIP3    H146278   7.978   0.086  11.770  1.2474  0.0355 -0.9485
 7361TIP3    H246279   7.995   0.038  11.912 -0.8750  0.0080 -0.6717
 7362TIP3   OH246280   5.874   8.338  11.852 -0.3136 -0.6324 -0.1690
 7362TIP3    H146281   5.791   8.386  11.857 -0.2158 -0.5346  0.9773
 7362TIP3    H246282   5.933   8.398  11.806 -0.8848 -0.7334 -1.0595
 7363TIP3   OH246283   5.983   3.811  11.956 -0.4431  0.1585 -0.4805
 7363TIP3    H146284   6.038   3.889  11.963 -0.9976  0.4827  0.5866
 7363TIP3    H246285   6.018   3.751  12.022 -0.2752 -0.3344 -1.0152
 7364TIP3   OH246286   4.608   6.973  11.796 -0.3517 -0.2713  0.2058
 7364TIP3    H146287   4.688   6.920  11.800 -0.8657 -1.3238 -1.9089
 7364TIP3    H246288   4.639   7.064  11.794  0.6223 -0.5116  2.2327
 7365TIP3   OH246289   3.769   7.864  11.788  0.5530  0.4544  0.5397
 7365TIP3    H146290   3.810   7.777  11.796  0.1922  0.2986  0.7404
 7365TIP3    H246291   3.824   7.911  11.725  0.7696  0.0891  0.4520
 7366TIP3   OH246292   3.573   7.780  10.829  0.4174 -0.1931 -0.2466
 7366TIP3    H146293   3.623   7.727  10.891  0.3712  1.9282  1.7347
 7366TIP3    H246294   3.484   7.782  10.865  0.2894  0.7542 -0.5720
 7367TIP3   OH246295   5.286   2.372  10.089 -0.1261 -0.2070 -0.2848
 7367TIP3    H146296   5.342   2.433  10.041  0.5657 -0.8933 -0.3579
 7367TIP3    H246297   5.234   2.429  10.147 -0.0011  0.5099 -0.8573
 7368TIP3   OH246298   8.221   0.505  11.583  0.5871  0.2060 -0.0202
 7368TIP3    H146299   8.233   0.578  11.522 -0.1040  0.4551  0.1350
 7368TIP3    H246300   8.309   0.468  11.593  1.2175  1.8762  1.0112
 7369TIP3   OH246301   2.803   5.692  12.153  0.1950  0.2510 -0.0220
 7369TIP3    H146302   2.713   5.715  12.131 -0.2055 -1.2785 -0.1118
 7369TIP3    H246303   2.844   5.669  12.070  0.5961  0.6499  0.0569
 7370TIP3   OH246304   4.599   3.814  11.671  0.4529  0.6941 -0.2929
 7370TIP3    H146305   4.520   3.844  11.626 -1.0653 -1.4817  0.7357
 7370TIP3    H246306   4.649   3.768  11.604  0.7734  1.8991 -0.9040
 7371TIP3   OH246307   1.943   3.016  10.474  0.6694  0.0000  0.2040
 7371TIP3    H146308   1.917   2.924  10.477 -0.8098  0.3946  0.1930
 7371TIP3    H246309   1.902   3.050  10.394  0.1038  0.9716  0.8879
 7372TIP3   OH246310   7.990   2.265  10.706 -0.1830 -0.4333  0.0563
 7372TIP3    H146311   8.006   2.357  10.682 -2.5620  0.0627  0.1212
 7372TIP3    H246312   8.077   2.226  10.708  0.8173  1.5172 -1.2053
 7373TIP3   OH246313   6.274   0.479  12.417  0.0380  0.0214 -0.3429
 7373TIP3    H146314   6.318   0.407  12.461 -0.6395 -1.3551 -1.8236
 7373TIP3    H246315   6.215   0.437  12.354 -0.9627  1.8498 -0.7061
 7374TIP3   OH246316   0.599   1.953  10.581 -0.6559 -0.1558 -0.3341
 7374TIP3    H146317   0.545   2.033  10.584 -2.3805 -1.2977  1.6930
 7374TIP3    H246318   0.546   1.891  10.532 -0.4918 -0.8132  0.3102
 7375TIP3   OH246319   2.633   6.680  11.687 -0.2814 -0.3395  0.7160
 7375TIP3    H146320   2.619   6.736  11.611 -1.9247 -1.0221  0.4786
 7375TIP3    H246321   2.697   6.615  11.658  0.0745  0.1728  0.3413
 7376TIP3   OH246322   6.651   5.784  11.579 -0.0591 -0.2735 -0.0234
 7376TIP3    H146323   6.665   5.712  11.640 -2.0620 -0.3440  0.4104
 7376TIP3    H246324   6.587   5.840  11.622  0.7078  1.2669 -0.7962
 7377TIP3   OH246325   4.185   5.645  11.412 -0.2550 -0.2973  0.4479
 7377TIP3    H146326   4.120   5.712  11.433 -0.0239  0.0234  0.1551
 7377TIP3    H246327   4.139   5.562  11.424 -1.0622 -0.0665 -0.8300
 7378TIP3   OH246328   6.594   4.601  11.036  0.1700 -0.2937  0.2506
 7378TIP3    H146329   6.501   4.577  11.031  0.4964 -2.1075  1.8785
 7378TIP3    H246330   6.639   4.532  10.988  0.7240  0.4171 -0.2712
 7379TIP3   OH246331   1.916   1.289  10.844 -0.3643  0.1176  0.7024
 7379TIP3    H146332   1.904   1.215  10.784  0.5605 -0.7865  1.6186
 7379TIP3    H246333   1.931   1.364  10.786 -0.8595 -0.4737 -0.2217
 7380TIP3   OH246334   3.485   2.673  11.624  0.1353 -0.7318  0.4157
 7380TIP3    H146335   3.521   2.670  11.713 -0.3177 -1.9432  0.5804
 7380TIP3    H246336   3.560   2.690  11.568  0.1922  1.8442  1.1341
 7381TIP3   OH246337   0.787   7.961  12.446  0.6219 -0.0633 -0.0485
 7381TIP3    H146338   0.745   8.027  12.502  2.1816  0.5025  0.5284
 7381TIP3    H246339   0.797   7.885  12.502  0.1686 -0.2813 -0.2590
 7382TIP3   OH246340   6.907   2.055  12.677  0.5128 -0.2760  1.0260
 7382TIP3    H146341   6.848   2.009  12.617  1.1422  1.4558 -1.0613
 7382TIP3    H246342   6.956   1.986  12.721  0.2464 -1.6441 -0.7174
 7383TIP3   OH246343   1.636   4.168  11.713 -0.0774 -0.0329  0.2923
 7383TIP3    H146344   1.542   4.162  11.694  0.0300  0.2056 -0.3330
 7383TIP3    H246345   1.642   4.150  11.807 -0.6589 -0.9414  0.1746
 7384TIP3   OH246346   6.702   0.104  12.151 -0.3434 -0.1075 -0.7261
 7384TIP3    H146347   6.672   0.101  12.242  2.0580 -0.7063  0.1133
 7384TIP3    H246348   6.662   0.027  12.111 -2.3266  0.7613 -0.5301
 7385TIP3   OH246349   3.638   0.664  10.812  0.2250 -0.5958  0.1646
 7385TIP3    H146350   3.697   0.591  10.832  0.9331 -0.0349  0.1773
 7385TIP3    H246351   3.560   0.623  10.775  1.6143 -1.2544 -2.2595
 7386TIP3   OH246352   0.360   0.547  12.135 -0.1249 -0.4098  0.2656
 7386TIP3    H146353   0.401   0.547  12.048 -0.1153  0.6826  0.2597
 7386TIP3    H246354   0.415   0.606  12.187 -0.4020 -0.6969  0.8939
 7387TIP3   OH246355   0.905   2.556  10.989  0.3107 -0.1745 -0.0416
 7387TIP3    H146356   0.856   2.630  11.027 -1.2113  0.3081 -2.6973
 7387TIP3    H246357   0.837   2.494  10.962  1.2656 -0.5434 -1.7460
 7388TIP3   OH246358   0.018   1.444  12.469  0.0613 -0.6327  0.0772
 7388TIP3    H146359  -0.023   1.363  12.438  0.5277 -0.7333 -0.2866
 7388TIP3    H246360   0.111   1.431  12.453  0.1670 -0.1276  0.2697
 7389TIP3   OH246361   1.562   8.019  10.708 -0.2258  0.0482  0.1719
 7389TIP3    H146362   1.628   8.070  10.755 -1.5853  1.4902  0.5918
 7389TIP3    H246363   1.504   7.986  10.776 -0.0552 -1.0808 -0.2064
 7390TIP3   OH246364   3.742   2.451  11.686  0.5034  0.2672  0.8959
 7390TIP3    H146365   3.799   2.440  11.763  1.1774  1.2698  0.5608
 7390TIP3    H246366   3.692   2.531  11.705 -0.1939 -0.1413  0.8108
 7391TIP3   OH246367   1.620   8.265  11.168 -0.2108  0.3515 -0.4089
 7391TIP3    H146368   1.698   8.231  11.210 -0.1539  1.3501  0.3410
 7391TIP3    H246369   1.652   8.337  11.113 -0.2327 -1.1845 -2.5110
 7392TIP3   OH246370   4.527   8.037  12.055 -0.1030  0.1367 -0.0483
 7392TIP3    H146371   4.520   7.987  11.974  1.8685 -1.2049  0.5229
 7392TIP3    H246372   4.532   7.970  12.124 -0.2878  1.2000  1.0396
 7393TIP3   OH246373   7.509   4.452  11.233 -0.4949 -0.2783  0.0316
 7393TIP3    H146374   7.432   4.508  11.225  1.0146  1.6863 -1.6327
 7393TIP3    H246375   7.562   4.494  11.301 -1.0574 -1.9483  1.6044
 7394TIP3   OH246376   5.628   2.716  11.865 -0.0293  0.6231 -0.3547
 7394TIP3    H146377   5.681   2.736  11.788  0.1028  0.0729 -0.4102
 7394TIP3    H246378   5.634   2.621  11.874 -1.7980  0.4042 -0.9631
 7395TIP3   OH246379   8.288   4.054  11.703  0.3079  0.2946  0.0106
 7395TIP3    H146380   8.288   3.964  11.671  0.3125  0.2739  0.0686
 7395TIP3    H246381   8.233   4.102  11.641 -0.7077  0.0117  0.6778
 7396TIP3   OH246382   7.957   2.714  12.468  0.3964  0.3888  0.4495
 7396TIP3    H146383   7.877   2.752  12.431 -0.9843 -3.1028 -0.6405
 7396TIP3    H246384   7.941   2.712  12.562 -1.0292 -0.4911  0.2378
 7397TIP3   OH246385   8.311   0.420  10.984  0.2347  0.2790 -0.5306
 7397TIP3    H146386   8.384   0.357  10.983 -0.2609 -0.3350  0.2393
 7397TIP3    H246387   8.257   0.395  10.909  0.4687  0.3110 -0.7105
 7398TIP3   OH246388   0.288   6.969  12.100  0.3060 -0.6367  0.6121
 7398TIP3    H146389   0.347   6.897  12.078  0.3686 -0.0962 -1.1582
 7398TIP3    H246390   0.326   7.045  12.055 -0.6767  0.1403  1.0635
 7399TIP3   OH246391   4.861   6.658  11.195 -0.0820  0.1632 -0.2859
 7399TIP3    H146392   4.927   6.651  11.264 -1.1572  0.4993  0.8154
 7399TIP3    H246393   4.886   6.590  11.132  1.5613  0.5739 -0.1400
 7400TIP3   OH246394   2.835   1.820  11.995 -0.5104  0.5540 -0.2066
 7400TIP3    H146395   2.813   1.903  11.954 -1.5776  0.5679  0.3616
 7400TIP3    H246396   2.751   1.782  12.021 -0.0176 -0.5345 -0.1257
 7401TIP3   OH246397   1.694   2.716  12.316  0.3523 -0.2985  0.2645
 7401TIP3    H146398   1.711   2.782  12.383  0.4134 -0.2998  0.2507
 7401TIP3    H246399   1.598   2.705  12.317  0.3681 -0.4323  0.4787
 7402TIP3   OH246400   1.687   4.237  12.606 -1.0600  0.3317  0.1990
 7402TIP3    H146401   1.772   4.210  12.571 -1.5467 -0.5724 -0.3364
 7402TIP3    H246402   1.667   4.319  12.561 -0.1438  0.9542  0.8839
 7403TIP3   OH246403   2.956   3.151  11.605 -0.3275  0.6325 -0.9172
 7403TIP3    H146404   2.908   3.233  11.611  0.4505  1.1035 -1.0684
 7403TIP3    H246405   2.953   3.115  11.694 -0.1876  1.0964 -0.7232
 7404TIP3   OH246406   5.175   2.896  11.224  0.4625 -0.0491  0.2555
 7404TIP3    H146407   5.124   2.951  11.283 -0.5307  0.0170 -0.6385
 7404TIP3    H246408   5.266   2.913  11.248  0.1148  0.8013  1.0276
 7405TIP3   OH246409   0.655   6.986  12.263  0.0230  0.2265 -0.0870
 7405TIP3    H146410   0.635   7.067  12.308 -1.0458  0.4572 -0.9384
 7405TIP3    H246411   0.597   6.985  12.187 -1.0998 -2.0376  0.6854
 7406TIP3   OH246412   2.165   7.141  11.280  0.3103 -0.1739  0.0805
 7406TIP3    H146413   2.121   7.164  11.361 -0.5895 -0.3814 -0.3410
 7406TIP3    H246414   2.258   7.159  11.297  0.0223  0.6541  0.8379
 7407TIP3   OH246415   3.262   0.448  11.912 -0.2446 -0.0356 -0.2681
 7407TIP3    H146416   3.317   0.496  11.850  0.3293  0.1878  0.3886
 7407TIP3    H246417   3.176   0.444  11.870 -0.7518  2.8473  0.2364
 7408TIP3   OH246418   5.906   0.901  12.077 -0.5482  0.4375  0.4258
 7408TIP3    H146419   5.853   0.829  12.040  0.9705 -1.3046  1.4819
 7408TIP3    H246420   5.995   0.867  12.080 -0.0125  1.8011  2.3844
 7409TIP3   OH246421   7.162   6.565  11.061 -0.4034 -0.2774 -0.1915
 7409TIP3    H146422   7.171   6.476  11.095 -0.7105  0.2021  1.2510
 7409TIP3    H246423   7.250   6.602  11.067 -0.2743 -0.4764 -0.7993
 7410TIP3   OH246424   7.087   5.810  10.825  0.8345  0.0978  0.2232
 7410TIP3    H146425   7.077   5.757  10.904  0.5411 -0.5260 -0.2236
 7410TIP3    H246426   7.182   5.812  10.809  0.8562 -0.1670  0.3206
 7411TIP3   OH246427   0.890   8.365  11.770 -1.1516 -0.3158 -0.7923
 7411TIP3    H146428   0.916   8.374  11.679 -0.7128 -0.5406 -0.6942
 7411TIP3    H246429   0.796   8.348  11.767 -1.4526  1.2809 -1.1134
 7412TIP3   OH246430   1.372   3.290  10.332  0.2515  0.1042 -0.7233
 7412TIP3    H146431   1.300   3.312  10.390 -0.7254 -0.6990 -1.5873
 7412TIP3    H246432   1.376   3.194  10.333  0.8396  0.1124 -1.2445
 7413TIP3   OH246433   5.925   1.297  11.263 -0.2556  1.0723 -0.2598
 7413TIP3    H146434   5.938   1.215  11.310 -0.6087  1.0101 -0.2668
 7413TIP3    H246435   5.962   1.282  11.176 -0.7253  0.7676 -0.4102
 7414TIP3   OH246436   5.024   6.079  12.663 -0.2476  0.0757 -0.1920
 7414TIP3    H146437   5.115   6.051  12.671 -0.2719  0.4626  2.7873
 7414TIP3    H246438   5.027   6.174  12.672 -0.9449  0.0564  0.3985
 7415TIP3   OH246439   7.750   6.252  10.750  0.0759  0.3862 -0.3806
 7415TIP3    H146440   7.666   6.267  10.707 -0.3655  1.6086  0.8218
 7415TIP3    H246441   7.800   6.200  10.687 -2.1697 -1.9279 -0.4422
 7416TIP3   OH246442   8.291   1.988  12.563 -0.1408  0.9059 -0.1441
 7416TIP3    H146443   8.385   2.000  12.576  0.2129 -1.2948 -0.2924
 7416TIP3    H246444   8.259   2.075  12.539  2.1147  1.4071 -1.6194
 7417TIP3   OH246445   5.921   2.002  11.823 -0.1740  0.1719  0.4091
 7417TIP3    H146446   5.833   1.963  11.829 -0.3687  0.8415  2.9103
 7417TIP3    H246447   5.951   1.980  11.735 -2.0828 -1.7184  0.1583
 7418TIP3   OH246448   3.450   1.038  11.774  0.7381  0.4457 -0.2461
 7418TIP3    H146449   3.471   0.994  11.857  2.0198  0.3291 -0.6189
 7418TIP3    H246450   3.373   0.992  11.741  0.0438  0.6624  1.0010
 7419TIP3   OH246451   6.649   8.242  10.634  0.2501 -0.6616  0.5568
 7419TIP3    H146452   6.590   8.177  10.595  0.6225  0.0639 -1.3231
 7419TIP3    H246453   6.597   8.281  10.705 -0.2933 -2.3399  1.1583
 7420TIP3   OH246454   4.135   7.057  11.505 -0.1137  0.2665  0.4951
 7420TIP3    H146455   4.127   6.964  11.484 -0.7666  0.4929 -0.3648
 7420TIP3    H246456   4.221   7.066  11.545  0.0436 -0.6715  0.3904
 7421TIP3   OH246457   0.163   6.301  11.897  0.1263 -0.4133  0.4929
 7421TIP3    H146458   0.146   6.298  11.803  2.2787  1.3742 -0.0507
 7421TIP3    H246459   0.243   6.249  11.908 -0.9204 -1.8514  1.6098
 7422TIP3   OH246460   4.468   6.545  12.463  0.0208  0.4399  0.1950
 7422TIP3    H146461   4.461   6.602  12.540 -0.8354  0.3597  0.1876
 7422TIP3    H246462   4.483   6.458  12.499 -0.8415  0.3286  0.2951
 7423TIP3   OH246463   3.545   0.436  11.125 -0.1748  0.0105 -0.1381
 7423TIP3    H146464   3.630   0.395  11.140  0.5662  1.3681 -0.4237
 7423TIP3    H246465   3.487   0.398  11.191  0.5791 -1.1177 -0.0991
 7424TIP3   OH246466   2.470   6.897  12.116  0.0144  0.0699  0.0530
 7424TIP3    H146467   2.478   6.817  12.168 -0.2914  0.2160  0.3290
 7424TIP3    H246468   2.530   6.884  12.042  0.5615 -0.0760  0.5171
 7425TIP3   OH246469   7.562   4.566  11.709 -0.1329 -0.1755 -0.3473
 7425TIP3    H146470   7.622   4.602  11.773 -0.8575 -0.6946  0.6541
 7425TIP3    H246471   7.478   4.560  11.755 -0.6655 -0.5868 -1.3312
 7426TIP3   OH246472   2.442   7.303  11.866 -0.1584 -0.0832 -0.2617
 7426TIP3    H146473   2.438   7.233  11.931 -2.7153 -1.0716 -1.3473
 7426TIP3    H246474   2.440   7.384  11.918 -3.0011 -0.8270  0.9783
 7427TIP3   OH246475   3.710   8.287  11.075 -0.0631 -0.4052  0.0103
 7427TIP3    H146476   3.665   8.342  11.140 -1.2472 -1.0935 -0.1930
 7427TIP3    H246477   3.803   8.301  11.092 -0.3346 -0.7753  2.0388
 7428TIP3   OH246478   6.647   7.560  10.987  0.0313  0.0813  0.3218
 7428TIP3    H146479   6.690   7.546  10.903  0.4831  0.8508  0.4154
 7428TIP3    H246480   6.612   7.474  11.012  0.3317 -0.2512 -0.4070
 7429TIP3   OH246481   5.608   8.360  12.102  0.1908  0.0098 -0.3963
 7429TIP3    H146482   5.620   8.288  12.164  1.3835  0.8793  0.4365
 7429TIP3    H246483   5.534   8.333  12.047  0.0457 -1.4342  0.4612
 7430TIP3   OH246484   2.907   8.427  10.560  0.3047  0.6478  0.0899
 7430TIP3    H146485   2.821   8.429  10.602 -0.6890  0.4843 -1.8436
 7430TIP3    H246486   2.963   8.382  10.622 -1.3578 -0.5536  0.7836
 7431TIP3   OH246487   5.389   7.108  11.473  0.2475  0.3998  0.0070
 7431TIP3    H146488   5.400   7.020  11.438 -0.8528 -0.0729  0.7792
 7431TIP3    H246489   5.471   7.126  11.519  0.7365  0.0531 -0.7230
 7432TIP3   OH246490   6.632   2.032  11.837  0.6243  0.5653  0.2376
 7432TIP3    H146491   6.660   2.108  11.785  1.0930  0.2124 -0.0267
 7432TIP3    H246492   6.697   1.965  11.820  1.0590  0.5870  1.6437
 7433TIP3   OH246493   8.149   6.365  11.345  0.3462  0.6624 -0.7248
 7433TIP3    H146494   8.192   6.300  11.400 -1.9533  0.6980  1.2716
 7433TIP3    H246495   8.131   6.319  11.263 -0.1910 -0.8639  0.2225
 7434TIP3   OH246496   5.909   8.138  12.503  0.5989 -0.0518 -0.1832
 7434TIP3    H146497   5.982   8.149  12.563  0.2084  0.8943  0.1377
 7434TIP3    H246498   5.920   8.050  12.467 -0.4443 -1.6056  3.0040
 7435TIP3   OH246499   7.057   7.259  12.804  0.5231 -0.4909 -0.2956
 7435TIP3    H146500   7.069   7.310  12.724  1.7730 -0.4518 -0.0955
 7435TIP3    H246501   7.041   7.170  12.774  1.0833 -0.4938 -0.5941
 7436TIP3   OH246502   5.136   3.914  12.526 -0.5449  0.4270  0.4053
 7436TIP3    H146503   5.134   3.819  12.521 -1.6208  0.5139 -1.6419
 7436TIP3    H246504   5.051   3.939  12.562 -1.4804  0.6859 -1.8584
 7437TIP3   OH246505   7.634   7.225  10.608  0.4567 -0.2113 -0.1480
 7437TIP3    H146506   7.710   7.219  10.665  1.3208  0.4838 -1.1791
 7437TIP3    H246507   7.622   7.137  10.574 -0.8736 -0.9527  2.0454
 7438TIP3   OH246508   6.400   1.544  11.652  0.4053 -0.3934  0.2350
 7438TIP3    H146509   6.324   1.578  11.700  0.0890  1.5831 -1.5118
 7438TIP3    H246510   6.371   1.458  11.620 -1.0748  0.2703 -0.2912
 7439TIP3   OH246511   6.227   3.822  12.232 -0.0492 -0.6029 -0.6103
 7439TIP3    H146512   6.144   3.789  12.199 -0.6767  0.0754  0.2378
 7439TIP3    H246513   6.279   3.744  12.249 -1.3118 -1.1806  0.8688
 7440TIP3   OH246514   1.365   7.097  10.794 -0.4739  0.3323 -0.8802
 7440TIP3    H146515   1.437   7.152  10.822  1.0927 -1.1735 -1.7630
 7440TIP3    H246516   1.342   7.130  10.707  1.7409 -1.4586 -2.2505
 7441TIP3   OH246517   0.068   1.162  11.608 -0.5972 -0.1249  0.3155
 7441TIP3    H146518   0.156   1.197  11.609 -0.2937 -0.5206 -2.7365
 7441TIP3    H246519   0.079   1.067  11.612 -1.1789 -0.1536  3.9364
 7442TIP3   OH246520   4.408   3.482  12.455 -0.5358 -0.6183  0.2546
 7442TIP3    H146521   4.426   3.486  12.549 -1.2509 -0.4421  0.3865
 7442TIP3    H246522   4.475   3.423  12.420  1.1237  0.9934  0.5259
 7443TIP3   OH246523   7.642   4.544  11.455  0.0633  0.4236 -0.1916
 7443TIP3    H146524   7.609   4.545  11.545 -0.6771 -0.9170 -0.4256
 7443TIP3    H246525   7.729   4.585  11.461  0.7720 -1.1720  1.4466
 7444TIP3   OH246526   7.336   1.634  10.982 -0.2752 -0.2670  0.0508
 7444TIP3    H146527   7.399   1.706  10.988  0.1671 -0.6804  0.4924
 7444TIP3    H246528   7.339   1.592  11.068 -0.6947 -0.6792 -0.1296
 7445TIP3   OH246529   0.533   4.564  11.461  0.6882 -0.0956 -0.0038
 7445TIP3    H146530   0.576   4.480  11.447  1.0968  0.1741 -0.3841
 7445TIP3    H246531   0.523   4.601  11.373 -0.9729 -0.4676 -0.0008
 7446TIP3   OH246532   5.715   2.722  12.152 -0.8128 -0.5191 -0.0632
 7446TIP3    H146533   5.740   2.706  12.061  1.2052 -0.9769  0.5420
 7446TIP3    H246534   5.643   2.660  12.168 -0.9037 -0.7270 -1.1967
 7447TIP3   OH246535   7.674   8.138  11.208 -0.0044  0.0635 -0.1267
 7447TIP3    H146536   7.623   8.064  11.242  1.0947 -1.1628 -1.0531
 7447TIP3    H246537   7.615   8.182  11.147 -0.4877 -0.3696  0.0231
 7448TIP3   OH246538   2.347   7.013  12.511  0.4226  0.1758  0.0716
 7448TIP3    H146539   2.412   7.041  12.446  0.5656 -0.4711 -0.0747
 7448TIP3    H246540   2.393   7.019  12.595  1.4580 -2.3824 -0.2173
 7449TIP3   OH246541   5.314   1.849  11.837 -0.0813  0.1694 -0.0563
 7449TIP3    H146542   5.299   1.907  11.762 -0.9871  0.3485  0.2560
 7449TIP3    H246543   5.253   1.880  11.904 -0.3372 -0.9308  0.2384
 7450TIP3   OH246544   0.036   2.622  11.775 -0.3947 -0.1852  0.1414
 7450TIP3    H146545   0.012   2.547  11.721  2.1117 -0.1205 -1.2106
 7450TIP3    H246546   0.098   2.587  11.838  0.1555  0.5715  0.0341
 7451TIP3   OH246547   7.668   5.793  11.334 -0.0547  0.5603 -0.0968
 7451TIP3    H146548   7.653   5.877  11.378 -0.0734 -1.0712  3.3219
 7451TIP3    H246549   7.581   5.759  11.316 -0.0593  1.6519 -2.5316
 7452TIP3   OH246550   2.891   0.632  11.646 -0.2122  0.4713  0.4415
 7452TIP3    H146551   2.921   0.683  11.570  1.2788 -0.0119  0.6783
 7452TIP3    H246552   2.885   0.696  11.717 -0.5781  0.7293  0.1825
 7453TIP3   OH246553   4.525   2.872  11.169  0.7610 -0.0040  0.3836
 7453TIP3    H146554   4.477   2.945  11.128  0.6937 -0.9569 -1.3428
 7453TIP3    H246555   4.474   2.851  11.247 -0.1476  0.7276  0.0112
 7454TIP3   OH246556   5.089   3.415  12.342  0.4683 -0.3347 -0.7445
 7454TIP3    H146557   5.177   3.422  12.379  0.2085 -0.2620 -0.1279
 7454TIP3    H246558   5.053   3.336  12.380  0.8038 -1.2367 -2.1880
 7455TIP3   OH246559   5.702   2.292  10.409  0.6617 -0.0459 -0.0989
 7455TIP3    H146560   5.654   2.221  10.367 -0.1074 -0.5990  1.6198
 7455TIP3    H246561   5.751   2.249  10.480  0.9108  1.0044  0.3855
 7456TIP3   OH246562   6.404   4.384  10.724  0.4531  0.2195 -0.3835
 7456TIP3    H146563   6.400   4.309  10.664 -1.1829  0.1985 -0.3032
 7456TIP3    H246564   6.476   4.437  10.691  1.3786 -1.1716 -0.6980
 7457TIP3   OH246565   5.773   8.059  11.444 -0.0063 -0.3104 -0.2802
 7457TIP3    H146566   5.745   8.049  11.353  0.5226 -0.7766 -0.4009
 7457TIP3    H246567   5.792   8.152  11.454 -1.8251  0.0810 -0.1081
 7458TIP3   OH246568   0.936   3.572  11.051  0.1900  0.2560 -0.4804
 7458TIP3    H146569   0.927   3.583  10.956  0.0207  0.4786 -0.4363
 7458TIP3    H246570   0.977   3.485  11.060  1.3553  0.7531 -0.8088
 7459TIP3   OH246571   1.344   3.124  11.060 -0.5331 -0.0364 -0.0052
 7459TIP3    H146572   1.261   3.143  11.016  0.0636  2.9517 -0.0117
 7459TIP3    H246573   1.392   3.071  10.997 -0.8554  1.6946 -1.8012
 7460TIP3   OH246574   2.366   1.796  11.644 -0.1152 -0.2833  0.1320
 7460TIP3    H146575   2.456   1.804  11.675  0.0843 -0.5779 -0.3456
 7460TIP3    H246576   2.315   1.773  11.721 -0.7491  5.0324  1.6846
 7461TIP3   OH246577   3.903   2.381  11.903 -0.6937  0.6787  0.0840
 7461TIP3    H146578   3.951   2.458  11.872  0.2331  0.0621 -0.0472
 7461TIP3    H246579   3.958   2.345  11.973 -0.7908 -0.2335 -0.2944
 7462TIP3   OH246580   5.895   7.649  12.659 -0.4584 -0.7147  0.2118
 7462TIP3    H146581   5.829   7.601  12.608 -1.0225 -0.2142  0.4684
 7462TIP3    H246582   5.916   7.725  12.605 -0.2429 -0.7605  0.2298
 7463TIP3   OH246583   4.618   5.064  10.800 -0.0479  0.8210  0.2299
 7463TIP3    H146584   4.682   5.129  10.827  0.1867  1.3317 -1.4415
 7463TIP3    H246585   4.548   5.115  10.759  0.8844  0.0031 -2.5905
 7464TIP3   OH246586   1.277   0.947  11.169  0.2267  0.0993  0.7776
 7464TIP3    H146587   1.326   1.014  11.121 -0.1300  0.1986  0.5437
 7464TIP3    H246588   1.214   0.996  11.221 -0.8503 -0.0896 -0.3100
 7465TIP3   OH246589   6.294   6.054  12.471 -0.2339 -0.4975 -0.2778
 7465TIP3    H146590   6.295   6.117  12.400 -0.2296  0.3718  0.4740
 7465TIP3    H246591   6.239   6.093  12.538 -0.1694 -1.2536  0.2417
 7466TIP3   OH246592   5.725   8.322  11.381 -0.1691 -0.0323 -0.0495
 7466TIP3    H146593   5.741   8.386  11.312  0.4628 -1.2441 -1.0587
 7466TIP3    H246594   5.632   8.299  11.372  0.0785 -0.7003 -0.9581
 7467TIP3   OH246595   3.738   5.621  11.399  0.0704  0.4574  0.2340
 7467TIP3    H146596   3.822   5.652  11.435  1.4310 -2.1466 -0.4516
 7467TIP3    H246597   3.716   5.544  11.452 -0.3388 -0.6290 -1.4441
 7468TIP3   OH246598   7.615   0.144  11.413 -0.4089 -0.3315  0.3261
 7468TIP3    H146599   7.627   0.056  11.451  0.0244 -0.8767 -1.0198
 7468TIP3    H246600   7.526   0.168  11.437 -0.6069 -1.2344  0.5498
 7469TIP3   OH246601   4.973   8.338  11.284 -0.2301 -0.5501 -0.1681
 7469TIP3    H146602   4.894   8.377  11.247 -0.4613 -0.1816  0.6970
 7469TIP3    H246603   4.955   8.244  11.285 -0.5589 -0.4899 -0.2175
 7470TIP3   OH246604   6.451   1.889  11.946 -0.1706  0.1782  0.1685
 7470TIP3    H146605   6.529   1.940  11.928 -0.0953 -0.3155 -0.9684
 7470TIP3    H246606   6.384   1.924  11.887 -0.5947  0.0933  0.5858
 7471TIP3   OH246607   7.002   1.754  11.921 -0.1405 -0.0255 -0.2095
 7471TIP3    H146608   7.026   1.662  11.930  0.6213 -0.0538 -2.1033
 7471TIP3    H246609   6.910   1.752  11.894 -0.8432 -0.0965  1.9788
 7472TIP3   OH246610   8.050   3.251  11.465  0.4084  0.7016 -0.2343
 7472TIP3    H146611   7.956   3.260  11.452  0.4669  0.8862 -0.5398
 7472TIP3    H246612   8.061   3.247  11.561 -0.0123 -0.5222 -0.2170
 7473TIP3   OH246613   1.018   3.277  12.106  0.2551 -0.0946 -0.1101
 7473TIP3    H146614   0.967   3.243  12.180 -0.6401  2.4273  0.5229
 7473TIP3    H246615   1.109   3.267  12.133  0.0173 -1.4609  0.2469
 7474TIP3   OH246616   1.796   4.699  10.906 -0.0853  0.8191 -0.8140
 7474TIP3    H146617   1.843   4.616  10.902 -0.9816  0.2833 -0.6665
 7474TIP3    H246618   1.726   4.683  10.970 -0.3906  1.6247 -0.9402
 7475TIP3   OH246619   0.834   7.746  12.656  0.1636 -0.2410  0.2173
 7475TIP3    H146620   0.756   7.740  12.712  0.8792  0.2615  1.3102
 7475TIP3    H246621   0.874   7.659  12.660  0.1512 -0.2381  0.3969
 7476TIP3   OH246622   0.567   0.260  11.519 -0.2165 -0.1448  0.1056
 7476TIP3    H146623   0.653   0.245  11.478 -0.3206 -3.1916  0.7625
 7476TIP3    H246624   0.563   0.354  11.532  2.5815  0.2117 -0.9041
 7477TIP3   OH246625   0.793   7.442  11.569  0.0467 -0.0556  0.6479
 7477TIP3    H146626   0.791   7.407  11.658 -2.2842 -0.8929  0.3463
 7477TIP3    H246627   0.790   7.365  11.512  1.2683  0.4776 -0.1777
 7478TIP3   OH246628   8.010   0.245  10.574 -0.0147 -0.0932 -0.6713
 7478TIP3    H146629   7.946   0.313  10.592  0.7438  1.1134 -2.2633
 7478TIP3    H246630   7.958   0.165  10.562 -1.0831  0.5686 -0.5396
 7479TIP3   OH246631   4.524   3.819  17.065 -0.3120 -0.2497  0.8492
 7479TIP3    H146632   4.463   3.893  17.073  1.6777  1.5264  0.3318
 7479TIP3    H246633   4.515   3.790  16.975  0.7529  1.1137  0.2710
 7480TIP3   OH246634   5.644   5.565  11.069 -0.0263  0.1709  0.0121
 7480TIP3    H146635   5.567   5.620  11.052 -1.3068 -1.0865  1.4596
 7480TIP3    H246636   5.694   5.569  10.987 -1.2801  1.5606 -0.7470
 7481TIP3   OH246637   1.264   3.400  11.893 -0.0567 -0.0207  0.0344
 7481TIP3    H146638   1.342   3.426  11.845 -0.6948  0.8390 -0.5818
 7481TIP3    H246639   1.290   3.402  11.985 -0.4668  4.8011  0.2952
 7482TIP3   OH246640   3.253   6.916  11.300 -0.4330 -0.6887  0.4034
 7482TIP3    H146641   3.204   6.840  11.331 -3.9920  1.8237  1.5284
 7482TIP3    H246642   3.282   6.960  11.379 -0.4168  0.3027 -0.1387
 7483TIP3   OH246643   4.372   4.293  12.336  0.3764 -0.2986 -1.0124
 7483TIP3    H146644   4.455   4.249  12.315  0.2260 -2.3802  2.1919
 7483TIP3    H246645   4.309   4.256  12.274  1.0760 -1.6947 -0.9345
 7484TIP3   OH246646   3.852   7.072  12.394 -0.1057  0.2257  0.4585
 7484TIP3    H146647   3.837   7.103  12.484 -1.3408  1.3119 -0.0942
 7484TIP3    H246648   3.883   7.149  12.347 -0.2904 -0.1301 -0.2478
 7485TIP3   OH246649   4.652   5.996  10.699 -0.0849 -0.2092  0.0057
 7485TIP3    H146650   4.692   6.060  10.640 -0.8484 -0.1035 -0.4143
 7485TIP3    H246651   4.713   5.923  10.701  0.2489  0.0555 -0.4272
 7486TIP3   OH246652   3.579   4.855  11.997 -0.4691 -0.3978 -0.0052
 7486TIP3    H146653   3.633   4.888  12.069 -1.0053  0.5282 -0.0131
 7486TIP3    H246654   3.489   4.866  12.029 -0.6875 -0.7406 -0.4965
 7487TIP3   OH246655   5.932   6.950  12.036 -0.6008  0.1972 -0.2338
 7487TIP3    H146656   5.912   7.019  11.973  1.3837  1.7904  0.7581
 7487TIP3    H246657   5.920   6.991  12.122  0.1471 -0.8409  0.3937
 7488TIP3   OH246658   3.758   0.760  12.403  0.4710 -0.2659  0.0849
 7488TIP3    H146659   3.711   0.815  12.466  2.0523  1.4484 -0.1192
 7488TIP3    H246660   3.774   0.678  12.450 -0.2655  0.1570  1.1310
 7489TIP3   OH246661   4.055   3.319  11.176 -0.4880  0.5539  0.1628
 7489TIP3    H146662   4.127   3.356  11.227  0.0036 -0.5847  0.3476
 7489TIP3    H246663   4.098   3.287  11.096 -1.1498  1.7683 -0.6979
 7490TIP3   OH246664   1.714   5.843  11.610 -0.5022  0.0518  0.7273
 7490TIP3    H146665   1.644   5.788  11.646 -0.1426 -0.7945  0.1675
 7490TIP3    H246666   1.763   5.785  11.553 -0.9562  1.2747 -1.0115
 7491TIP3   OH246667   2.763   4.684  11.905 -0.0023 -0.2758 -0.0611
 7491TIP3    H146668   2.852   4.662  11.880 -0.0301  0.2701 -0.6482
 7491TIP3    H246669   2.772   4.729  11.989 -0.0262 -3.4721  1.8297
 7492TIP3   OH246670   1.027   7.816  11.661 -0.2141  0.1941  0.4946
 7492TIP3    H146671   1.106   7.763  11.675 -0.5030 -0.4590 -0.2283
 7492TIP3    H246672   1.059   7.896  11.620  0.0722 -0.0987  0.1371
 7493TIP3   OH246673   5.037   7.162  12.191 -0.4484  0.0147 -0.5339
 7493TIP3    H146674   4.976   7.209  12.248 -1.9326 -1.8445 -0.4910
 7493TIP3    H246675   4.996   7.076  12.179  2.0570 -1.2184 -0.7270
 7494TIP3   OH246676   1.665   1.936  12.640  0.2291  0.3252 -0.6384
 7494TIP3    H146677   1.674   2.027  12.612 -1.8341  0.6185 -0.4917
 7494TIP3    H246678   1.574   1.914  12.621  0.1270 -1.0604  1.2180
 7495TIP3   OH246679   2.990   6.285  11.236  0.2413 -0.3880  0.7130
 7495TIP3    H146680   2.931   6.245  11.301 -1.3164  1.3168  0.4113
 7495TIP3    H246681   2.980   6.231  11.158  0.4384 -1.1304  1.1830
 7496TIP3   OH246682   7.497   4.202  11.383  0.6211 -0.3547  0.2828
 7496TIP3    H146683   7.508   4.294  11.357 -1.3481  0.2527  1.3602
 7496TIP3    H246684   7.491   4.204  11.478  0.9165 -1.6642  0.3480
 7497TIP3   OH246685   2.419   2.686  11.037  0.9380  0.1471 -0.5462
 7497TIP3    H146686   2.421   2.781  11.045  0.7966  0.3706 -2.6150
 7497TIP3    H246687   2.358   2.658  11.106  1.4248  1.4821  0.4692
 7498TIP3   OH246688   4.033   3.547  12.312 -0.4023  0.0914 -0.3737
 7498TIP3    H146689   4.085   3.481  12.266 -1.1183  0.2906 -1.5011
 7498TIP3    H246690   3.954   3.500  12.339 -1.4801  0.7155 -2.2447
 7499TIP3   OH246691   0.190   0.878  10.352  0.5380  0.3001 -0.5305
 7499TIP3    H146692   0.112   0.871  10.407  0.9257  0.9833  0.1197
 7499TIP3    H246693   0.156   0.883  10.262 -0.1240 -0.1179 -0.3101
 7500TIP3   OH246694   7.492   5.134  10.951 -0.1342 -0.0407  0.5035
 7500TIP3    H146695   7.512   5.184  11.029  1.1616  1.5705 -0.7892
 7500TIP3    H246696   7.401   5.107  10.962  0.3344 -0.8089  3.0182
 7501TIP3   OH246697   8.398   5.173  10.769 -0.3769 -0.3945 -0.0736
 7501TIP3    H146698   8.338   5.178  10.695  0.2638 -1.9951 -0.7591
 7501TIP3    H246699   8.394   5.081  10.796 -0.3039  0.0825  1.6412
 7502TIP3   OH246700   5.381   1.257  10.923 -0.8225 -0.1854  0.8384
 7502TIP3    H146701   5.366   1.258  10.828 -0.2767  0.7250  0.7532
 7502TIP3    H246702   5.439   1.331  10.939  0.2024 -1.1264  1.7072
 7503TIP3   OH246703   4.230   1.582  12.801 -0.9774 -0.1133 -0.6473
 7503TIP3    H146704   4.230   1.505  12.858  0.2556  0.4432  0.1574
 7503TIP3    H246705   4.287   1.559  12.728 -0.3396  0.1420 -0.2359
 7504TIP3   OH246706   6.478   0.426  11.358  0.4871 -0.2541 -0.1589
 7504TIP3    H146707   6.391   0.404  11.324  0.9230 -2.2190 -0.1099
 7504TIP3    H246708   6.539   0.382  11.299  1.3706 -0.5870  0.9597
 7505TIP3   OH246709   7.239   5.512  10.589  0.8881 -0.2136 -0.0888
 7505TIP3    H146710   7.144   5.522  10.596  0.9357  1.0419 -0.8377
 7505TIP3    H246711   7.270   5.506  10.680  0.0221 -1.7213  0.1382
 7506TIP3   OH246712   7.471   4.787  11.525  0.5360 -0.3374  0.3882
 7506TIP3    H146713   7.499   4.710  11.574  0.3976 -1.0432 -0.6319
 7506TIP3    H246714   7.397   4.757  11.472  2.1594 -0.2670 -2.0935
 7507TIP3   OH246715   3.774   1.406  12.419  0.1418  0.0601 -0.5642
 7507TIP3    H146716   3.699   1.408  12.360 -0.5618 -1.0452  0.2688
 7507TIP3    H246717   3.764   1.324  12.469  0.3518  1.2472  1.5477
 7508TIP3   OH246718   3.171   2.799  10.328  0.3929 -0.3116  0.0580
 7508TIP3    H146719   3.131   2.816  10.243  0.8416 -0.9698 -0.2965
 7508TIP3    H246720   3.142   2.710  10.351 -0.5296  0.2325  1.0598
 7509TIP3   OH246721   6.122   2.615  12.166  0.7313 -0.0243 -0.1541
 7509TIP3    H146722   6.213   2.589  12.151  0.4837 -0.0119 -1.9792
 7509TIP3    H246723   6.120   2.646  12.256  2.6359  0.3710 -0.2027
 7510TIP3   OH246724   3.908   7.066  10.848 -0.4098 -0.3480 -0.0044
 7510TIP3    H146725   3.970   7.100  10.784  0.2453 -0.2714  0.6637
 7510TIP3    H246726   3.953   7.074  10.932 -0.9854 -1.0975  0.3869
 7511TIP3   OH246727   3.164   4.913  11.018 -0.6267 -0.0560  0.1246
 7511TIP3    H146728   3.132   4.918  10.928 -3.4667 -0.2427  1.0278
 7511TIP3    H246729   3.179   5.005  11.043  1.6412 -0.0633 -0.9131
 7512TIP3   OH246730   6.564   1.431  11.849 -0.4708  0.1698 -0.0653
 7512TIP3    H146731   6.530   1.482  11.775 -2.4048 -0.1408  0.5552
 7512TIP3    H246732   6.598   1.351  11.808 -0.9207  0.2877 -0.6947
 7513TIP3   OH246733   5.043   5.074  10.771  0.2188 -0.6037  0.0470
 7513TIP3    H146734   4.995   4.993  10.790 -0.4965  0.2476  2.2011
 7513TIP3    H246735   5.119   5.070  10.829  1.9544 -1.1442 -2.1262
 7514TIP3   OH246736   1.876   0.301  12.738  1.1273  0.2295 -0.0799
 7514TIP3    H146737   1.830   0.314  12.655  1.5952  1.3064 -0.1842
 7514TIP3    H246738   1.861   0.382  12.787 -0.2037 -0.8544  1.4285
 7515TIP3   OH246739   2.416   6.575  12.057  0.3611  0.0980  0.1401
 7515TIP3    H146740   2.436   6.592  12.149 -1.4217 -0.0571  0.5973
 7515TIP3    H246741   2.463   6.494  12.037 -0.7933 -0.9933  1.5490
 7516TIP3   OH246742   0.954   2.132  12.284 -0.7907 -0.3019  0.2074
 7516TIP3    H146743   0.866   2.142  12.321 -0.5981 -2.0063  1.2185
 7516TIP3    H246744   0.952   2.049  12.237  0.6216 -1.0492  1.3705
 7517TIP3   OH246745   2.137   7.991  12.668 -0.2410 -0.0535 -0.2078
 7517TIP3    H146746   2.117   8.016  12.758 -1.3982  0.1800 -0.5169
 7517TIP3    H246747   2.181   8.067  12.631  0.7228 -0.3466  0.3047
 7518TIP3   OH246748   7.619   6.318  11.197  0.6789  0.1416  0.2310
 7518TIP3    H146749   7.524   6.330  11.205  0.4922 -1.7148  1.2887
 7518TIP3    H246750   7.657   6.390  11.248 -0.0601  1.9516 -1.6310
 7519TIP3   OH246751   2.956   7.092  10.588 -0.2903  0.3603 -0.3013
 7519TIP3    H146752   3.031   7.116  10.643 -1.0826 -0.7603  1.3329
 7519TIP3    H246753   2.880   7.107  10.643 -1.0890 -1.2550 -0.8924
 7520TIP3   OH246754   5.448   2.361  11.978  0.1085  0.5020  0.0221
 7520TIP3    H146755   5.448   2.266  11.990 -0.4888  0.5439  0.3853
 7520TIP3    H246756   5.451   2.374  11.884  0.9031  0.1288 -0.0123
 7521TIP3   OH246757   2.657   8.144  10.830 -0.6012 -0.2865 -0.6725
 7521TIP3    H146758   2.589   8.107  10.774 -1.4916  0.5134 -0.1483
 7521TIP3    H246759   2.658   8.237  10.808 -0.5449 -0.0692  0.2054
 7522TIP3   OH246760   1.874   8.368  12.482 -0.8563  0.4014 -0.4598
 7522TIP3    H146761   1.791   8.413  12.464 -1.0570 -0.0271 -0.6221
 7522TIP3    H246762   1.867   8.285  12.435 -0.2618  0.4317 -0.6115
 7523TIP3   OH246763   0.581   6.490  11.824  0.4905 -0.9833  0.3015
 7523TIP3    H146764   0.585   6.444  11.908  1.1293 -0.9378  0.2969
 7523TIP3    H246765   0.532   6.571  11.844  2.3053 -0.0212  1.0946
 7524TIP3   OH246766   5.091   7.425  11.568  0.2988  0.1865  0.7648
 7524TIP3    H146767   5.011   7.466  11.535  1.2369  1.6481  0.2108
 7524TIP3    H246768   5.104   7.464  11.654  0.5959  0.2239  0.7036
 7525TIP3   OH246769   2.220   6.418  11.041 -0.0552 -0.4411  0.3423
 7525TIP3    H146770   2.292   6.377  10.993  0.2058  2.6329 -2.2279
 7525TIP3    H246771   2.250   6.508  11.057 -2.8672  0.6038  0.2047
 7526TIP3   OH246772   1.569   7.246  10.868 -0.1488 -0.0448 -0.4968
 7526TIP3    H146773   1.573   7.295  10.951  1.4437  0.7566 -1.0101
 7526TIP3    H246774   1.643   7.280  10.817 -1.1992 -0.4087 -2.3236
 7527TIP3   OH246775   2.365   7.158  11.663 -0.7345 -0.2719 -0.0878
 7527TIP3    H146776   2.449   7.123  11.634  0.1803  3.0498 -1.9033
 7527TIP3    H246777   2.388   7.217  11.735 -1.6393  0.0395 -0.0449
 7528TIP3   OH246778   6.907   1.240  11.496 -1.4773  0.2407 -0.5281
 7528TIP3    H146779   6.843   1.183  11.454 -0.2565 -0.0339 -2.1488
 7528TIP3    H246780   6.975   1.180  11.526 -1.1727  0.6555 -0.3831
 7529TIP3   OH246781   5.396   4.576  12.278 -0.2422 -0.0867 -0.8021
 7529TIP3    H146782   5.450   4.640  12.325  0.5624 -0.7604 -0.7769
 7529TIP3    H246783   5.323   4.627  12.244  0.0388  0.7257 -0.2345
 7530TIP3   OH246784   6.823   5.742  10.519  0.3783 -0.5090  0.0789
 7530TIP3    H146785   6.918   5.752  10.519  0.2942  1.0356 -2.1464
 7530TIP3    H246786   6.809   5.647  10.508  1.6469 -0.7523  0.4128
 7531TIP3   OH246787   2.195   7.505  11.405  0.3403 -0.0777  0.1026
 7531TIP3    H146788   2.224   7.596  11.410 -3.5644  1.3383  0.0684
 7531TIP3    H246789   2.147   7.490  11.486 -1.3598 -1.1721 -1.0323
 7532TIP3   OH246790   3.866   1.643  11.097  0.2860  0.3517 -0.3677
 7532TIP3    H146791   3.946   1.611  11.056  0.2872 -0.9793  0.5727
 7532TIP3    H246792   3.826   1.564  11.135 -1.6499  0.9183 -1.1083
 7533TIP3   OH246793   2.406   6.732  12.473  0.0343  0.7307  0.3827
 7533TIP3    H146794   2.404   6.690  12.559 -0.8678  0.5556  0.2840
 7533TIP3    H246795   2.395   6.826  12.492 -2.2767  0.5096  0.3559
 7534TIP3   OH246796   1.220   0.174  11.348  0.0957  0.2371  0.5276
 7534TIP3    H146797   1.182   0.129  11.272  1.5005 -0.0087 -0.0667
 7534TIP3    H246798   1.170   0.255  11.356 -1.3111 -0.6068  0.5170
 7535TIP3   OH246799   5.995   7.002  11.580 -0.2537  0.0777 -0.0495
 7535TIP3    H146800   5.933   6.961  11.641  1.7781 -3.1864  0.0896
 7535TIP3    H246801   5.991   7.095  11.601 -2.0927 -0.4979  2.7294
 7536TIP3   OH246802   2.880   0.009  10.288 -0.0523  0.1370  0.1810
 7536TIP3    H146803   2.948  -0.051  10.257  0.1606 -2.0902  4.3260
 7536TIP3    H246804   2.904   0.028  10.378 -2.6824  2.7897  0.4562
 7537TIP3   OH246805   6.739   2.069  12.318 -0.5118  0.0944 -0.7740
 7537TIP3    H146806   6.700   2.140  12.370 -0.9465 -0.1405 -0.7745
 7537TIP3    H246807   6.741   1.995  12.378 -0.2483  0.0468 -0.8403
 7538TIP3   OH246808   6.039   7.804  11.464  0.0108 -0.1447  0.3351
 7538TIP3    H146809   6.053   7.734  11.401  0.0319 -0.9247  1.1808
 7538TIP3    H246810   6.115   7.800  11.522  0.7490  1.5335 -0.4525
 7539TIP3   OH246811   4.713   5.293  11.750  0.4379  0.0863 -0.1977
 7539TIP3    H146812   4.635   5.240  11.737  1.5025 -1.4425 -0.7276
 7539TIP3    H246813   4.766   5.277  11.672  1.0388  1.5443 -0.1222
 7540TIP3   OH246814   1.959   6.106  11.486 -0.3614 -0.1428 -0.5090
 7540TIP3    H146815   2.029   6.166  11.512  0.3229 -0.9065 -0.5491
 7540TIP3    H246816   1.944   6.127  11.393 -0.3291  0.1622 -0.4469
 7541TIP3   OH246817   1.410   3.905  11.877 -0.2006  0.1832  0.7218
 7541TIP3    H146818   1.364   3.822  11.865 -2.0218  0.9093  2.2891
 7541TIP3    H246819   1.448   3.924  11.790 -1.3027 -1.3444 -0.1408
 7542TIP3   OH246820   1.789   8.044  11.930  0.1389  0.2280  0.3606
 7542TIP3    H146821   1.869   8.012  11.973  1.7210  3.9461  0.6187
 7542TIP3    H246822   1.722   8.040  11.999  0.9148 -0.0620  1.1273
 7543TIP3   OH246823   4.527   1.287  11.634 -0.8084  0.2353 -0.7454
 7543TIP3    H146824   4.501   1.375  11.606 -1.7348  0.3410  0.3516
 7543TIP3    H246825   4.563   1.300  11.722 -0.4254 -0.4109 -0.8037
 7544TIP3   OH246826   6.247   7.343  11.174  0.1903 -0.0466 -0.0312
 7544TIP3    H146827   6.273   7.349  11.082  0.9661 -0.0563  0.1746
 7544TIP3    H246828   6.155   7.367  11.175 -0.9818 -3.8790 -1.3618
 7545TIP3   OH246829   4.165   0.542  12.452 -0.4673 -0.3631  0.4844
 7545TIP3    H146830   4.186   0.456  12.489  0.0596 -0.1039  0.8038
 7545TIP3    H246831   4.187   0.604  12.522 -0.2273  0.0797  0.0216
 7546TIP3   OH246832   3.956   8.193  10.528  0.0592 -0.1105  0.2986
 7546TIP3    H146833   3.925   8.229  10.445  0.8948 -1.4257 -0.6060
 7546TIP3    H246834   3.946   8.266  10.590 -2.7942  0.1837 -0.3849
 7547TIP3   OH246835   1.660   4.698  11.184  0.0472 -0.1397  0.2707
 7547TIP3    H146836   1.739   4.747  11.207  0.7411  0.0119 -2.1216
 7547TIP3    H246837   1.589   4.761  11.195  0.4388  0.1944  0.9900
 7548TIP3   OH246838   5.198   0.102  11.645 -0.0514  0.1785 -0.4159
 7548TIP3    H146839   5.237   0.188  11.662 -0.0783  0.0251  0.4615
 7548TIP3    H246840   5.108   0.122  11.621 -0.3816  0.3455  0.8956
 7549TIP3   OH246841   0.095   0.246  10.951 -0.0182 -0.0971 -0.2436
 7549TIP3    H146842   0.120   0.182  11.018  0.1926 -1.1604 -1.2971
 7549TIP3    H246843   0.145   0.220  10.873  0.7096  1.8516 -0.4994
 7550TIP3   OH246844   7.397   3.387  11.994 -0.0473 -0.0217 -0.8415
 7550TIP3    H146845   7.341   3.327  11.946  0.1600  0.3914 -1.6085
 7550TIP3    H246846   7.336   3.447  12.037 -0.2245 -0.1848 -0.8617
 7551TIP3   OH246847   0.520   2.024  11.716  0.2530 -0.3411  0.3021
 7551TIP3    H146848   0.442   2.032  11.771  1.2067  0.1148  1.6281
 7551TIP3    H246849   0.521   2.105  11.665  0.5843  0.2887  1.2806
 7552TIP3   OH246850   1.072   3.172  11.589 -0.1318  0.5521 -0.1749
 7552TIP3    H146851   1.038   3.188  11.677  1.2809  0.6780  0.3649
 7552TIP3    H246852   1.082   3.259  11.550 -0.1958  0.5237 -0.2579
 7553TIP3   OH246853   2.252   6.877  10.846  0.7925 -0.4173 -0.3241
 7553TIP3    H146854   2.207   6.858  10.928  0.1621 -1.3384 -0.8579
 7553TIP3    H246855   2.256   6.972  10.841 -1.2130 -0.2874 -0.2974
 7554TIP3   OH246856   6.183   5.634  10.551  0.0603 -0.1530  0.2040
 7554TIP3    H146857   6.186   5.636  10.455 -2.4123  0.3307  0.0733
 7554TIP3    H246858   6.273   5.616  10.577  0.8878  0.1268 -2.1898
 7555TIP3   OH246859   4.671   4.552  11.519  0.0873 -0.5631  0.8334
 7555TIP3    H146860   4.583   4.557  11.480  1.3986 -0.8809 -2.4515
 7555TIP3    H246861   4.677   4.462  11.552 -0.2949 -1.0475 -0.3557
 7556TIP3   OH246862   1.264   0.476  11.388 -0.1839  0.3140 -0.3754
 7556TIP3    H146863   1.353   0.447  11.409  0.4719  1.3425 -1.5998
 7556TIP3    H246864   1.266   0.494  11.294 -1.6501  0.5181 -0.3868
 7557TIP3   OH246865   1.521   7.191  12.361 -0.3467 -0.5867  0.0030
 7557TIP3    H146866   1.442   7.180  12.307  0.4078 -0.5287 -1.1506
 7557TIP3    H246867   1.504   7.270  12.412 -1.5369 -1.2660  0.7089
 7558TIP3   OH246868   3.976   3.723  12.878 -0.3782  0.1786  0.0359
 7558TIP3    H146869   4.038   3.684  12.940 -0.2868  1.2679  0.6493
 7558TIP3    H246870   3.896   3.670  12.888 -0.1327 -0.1007  0.5583
 7559TIP3   OH246871   8.413   4.704  12.016  0.2960  0.9889 -0.6206
 7559TIP3    H146872   8.325   4.666  12.017  0.5829  0.2506 -1.3307
 7559TIP3    H246873   8.407   4.777  11.954  0.6929 -0.5041 -2.5449
 7560TIP3   OH246874   6.572   7.275  11.010  0.3908  0.3721  0.4938
 7560TIP3    H146875   6.604   7.237  11.092 -0.1144 -1.0904  0.0491
 7560TIP3    H246876   6.594   7.210  10.943  0.5000  1.3934 -0.4975
 7561TIP3   OH246877   6.616   2.461  11.731  0.5226  0.1377  0.0572
 7561TIP3    H146878   6.595   2.434  11.641  0.7019  0.6387 -0.1368
 7561TIP3    H246879   6.703   2.425  11.747  0.6518  0.3667 -0.1105
 7562TIP3   OH246880   2.407   5.284  11.985 -0.2991 -1.4175 -0.2388
 7562TIP3    H146881   2.349   5.338  12.038  0.4495  1.4120 -2.1254
 7562TIP3    H246882   2.488   5.279  12.036 -0.0667  0.0734 -0.4276
 7563TIP3   OH246883   2.433   3.648  11.924  0.7268  0.5595 -0.2197
 7563TIP3    H146884   2.422   3.559  11.956  2.3878  0.4185  0.0491
 7563TIP3    H246885   2.345   3.677  11.903  0.0054 -0.6737  0.9452
 7564TIP3   OH246886   5.571   5.584  11.376 -0.3347  0.2921 -0.3515
 7564TIP3    H146887   5.599   5.578  11.285  1.4049  1.3468  0.0691
 7564TIP3    H246888   5.540   5.496  11.398  1.7467 -0.6963 -1.1829
 7565TIP3   OH246889   6.126   7.533  13.032 -0.2725 -0.3964  0.0252
 7565TIP3    H146890   6.071   7.512  13.108 -0.1232 -0.3182  0.1575
 7565TIP3    H246891   6.074   7.595  12.981 -0.0025  0.2868  0.5522
 7566TIP3   OH246892   4.793   1.549  10.695 -0.3505  0.1006  0.2106
 7566TIP3    H146893   4.819   1.491  10.623 -1.8101  0.4207 -0.6066
 7566TIP3    H246894   4.858   1.620  10.693  0.7285 -0.8480  0.4408
 7567TIP3   OH246895   6.469   6.081  12.136  0.1314  0.4964  0.0674
 7567TIP3    H146896   6.532   6.128  12.189 -1.4169  1.3184  1.2851
 7567TIP3    H246897   6.407   6.148  12.107 -0.0954 -0.2440 -1.2535
 7568TIP3   OH246898   4.215   3.517  10.824  0.3518 -0.0313  0.3208
 7568TIP3    H146899   4.238   3.588  10.764  2.4119  0.1899  1.2772
 7568TIP3    H246900   4.287   3.455  10.816 -1.3139 -1.9888 -0.3510
 7569TIP3   OH246901   8.169   4.011  10.548 -0.2319  0.0711 -0.0062
 7569TIP3    H146902   8.127   4.096  10.538 -0.2060  0.1173  0.2672
 7569TIP3    H246903   8.245   4.015  10.489 -0.0725  0.3412  0.2178
 7570TIP3   OH246904   6.988   6.062  10.941  0.2394  0.0294 -0.4832
 7570TIP3    H146905   7.005   5.977  10.901  0.0287 -1.0934  1.6700
 7570TIP3    H246906   6.893   6.067  10.949  0.2556  0.4034 -0.4886
 7571TIP3   OH246907   2.829   3.164  12.467 -0.0828 -0.2479 -0.8638
 7571TIP3    H146908   2.896   3.105  12.502  1.0250  0.8269 -1.1086
 7571TIP3    H246909   2.762   3.166  12.535  1.8972  1.6068  1.1982
 7572TIP3   OH246910   1.576   7.631  12.454  0.7879 -0.3475 -0.4894
 7572TIP3    H146911   1.524   7.570  12.505  0.0400 -1.0795 -2.0677
 7572TIP3    H246912   1.622   7.577  12.390  1.2398  0.5929 -0.9944
 7573TIP3   OH246913   6.490   1.998  11.065 -0.0850 -0.0325  0.4747
 7573TIP3    H146914   6.568   1.985  11.119 -0.8186 -0.2738  1.5112
 7573TIP3    H246915   6.432   1.927  11.091 -0.9844  0.6385  0.3293
 7574TIP3   OH246916   3.322   6.162  11.890  0.1112 -0.1745 -0.3885
 7574TIP3    H146917   3.232   6.193  11.890  0.1870  0.0965  0.6824
 7574TIP3    H246918   3.344   6.151  11.982  1.0338 -0.6599 -0.6487
 7575TIP3   OH246919   4.540   6.747  11.513  0.5536  0.4548 -0.3399
 7575TIP3    H146920   4.534   6.700  11.596  1.0520 -0.9599 -1.0767
 7575TIP3    H246921   4.633   6.768  11.504  0.3605  1.4791 -0.0917
 7576TIP3   OH246922   8.422   5.941  11.015 -0.1907  0.1562  0.0478
 7576TIP3    H146923   8.419   5.846  11.030  0.2822  0.1758  0.2540
 7576TIP3    H246924   8.425   5.979  11.102 -0.0814  0.3522 -0.0416
 7577TIP3   OH246925   1.416   6.677  11.324 -0.1976  0.6600  0.7066
 7577TIP3    H146926   1.481   6.613  11.354 -1.4852 -1.2077 -0.2237
 7577TIP3    H246927   1.454   6.714  11.244 -0.9279 -1.7874 -0.9036
 7578TIP3   OH246928   2.589   4.371  10.595 -0.6078 -0.2463  0.3010
 7578TIP3    H146929   2.684   4.367  10.597 -0.5617  0.7506  0.8416
 7578TIP3    H246930   2.569   4.464  10.598 -1.6133 -0.4758  1.3809
 7579TIP3   OH246931   1.859   8.003  10.485 -0.2114  0.4996  0.6204
 7579TIP3    H146932   1.907   8.083  10.463  0.3984  0.3760  1.4376
 7579TIP3    H246933   1.927   7.944  10.518 -0.7264 -0.1942  0.4523
 7580TIP3   OH246934   7.832   8.425  11.608  0.0969 -0.2056 -0.2377
 7580TIP3    H146935   7.887   8.347  11.602 -1.1055 -0.9965 -1.3184
 7580TIP3    H246936   7.743   8.392  11.616 -0.3593  1.0644  0.3020
 7581TIP3   OH246937   4.896   5.979  11.495  0.5118 -0.1110  0.0381
 7581TIP3    H146938   4.803   6.003  11.487  0.4777 -0.7016 -2.3088
 7581TIP3    H246939   4.895   5.886  11.515  0.5370 -0.4090 -1.2243
 7582TIP3   OH246940   6.469   2.505  11.075 -0.5321 -0.0698 -0.0375
 7582TIP3    H146941   6.533   2.484  11.008 -1.1803 -1.0164 -0.3800
 7582TIP3    H246942   6.388   2.524  11.026 -0.3563  1.8694  0.3361
 7583TIP3   OH246943   8.000   1.082  12.292  0.4177 -0.2585 -0.0323
 7583TIP3    H146944   7.913   1.120  12.282  0.2829 -0.5691 -0.0427
 7583TIP3    H246945   8.005   1.015  12.224 -0.5297 -2.4559  1.9563
 7584TIP3   OH246946   3.243   7.036  12.710  0.5095 -0.3252 -0.5606
 7584TIP3    H146947   3.229   6.949  12.748  0.3742  1.0915  2.9820
 7584TIP3    H246948   3.156   7.063  12.679  0.5476 -1.3722 -1.6549
 7585TIP3   OH246949   4.780   7.920  11.367  0.5684  0.3690 -0.3732
 7585TIP3    H146950   4.836   7.980  11.318 -0.3207  1.2384 -0.3705
 7585TIP3    H246951   4.733   7.977  11.428  1.4085 -0.6392  1.2946
 7586TIP3   OH246952   4.425   6.705  11.006 -0.0955  0.6082 -0.0610
 7586TIP3    H146953   4.339   6.733  11.036 -0.0872  0.4831  0.0791
 7586TIP3    H246954   4.479   6.704  11.085  0.2894  1.6375 -0.2939
 7587TIP3   OH246955   3.273   5.087  11.747 -0.7422 -0.1731 -0.1400
 7587TIP3    H146956   3.340   5.029  11.710  0.7960  1.9436 -0.8433
 7587TIP3    H246957   3.202   5.085  11.683  1.0304  1.8494 -2.3272
 7588TIP3   OH246958   2.185   5.088  11.440  0.2965 -0.0016  0.3947
 7588TIP3    H146959   2.153   5.091  11.531 -1.0054  0.9204 -0.0613
 7588TIP3    H246960   2.280   5.081  11.449  0.5392  3.2198  1.9096
 7589TIP3   OH246961   1.815   3.732  12.079 -0.1136  0.6149  0.3287
 7589TIP3    H146962   1.760   3.718  12.002 -0.0670  0.8177  0.2592
 7589TIP3    H246963   1.896   3.770  12.045  0.0112  0.4580  0.4479
 7590TIP3   OH246964   4.512   7.872  11.839  0.0063  0.2363 -0.0649
 7590TIP3    H146965   4.544   7.811  11.906  1.9676  1.7484  0.4864
 7590TIP3    H246966   4.512   7.821  11.758  1.8041 -0.4794  0.3388
 7591TIP3   OH246967   6.296   1.760  11.107 -0.0253  0.2708 -0.1108
 7591TIP3    H146968   6.225   1.709  11.145 -1.3314  1.5446 -0.7716
 7591TIP3    H246969   6.258   1.800  11.029  1.1563  1.6595 -0.0217
 7592TIP3   OH246970   6.377   3.360  11.774 -0.4388 -0.8229  0.1175
 7592TIP3    H146971   6.296   3.342  11.822 -0.1775 -0.7784  0.5761
 7592TIP3    H246972   6.422   3.426  11.826  0.2985 -1.4698  0.3192
 7593TIP3   OH246973   6.754   0.084  10.987 -0.1905  0.1677  0.3628
 7593TIP3    H146974   6.744  -0.011  10.989  1.7785 -0.1439 -1.4813
 7593TIP3    H246975   6.847   0.100  11.000 -0.1979  1.7049 -1.0116
 7594TIP3   OH246976   2.973   2.565  11.913 -0.1561  0.3747 -0.6961
 7594TIP3    H146977   3.053   2.604  11.877 -0.5443  1.5880 -0.2637
 7594TIP3    H246978   3.000   2.532  11.999  0.0921 -0.0598 -0.9328
 7595TIP3   OH246979   5.315   7.662  10.624  0.3420  0.1567  0.4133
 7595TIP3    H146980   5.390   7.708  10.587 -0.5914  1.6929  0.3699
 7595TIP3    H246981   5.344   7.571  10.629  2.4222  0.7957  0.9905
 7596TIP3   OH246982   7.384   8.325  11.245 -0.6949 -0.6162 -0.0917
 7596TIP3    H146983   7.402   8.267  11.172 -3.1248 -0.8647 -0.5757
 7596TIP3    H246984   7.344   8.269  11.311  0.1324 -0.1121  0.8700
 7597TIP3   OH246985   1.132   0.002  10.475  0.4323  0.8206 -0.1150
 7597TIP3    H146986   1.122   0.067  10.406  0.7381  2.4856  1.3562
 7597TIP3    H246987   1.122   0.051  10.556  0.2554 -1.0516  1.0536
 7598TIP3   OH246988   7.879   1.301  10.621 -0.1532  0.0677 -0.1798
 7598TIP3    H146989   7.882   1.390  10.585  1.3423 -0.0904 -0.4745
 7598TIP3    H246990   7.793   1.296  10.663  0.3741  2.2222  1.3074
 7599TIP3   OH246991   1.731   7.000  12.584  0.2407  0.0119 -0.0972
 7599TIP3    H146992   1.808   6.982  12.638 -0.3749 -0.7188  0.5479
 7599TIP3    H246993   1.677   7.057  12.638 -1.0905 -1.9357  0.7208
 7600TIP3   OH246994   2.798   6.726  12.541 -0.7922  0.0699  0.1349
 7600TIP3    H146995   2.724   6.707  12.600 -0.9074 -0.0719 -0.0510
 7600TIP3    H246996   2.833   6.640  12.518  0.6859  0.1891  1.7787
 7601TIP3   OH246997   6.730   5.046  12.324 -0.2028  0.3097 -0.3865
 7601TIP3    H146998   6.667   5.093  12.269 -0.0648  2.0153  0.8474
 7601TIP3    H246999   6.769   5.113  12.380  0.0632 -1.2523  1.4296
 7602TIP3   OH247000   1.113   0.272  11.071 -0.1848 -0.5494 -0.3131
 7602TIP3    H147001   1.092   0.337  11.003 -0.5773  0.1483  0.4627
 7602TIP3    H247002   1.174   0.211  11.028  1.8295  1.4647 -0.4892
 7603TIP3   OH247003   2.080   2.265  11.785  0.0823  0.0679 -0.0780
 7603TIP3    H147004   2.046   2.302  11.703 -1.4151 -0.7134  0.1751
 7603TIP3    H247005   2.080   2.171  11.771 -0.9170 -0.1269  1.0813
 7604TIP3   OH247006   0.610   2.155  11.037 -0.0375  0.5439 -0.3701
 7604TIP3    H147007   0.637   2.159  11.128 -1.6418  0.2798  0.1625
 7604TIP3    H247008   0.514   2.159  11.041 -0.2130 -0.8324 -1.9415
 7605TIP3   OH247009   4.923   0.315  12.156  0.2594 -0.1329  0.0622
 7605TIP3    H147010   4.981   0.258  12.105  0.0659  0.0907 -0.4120
 7605TIP3    H247011   4.936   0.402  12.119 -1.2907 -0.2706 -0.8964
 7606TIP3   OH247012   4.240   4.261  10.784  0.0898  0.0594 -0.3298
 7606TIP3    H147013   4.197   4.271  10.869  0.7510 -0.0785  0.0343
 7606TIP3    H247014   4.291   4.341  10.773  0.8114 -0.3558 -0.1094
 7607TIP3   OH247015   2.312   2.770  12.212 -0.0298  0.1037  0.5630
 7607TIP3    H147016   2.319   2.737  12.122  2.5745  2.0863 -0.0884
 7607TIP3    H247017   2.306   2.692  12.266 -0.5390 -1.1775 -1.2662
 7608TIP3   OH247018   6.560   1.763  11.629  0.4144  0.0626  0.6035
 7608TIP3    H147019   6.507   1.814  11.568  0.3319  0.8149  1.2842
 7608TIP3    H247020   6.511   1.682  11.643 -0.5385  0.7229  1.1871
 7609TIP3   OH247021   0.445   6.736  12.385  0.1611  0.1742 -0.7163
 7609TIP3    H147022   0.528   6.720  12.341  1.3027  0.2085  1.3054
 7609TIP3    H247023   0.446   6.830  12.404  0.2607 -0.0433  0.4116
 7610TIP3   OH247024   1.406   6.012  11.821 -0.0698 -0.0598 -0.1678
 7610TIP3    H147025   1.369   6.011  11.910  0.9098 -0.0115  0.2579
 7610TIP3    H247026   1.406   6.105  11.797 -1.0692 -0.1490 -0.5455
 7611TIP3   OH247027   1.846   5.166  11.090  0.2146 -0.0106  0.0540
 7611TIP3    H147028   1.881   5.192  11.175 -0.9437  1.7814  0.0446
 7611TIP3    H247029   1.753   5.148  11.106  0.5837 -2.7049 -0.2938
 7612TIP3   OH247030   0.333   4.197  11.848  0.5376 -0.6341 -0.3828
 7612TIP3    H147031   0.318   4.202  11.943 -0.3215 -1.1941 -0.4728
 7612TIP3    H247032   0.348   4.104  11.832  0.9614 -0.5027 -0.7649
 7613TIP3   OH247033   4.723   1.057  12.253 -0.1511 -0.4767 -0.0912
 7613TIP3    H147034   4.747   0.994  12.185 -2.9396 -1.6938 -0.0943
 7613TIP3    H247035   4.769   1.025  12.331 -0.7704 -2.0121 -0.3134
 7614TIP3   OH247036   7.383   2.795  11.534  0.0052 -0.2155  0.4173
 7614TIP3    H147037   7.333   2.824  11.458  2.1272  1.0829 -0.6080
 7614TIP3    H247038   7.393   2.874  11.588  0.3548 -0.6068  0.9465
 7615TIP3   OH247039   5.829   6.692  10.532  0.1561  0.1934 -0.1615
 7615TIP3    H147040   5.887   6.625  10.495  2.1068  0.6351  1.8629
 7615TIP3    H247041   5.804   6.657  10.617 -0.2370  1.2818  0.1798
 7616TIP3   OH247042   7.163   5.402  11.784 -0.2386 -0.2771 -0.1690
 7616TIP3    H147043   7.068   5.397  11.785 -0.2540 -0.0411 -0.3949
 7616TIP3    H247044   7.188   5.373  11.696 -0.0293 -1.5181  0.2774
 7617TIP3   OH247045   1.667   7.438  12.236 -0.3098  0.4952  0.1889
 7617TIP3    H147046   1.626   7.354  12.256  1.6131 -0.2711  1.1962
 7617TIP3    H247047   1.727   7.419  12.165 -0.2632  1.1527  0.0481
 7618TIP3   OH247048   1.219   5.539  11.411 -0.5870 -0.2180  0.2443
 7618TIP3    H147049   1.180   5.568  11.328 -0.3516  0.2926  0.3117
 7618TIP3    H247050   1.150   5.553  11.476 -0.6656 -0.3352  0.1877
 7619TIP3   OH247051   1.451   4.464  12.754  0.4407 -0.1263 -0.1204
 7619TIP3    H147052   1.418   4.375  12.743  0.3350 -0.0181 -0.7209
 7619TIP3    H247053   1.384   4.508  12.806  0.3789 -0.3303 -0.0264
 7620TIP3   OH247054   5.593   5.511  11.811  0.5054 -0.3337  0.5310
 7620TIP3    H147055   5.580   5.606  11.806 -0.7853 -0.4992  0.3205
 7620TIP3    H247056   5.625   5.487  11.725 -2.7086 -0.5335 -0.7585
 7621TIP3   OH247057   0.028   1.752  11.657 -0.1817  0.0164 -0.7157
 7621TIP3    H147058  -0.037   1.803  11.706  1.8863  1.4643  0.7173
 7621TIP3    H247059   0.093   1.816  11.630  2.0574 -1.6773  0.3079
 7622TIP3   OH247060   2.057   0.029  12.299 -0.2966  0.1811 -0.1736
 7622TIP3    H147061   2.016  -0.037  12.354 -0.4450  0.6151  0.2445
 7622TIP3    H247062   1.997   0.103  12.301 -0.9698 -0.2440 -1.9773
 7623TIP3   OH247063   0.628   7.742  11.122  0.1671  0.6917 -0.3919
 7623TIP3    H147064   0.704   7.758  11.065  0.6787 -0.4419 -0.0635
 7623TIP3    H247065   0.652   7.780  11.206  0.0600  0.9992 -0.5010
 7624TIP3   OH247066   2.420   0.300  11.205 -0.3836  0.2695  0.1539
 7624TIP3    H147067   2.384   0.212  11.199  1.7779 -0.6636  0.0570
 7624TIP3    H247068   2.357   0.348  11.259 -1.2145 -1.5416  0.8852
 7625TIP3   OH247069   4.132   1.303  12.247  0.6152 -0.8248 -0.4238
 7625TIP3    H147070   4.083   1.223  12.228  0.1642 -0.4597 -0.8015
 7625TIP3    H247071   4.197   1.276  12.312  2.4910 -2.2565 -2.7058
 7626TIP3   OH247072   3.751   3.780  11.939 -0.1154 -0.3390 -0.4099
 7626TIP3    H147073   3.830   3.775  11.993 -0.4387 -0.1040  0.1006
 7626TIP3    H247074   3.687   3.824  11.995 -1.2903 -2.4665  0.0391
 7627TIP3   OH247075   8.293   1.229  12.151 -0.3096 -0.0758  0.3328
 7627TIP3    H147076   8.369   1.205  12.098 -0.0175  0.3821  0.5352
 7627TIP3    H247077   8.241   1.149  12.157 -0.7940  0.0851 -1.3793
 7628TIP3   OH247078   6.027   4.729  11.720  0.2041  0.1628  0.2181
 7628TIP3    H147079   6.026   4.703  11.628  1.5738 -2.1961  0.7890
 7628TIP3    H247080   5.949   4.689  11.758  0.9972 -1.0882  0.5805
 7629TIP3   OH247081   6.185   4.103  11.846 -0.6135 -0.4185  0.2691
 7629TIP3    H147082   6.100   4.124  11.885 -0.3155  0.5751  0.4188
 7629TIP3    H247083   6.242   4.087  11.921 -0.7088 -1.2918  0.1639
 7630TIP3   OH247084   1.575   1.527  10.367 -0.3474  0.2183  0.3657
 7630TIP3    H147085   1.512   1.483  10.309 -1.2350  1.2886  0.4808
 7630TIP3    H247086   1.597   1.460  10.432  0.8308 -1.0662 -1.2826
 7631TIP3   OH247087   6.832   6.722  12.733  0.4938  0.6263  0.0665
 7631TIP3    H147088   6.861   6.805  12.695  4.0496 -1.5883 -2.7515
 7631TIP3    H247089   6.903   6.698  12.793  0.6602 -1.2704 -0.8086
 7632TIP3   OH247090   7.394   4.885  11.912  0.6056 -0.1061  0.5728
 7632TIP3    H147091   7.489   4.891  11.921  0.5841  0.3434  0.5140
 7632TIP3    H247092   7.376   4.791  11.912  0.9948 -0.1878  1.1607
 7633TIP3   OH247093   5.557   0.877  11.842 -0.7375 -0.4462 -0.1374
 7633TIP3    H147094   5.495   0.929  11.893 -0.8213 -1.1471  0.4972
 7633TIP3    H247095   5.642   0.913  11.865 -0.7151 -1.2256  1.0897
 7634TIP3   OH247096   0.814   0.343  10.927  0.7022  0.0207 -0.4587
 7634TIP3    H147097   0.747   0.327  10.861  1.3353  1.9551 -1.6420
 7634TIP3    H247098   0.886   0.384  10.879  1.7052  0.3393  1.2265
 7635TIP3   OH247099   7.982   0.410  11.676 -0.0213 -0.3029  0.4115
 7635TIP3    H147100   8.071   0.422  11.643 -0.2391  1.7636  0.4265
 7635TIP3    H247101   7.975   0.470  11.750 -1.6985  0.3030 -0.1765
 7636TIP3   OH247102   2.405   2.065  11.963  0.1545  0.0451  0.1492
 7636TIP3    H147103   2.373   2.019  11.885  1.7912  0.3545 -0.7656
 7636TIP3    H247104   2.387   2.005  12.035 -1.7103 -0.1073 -0.3888
 7637TIP3   OH247105   2.373   2.226  11.071 -0.3142 -0.6315  0.5458
 7637TIP3    H147106   2.331   2.141  11.058  0.3342 -1.0517  1.1170
 7637TIP3    H247107   2.316   2.272  11.133  0.0583 -1.2026  1.3278
 7638TIP3   OH247108   7.452   5.095  11.229 -0.5481  0.4557  0.4191
 7638TIP3    H147109   7.520   5.035  11.198 -0.7895  1.3710 -2.0814
 7638TIP3    H247110   7.500   5.174  11.254 -0.5698  0.6200 -0.0551
 7639TIP3   OH247111   3.105   5.975  11.312 -0.2002  0.5272  0.1335
 7639TIP3    H147112   3.162   5.922  11.256 -0.1589  0.6835  0.0271
 7639TIP3    H247113   3.019   5.970  11.271 -0.2122  0.4818  0.1647
 7640TIP3   OH247114   7.408   3.232  10.952  0.1966 -0.1160  0.1721
 7640TIP3    H147115   7.432   3.158  10.896 -0.1672 -0.0379 -0.0925
 7640TIP3    H247116   7.387   3.192  11.037 -0.6465 -0.3914 -0.1582
 7641TIP3   OH247117   3.879   3.637  11.401 -0.0717  0.1792 -0.1611
 7641TIP3    H147118   3.869   3.549  11.367  0.8331 -0.0603  0.1722
 7641TIP3    H247119   3.827   3.638  11.482  0.4686 -0.2537  0.1916
 7642TIP3   OH247120   4.907   0.892  11.812  0.0382  0.4724  0.7288
 7642TIP3    H147121   4.856   0.921  11.888 -0.7400 -0.1350  0.4492
 7642TIP3    H247122   4.877   0.948  11.740  0.5239  0.8099  0.7778
 7643TIP3   OH247123   1.845   6.904  11.863  0.2443 -0.0119  0.2158
 7643TIP3    H147124   1.847   6.891  11.957  1.4213 -1.0791  0.0815
 7643TIP3    H247125   1.898   6.982  11.848 -1.0207  0.9210  0.5198
 7644TIP3   OH247126   5.927   1.649  10.356 -0.1876  0.2147  0.2128
 7644TIP3    H147127   6.013   1.612  10.338 -0.4607 -0.0904 -0.5063
 7644TIP3    H247128   5.891   1.594  10.426  0.0645  0.1319  0.2777
 7645TIP3   OH247129   0.110   2.421  11.943  0.2908 -0.0892  0.6590
 7645TIP3    H147130   0.091   2.336  11.983 -0.1282 -0.4018 -0.1881
 7645TIP3    H247131   0.202   2.438  11.965  1.0921 -1.8223 -1.0288
 7646TIP3   OH247132   6.600   6.215  11.139 -0.1615  0.3405  0.2142
 7646TIP3    H147133   6.645   6.298  11.124 -0.2403  0.4793  0.7236
 7646TIP3    H247134   6.605   6.202  11.233  0.4907 -0.5955  0.0686
 7647TIP3   OH247135   3.245   2.676  11.947 -0.4535 -0.0891 -0.0818
 7647TIP3    H147136   3.249   2.767  11.917 -0.9703 -0.9965 -3.1799
 7647TIP3    H247137   3.252   2.683  12.043  0.6780  3.0971 -0.2648
 7648TIP3   OH247138   4.070   6.773  10.614 -0.9157  0.4470 -0.1458
 7648TIP3    H147139   4.051   6.835  10.543  1.0333  1.0706 -0.1615
 7648TIP3    H247140   4.158   6.795  10.643 -0.9878 -0.9672  1.2935
 7649TIP3   OH247141   0.847   1.234  11.699 -0.4234  0.4313  0.1346
 7649TIP3    H147142   0.850   1.205  11.791 -0.5848  0.9262  0.2994
 7649TIP3    H247143   0.765   1.199  11.666 -0.0497 -0.3301 -0.0262
 7650TIP3   OH247144   7.191   5.285  11.115  0.3014 -0.0279 -0.1384
 7650TIP3    H147145   7.218   5.316  11.201 -0.5012 -2.9663  1.2970
 7650TIP3    H247146   7.218   5.193  11.112 -1.9723 -0.7618 -1.9547
 7651TIP3   OH247147   2.541   1.149  12.851  0.3832 -0.6404  0.2782
 7651TIP3    H147148   2.460   1.200  12.862 -0.3066 -1.8458  0.9193
 7651TIP3    H247149   2.609   1.215  12.837 -0.4357  0.4706  1.3676
 7652TIP3   OH247150   7.840   5.932  11.984  0.3687  0.2136 -0.1148
 7652TIP3    H147151   7.758   5.963  12.023  0.4436  0.6826 -0.3264
 7652TIP3    H247152   7.813   5.863  11.923  0.0013  1.1578 -1.0565
 7653TIP3   OH247153   2.729   6.266  12.211 -0.1863 -0.0101  0.7051
 7653TIP3    H147154   2.666   6.298  12.146  2.3768 -0.7662 -2.4186
 7653TIP3    H247155   2.771   6.344  12.244 -1.4447  0.3860  1.4266
 7654TIP3   OH247156   0.400   4.224  12.409 -0.2996 -0.1566  0.6408
 7654TIP3    H147157   0.427   4.284  12.339 -0.1048 -0.9965 -0.0232
 7654TIP3    H247158   0.306   4.210  12.393  0.1547 -1.9297 -0.7117
 7655TIP3   OH247159   8.375   1.205  10.550  0.1635 -0.2011  0.1975
 7655TIP3    H147160   8.403   1.162  10.630 -0.0123 -0.5939  0.0529
 7655TIP3    H247161   8.416   1.154  10.480 -0.8921 -0.8004 -0.0187
 7656TIP3   OH247162   6.966   5.166  10.908  0.4257 -0.2139  0.6954
 7656TIP3    H147163   6.947   5.251  10.948 -0.7580 -0.5874  0.9687
 7656TIP3    H247164   6.903   5.159  10.837  2.2329  0.2668 -1.0432
 7657TIP3   OH247165   3.465   5.409  10.166 -0.1272  0.5391  0.1741
 7657TIP3    H147166   3.382   5.366  10.186  0.2134  0.0953  0.6636
 7657TIP3    H247167   3.456   5.497  10.200 -1.1423  1.1526 -1.5597
 7658TIP3   OH247168   5.470   8.055  10.950 -0.2546  0.7710  0.4293
 7658TIP3    H147169   5.510   8.136  10.983 -0.5692  0.7197  0.9380
 7658TIP3    H247170   5.440   8.009  11.028  0.1049  0.0565  0.1538
 7659TIP3   OH247171   3.434   4.834  12.463  0.1828 -0.3675  0.6514
 7659TIP3    H147172   3.407   4.924  12.445  0.6303 -0.5123 -0.8615
 7659TIP3    H247173   3.522   4.827  12.426  1.4120 -0.5993  3.3567
 7660TIP3   OH247174   3.783   0.112  10.525  0.2419  0.0039 -0.9464
 7660TIP3    H147175   3.748   0.195  10.560 -1.0303 -1.5587  1.7966
 7660TIP3    H247176   3.705   0.063  10.498  0.9336 -0.6003 -1.9100
 7661TIP3   OH247177   4.709   3.450  10.914  0.7416 -0.3532  0.3255
 7661TIP3    H147178   4.688   3.538  10.884 -0.2924 -1.4748 -2.5372
 7661TIP3    H247179   4.804   3.442  10.901  0.6423 -0.0746 -0.6283
 7662TIP3   OH247180   5.178   5.970  12.002 -0.6105  0.3919 -0.6414
 7662TIP3    H147181   5.132   6.034  12.055 -0.5208  0.2427 -0.3812
 7662TIP3    H247182   5.129   5.966  11.919 -0.2271  1.2916 -0.9224
 7663TIP3   OH247183   7.878   3.443  11.096 -0.1274  0.5118 -0.6623
 7663TIP3    H147184   7.971   3.444  11.071 -0.0481 -0.5947 -0.4426
 7663TIP3    H247185   7.871   3.507  11.167  0.6648 -0.0947 -0.0213
 7664TIP3   OH247186   1.433   4.215  12.346 -0.0687 -0.4133 -0.0647
 7664TIP3    H147187   1.501   4.193  12.282 -0.1536 -0.3703 -0.1697
 7664TIP3    H247188   1.481   4.247  12.422  0.0365 -0.5362 -0.0787
 7665TIP3   OH247189   1.711   7.217  12.077  0.1965  0.0158  0.1951
 7665TIP3    H147190   1.745   7.158  12.144  0.9043  1.8655  1.5476
 7665TIP3    H247191   1.787   7.242  12.025 -0.3378 -1.3612 -1.3256
 7666TIP3   OH247192   0.182   3.883  12.551 -0.3606 -0.1205  0.2232
 7666TIP3    H147193   0.130   3.802  12.555  1.3112 -1.2952 -0.5281
 7666TIP3    H247194   0.205   3.901  12.642  0.8580 -1.6386  0.2639
 7667TIP3   OH247195   0.385   6.979  12.660  0.4207  0.2290 -0.4584
 7667TIP3    H147196   0.479   6.997  12.664  0.7839 -1.4930 -0.3411
 7667TIP3    H247197   0.362   6.989  12.568  0.9644 -0.3572 -0.6647
 7668TIP3   OH247198   4.332   1.886  11.032 -0.3101 -0.0897  0.8026
 7668TIP3    H147199   4.360   1.806  10.988  0.8537 -0.2791  1.8379
 7668TIP3    H247200   4.254   1.914  10.984 -0.8480 -1.9372  0.5212
 7669TIP3   OH247201   3.860   4.088  11.023 -0.1535 -0.6338  0.2412
 7669TIP3    H147202   3.911   4.007  11.030  0.0708 -0.3775  2.0120
 7669TIP3    H247203   3.924   4.158  11.035 -0.1075 -0.0637 -2.6249
 7670TIP3   OH247204   6.339   1.284  12.409  0.8260  0.3508  0.9052
 7670TIP3    H147205   6.359   1.332  12.490 -2.0669  0.7778  1.4923
 7670TIP3    H247206   6.335   1.193  12.436 -0.9209  0.5657  1.4930
 7671TIP3   OH247207   6.873   6.347  12.102 -0.1633  0.0100 -0.4621
 7671TIP3    H147208   6.827   6.376  12.181  0.9818  0.3160  0.1154
 7671TIP3    H247209   6.814   6.370  12.031 -1.6524 -1.1380  0.3390
 7672TIP3   OH247210   2.338   1.120  10.411 -0.1675  0.1347 -0.2307
 7672TIP3    H147211   2.432   1.108  10.427  0.5056 -0.8213 -3.8910
 7672TIP3    H247212   2.334   1.198  10.356 -1.6230  0.5288  0.3996
 7673TIP3   OH247213   5.573   2.082  10.911  0.0528  0.6114  0.3162
 7673TIP3    H147214   5.603   1.993  10.928 -0.0051  0.1281 -1.8209
 7673TIP3    H247215   5.547   2.115  10.996  0.2710 -1.3408  1.1957
 7674TIP3   OH247216   3.125   6.375  10.961  0.1080  0.3772  0.0312
 7674TIP3    H147217   3.145   6.403  10.871 -1.1750  1.4035  0.0309
 7674TIP3    H247218   3.059   6.306  10.951  1.0870 -0.6019  0.1504
 7675TIP3   OH247219   4.229   5.073  11.675 -0.0985 -0.4670 -0.3025
 7675TIP3    H147220   4.201   5.023  11.752 -0.9883  1.2660  0.5644
 7675TIP3    H247221   4.151   5.120  11.647  0.8816  1.1317 -0.5030
 7676TIP3   OH247222   1.691   7.937  11.440  0.2829 -0.4349 -0.5266
 7676TIP3    H147223   1.787   7.932  11.445  0.5505  1.3978 -2.2184
 7676TIP3    H247224   1.672   8.030  11.448 -1.4758 -0.8456  0.6466
 7677TIP3   OH247225   5.540   7.174  10.829  0.2966 -0.1925 -0.0160
 7677TIP3    H147226   5.488   7.253  10.838  0.7254  0.2341 -1.1797
 7677TIP3    H247227   5.610   7.197  10.767  2.2393 -0.5525  1.9057
 7678TIP3   OH247228   3.571   4.544  10.225  0.0747 -0.5250 -0.3343
 7678TIP3    H147229   3.631   4.548  10.150  0.6616  0.4400  0.1562
 7678TIP3    H247230   3.628   4.545  10.301 -0.5257  1.8573  0.1888
 7679TIP3   OH247231   7.568   8.382  11.639 -0.2711  0.5484  0.7129
 7679TIP3    H147232   7.553   8.287  11.635 -1.4060  0.7372 -0.0439
 7679TIP3    H247233   7.520   8.411  11.717 -0.0876  0.5271  0.8337
 7680TIP3   OH247234   2.063   7.888  10.749  0.2163  0.0799 -0.4889
 7680TIP3    H147235   2.073   7.845  10.834  0.3824  0.0870 -0.5062
 7680TIP3    H247236   2.033   7.976  10.770 -0.8987 -0.2801 -0.4765
 7681TIP3   OH247237   6.658   8.005  12.173 -0.5977  0.2998 -0.2279
 7681TIP3    H147238   6.742   8.044  12.149 -0.7774  1.0976  0.3894
 7681TIP3    H247239   6.630   7.957  12.095  0.2282  0.3744 -0.5772
 7682TIP3   OH247240   4.563   5.591  12.708  0.1897 -0.4599 -0.2771
 7682TIP3    H147241   4.600   5.664  12.758  1.4583 -0.4868 -1.1129
 7682TIP3    H247242   4.492   5.557  12.763 -0.0072  0.9843  0.4176
 7683TIP3   OH247243   3.847   5.233  10.715 -0.2438 -0.0007 -0.1965
 7683TIP3    H147244   3.876   5.169  10.650  2.6540  0.8964  0.0799
 7683TIP3    H247245   3.860   5.318  10.673  1.4676  0.5882  1.3452
 7684TIP3   OH247246   1.015   5.778  10.650  0.1806 -0.7048  0.2430
 7684TIP3    H147247   0.976   5.859  10.682 -1.0397 -1.1384 -0.0877
 7684TIP3    H247248   0.963   5.755  10.573  0.6032 -1.7256  0.2442
 7685TIP3   OH247249   8.202   6.277  10.898  0.1943  0.5806 -0.4231
 7685TIP3    H147250   8.201   6.211  10.828  3.2754 -1.4790  1.2483
 7685TIP3    H247251   8.257   6.347  10.864  1.4052 -0.2591 -0.2334
 7686TIP3   OH247252   0.685   2.803  11.350 -0.3496 -0.1895 -0.1415
 7686TIP3    H147253   0.661   2.895  11.363 -0.8314 -0.2137 -0.8096
 7686TIP3    H247254   0.603   2.759  11.328 -0.1241 -0.7850  0.1858
 7687TIP3   OH247255   8.288   7.546  10.701  0.1039 -0.1248  0.4093
 7687TIP3    H147256   8.209   7.601  10.700  0.5779  0.5960 -1.0963
 7687TIP3    H247257   8.294   7.514  10.791 -1.9314 -0.2516  0.5506
 7688TIP3   OH247258   2.569   7.299  10.992 -0.3831  0.3688  0.1912
 7688TIP3    H147259   2.551   7.337  11.078 -0.9531  0.6469 -0.0476
 7688TIP3    H247260   2.633   7.229  11.009 -1.1657 -0.1802  0.9694
 7689TIP3   OH247261   3.601   7.548  10.676 -0.3573 -0.5513 -0.1776
 7689TIP3    H147262   3.581   7.639  10.699  1.1785  0.0562 -1.0243
 7689TIP3    H247263   3.676   7.526  10.732  0.9918 -0.3336 -1.8039
 7690TIP3   OH247264   2.759   2.186  11.180 -0.2594  0.1215  0.1026
 7690TIP3    H147265   2.717   2.258  11.133  1.9781  1.9717  0.7615
 7690TIP3    H247266   2.832   2.161  11.123 -0.1655 -0.6553  0.5569
 7691TIP3   OH247267   7.306   3.176  11.188  0.1034  0.3033  0.6043
 7691TIP3    H147268   7.313   3.229  11.268 -0.3187 -0.3966  1.1147
 7691TIP3    H247269   7.214   3.181  11.164  0.1381  0.1179  0.4296
 7692TIP3   OH247270   2.672   8.404  12.872  0.0592 -0.3486 -0.3353
 7692TIP3    H147271   2.726   8.441  12.802 -0.6462 -0.0683 -0.7431
 7692TIP3    H247272   2.644   8.319  12.839  1.1377 -0.9869  0.3318
 7693TIP3   OH247273   4.211   2.725  17.842 -0.5327  0.2948  0.0563
 7693TIP3    H147274   4.292   2.676  17.855 -0.1902  1.4544  3.2004
 7693TIP3    H247275   4.143   2.658  17.835  0.3284 -0.6674  0.7260
 7694TIP3   OH247276   5.852   0.274  11.305 -0.7373  0.1096 -0.6204
 7694TIP3    H147277   5.837   0.369  11.304  1.6646  0.5617 -1.4074
 7694TIP3    H247278   5.878   0.255  11.395  1.0170  0.6747 -0.9671
 7695TIP3   OH247279   7.991   7.647  11.385 -0.1587 -0.2198  0.0559
 7695TIP3    H147280   7.945   7.578  11.337  2.3395 -1.2685 -0.9924
 7695TIP3    H247281   7.960   7.728  11.345 -1.2478 -0.8526 -0.4333
 7696TIP3   OH247282   3.828   5.398  11.927  0.1748 -0.0011  0.1373
 7696TIP3    H147283   3.838   5.360  11.840  1.0096 -1.0710  0.6715
 7696TIP3    H247284   3.740   5.373  11.954  0.8479 -2.0074  0.6433
 7697TIP3   OH247285   2.251   3.954  10.638 -0.3528 -0.4228 -0.2662
 7697TIP3    H147286   2.240   4.034  10.690  1.1048 -0.4771  0.1829
 7697TIP3    H247287   2.288   3.985  10.555 -1.9070 -0.4223 -0.9835
 7698TIP3   OH247288   3.384   6.923  12.176  0.2877 -0.7319 -0.3367
 7698TIP3    H147289   3.423   7.006  12.148  0.1601 -0.5208  0.0946
 7698TIP3    H247290   3.403   6.918  12.270  1.1415 -1.6633 -0.5460
 7699TIP3   OH247291   6.924   0.379  11.176  0.4404  0.5358  0.0450
 7699TIP3    H147292   7.018   0.374  11.160  0.5382 -0.5382  0.8833
 7699TIP3    H247293   6.914   0.361  11.269 -0.6407  0.0960 -0.1364
 7700TIP3   OH247294   7.779   1.231  10.932  0.8189  0.3039  0.0138
 7700TIP3    H147295   7.806   1.322  10.943 -2.1294  1.3240 -0.4555
 7700TIP3    H247296   7.717   1.233  10.859  0.4568 -2.0605  0.1787
 7701TIP3   OH247297   3.646   5.427  10.938 -0.2384 -0.6068 -0.6968
 7701TIP3    H147298   3.666   5.376  11.017  0.7509 -0.4193 -0.8111
 7701TIP3    H247299   3.699   5.386  10.869 -0.4628 -0.2573 -1.0820
 7702TIP3   OH247300   0.144   7.318  12.303  0.0727  0.0929 -0.6042
 7702TIP3    H147301   0.238   7.297  12.309  0.5819  2.2680 -0.2861
 7702TIP3    H247302   0.132   7.348  12.213 -0.7336 -1.7494 -1.1709
 7703TIP3   OH247303   5.740   1.117  11.826 -0.3532  0.5267  0.0005
 7703TIP3    H147304   5.830   1.148  11.817 -0.2976  0.1192 -0.9418
 7703TIP3    H247305   5.690   1.164  11.760 -0.7858  0.5558  0.3377
 7704TIP3   OH247306   6.698   0.418  11.529 -0.2923  0.1882 -0.5379
 7704TIP3    H147307   6.725   0.326  11.527  0.0406  0.2089  1.2431
 7704TIP3    H247308   6.621   0.421  11.472  1.2759 -0.5938 -2.8322
 7705TIP3   OH247309   1.014   0.820  12.121 -0.8099  0.1965  0.3957
 7705TIP3    H147310   1.063   0.884  12.070  0.1441 -0.9090 -0.1092
 7705TIP3    H247311   0.930   0.812  12.075 -0.3740  0.0229 -0.3916
 7706TIP3   OH247312   7.950   7.237  10.723  0.4170 -0.1197  0.4261
 7706TIP3    H147313   7.946   7.326  10.688 -0.6766  0.2533  1.4580
 7706TIP3    H247314   8.022   7.196  10.674  0.8027  1.2502 -0.2153
 7707TIP3   OH247315   6.348   7.408  10.916 -0.2875  0.2201  0.4609
 7707TIP3    H147316   6.305   7.351  10.852 -0.4007  0.8489 -0.0302
 7707TIP3    H247317   6.425   7.359  10.944 -0.4959 -0.2612  0.1953
 7708TIP3   OH247318   1.585   3.900  10.977 -0.2087  0.0007 -0.0216
 7708TIP3    H147319   1.517   3.915  10.912 -1.6807  2.1376  1.8463
 7708TIP3    H247320   1.600   3.986  11.016  1.5987 -0.9463  1.5245
 7709TIP3   OH247321   6.453   0.588  11.667  0.7158  0.2346  0.1805
 7709TIP3    H147322   6.480   0.655  11.730  0.3439 -0.5969  1.2607
 7709TIP3    H247323   6.527   0.527  11.663  0.8207  0.3901 -0.3561
 7710TIP3   OH247324   3.333   1.623  11.136 -0.0060 -0.4728 -0.5831
 7710TIP3    H147325   3.382   1.543  11.153  2.3716  0.8885 -0.6246
 7710TIP3    H247326   3.362   1.651  11.049 -1.0448  0.2755 -0.7060
 7711TIP3   OH247327   3.484   0.314  12.291  0.0201  0.1735 -0.5833
 7711TIP3    H147328   3.509   0.223  12.272  1.8272  1.0012 -2.5880
 7711TIP3    H247329   3.529   0.335  12.373 -1.4984 -1.0921  0.6403
 7712TIP3   OH247330   6.090   0.368  12.205  0.3842  0.0902  0.1683
 7712TIP3    H147331   6.093   0.273  12.218  0.2292  0.0801  0.1356
 7712TIP3    H247332   6.006   0.394  12.243  0.2466  0.1590 -0.1779
 7713TIP3   OH247333   7.089   0.293  10.785  0.0068  0.0689 -0.3138
 7713TIP3    H147334   7.129   0.356  10.725  0.7798  0.4273  0.5574
 7713TIP3    H247335   7.019   0.342  10.828  1.1147  0.6195  0.9470
 7714TIP3   OH247336   2.663   6.427  11.544 -0.2068 -0.2809 -0.5510
 7714TIP3    H147337   2.624   6.430  11.631 -0.3564 -0.8761 -0.5936
 7714TIP3    H247338   2.589   6.415  11.484 -0.1828  0.9115 -0.8320
 7715TIP3   OH247339   5.212   2.770  12.160  0.0672 -0.4493  0.5541
 7715TIP3    H147340   5.280   2.760  12.093  1.0403 -0.2009  1.4810
 7715TIP3    H247341   5.147   2.702  12.138 -0.0140  0.1100 -1.0630
 7716TIP3   OH247342   3.373   3.140  12.304  0.0081 -0.3840 -0.5299
 7716TIP3    H147343   3.293   3.098  12.336 -0.8813  1.5631 -0.0494
 7716TIP3    H247344   3.442   3.076  12.321 -0.7250 -0.4019  3.3274
 7717TIP3   OH247345   5.140   1.254  12.101 -0.7034  0.2222 -0.0903
 7717TIP3    H147346   5.209   1.301  12.148  0.9143 -0.9431 -1.1941
 7717TIP3    H247347   5.074   1.237  12.168  0.7719  0.0255  1.4013
 7718TIP3   OH247348   3.059   3.028  11.846 -0.2092 -0.2504 -0.2767
 7718TIP3    H147349   3.077   3.065  11.933 -1.2212  2.3520 -1.0698
 7718TIP3    H247350   3.136   2.976  11.826  0.1485 -0.7471  2.0724
 7719TIP3   OH247351   6.639   5.845  12.682  0.0368  0.1396 -0.4902
 7719TIP3    H147352   6.580   5.843  12.606 -2.4053 -1.5033  1.3296
 7719TIP3    H247353   6.635   5.935  12.712  0.5435  0.6667 -1.8893
 7720TIP3   OH247354   7.132   7.505  12.063  0.3727 -0.7417  0.6291
 7720TIP3    H147355   7.108   7.587  12.020  1.7682 -0.9158 -0.5936
 7720TIP3    H247356   7.051   7.454  12.067 -0.4119  0.4955  0.9957
 7721TIP3   OH247357   1.165   4.242  10.854 -0.2294  0.1692  0.5369
 7721TIP3    H147358   1.209   4.236  10.939 -1.3625 -1.5939  1.0669
 7721TIP3    H247359   1.084   4.192  10.866 -0.7300  0.4412 -1.4030
 7722TIP3   OH247360   5.973   6.653  11.016  0.8639  0.3175 -0.7734
 7722TIP3    H147361   6.028   6.732  11.020 -0.2450  1.0924 -0.0847
 7722TIP3    H247362   6.031   6.582  11.040  1.2627  1.3001  1.4338
 7723TIP3   OH247363   7.761   2.840  12.316  0.4481 -0.3868  0.1797
 7723TIP3    H147364   7.709   2.918  12.296  1.3385  0.8278  2.2778
 7723TIP3    H247365   7.699   2.778  12.354 -0.5648 -1.3931 -2.8193
 7724TIP3   OH247366   6.625   0.842  11.321 -1.0034  0.2025 -0.5140
 7724TIP3    H147367   6.687   0.788  11.271 -1.3495  0.0924 -0.8346
 7724TIP3    H247368   6.553   0.782  11.342 -0.7029  0.1681  0.4145
 7725TIP3   OH247369   8.038   1.598  11.939  0.2036  0.3772  0.2065
 7725TIP3    H147370   8.109   1.572  11.881  1.3654  3.0538  0.2583
 7725TIP3    H247371   8.047   1.542  12.016  0.2989 -1.3835 -1.0413
 7726TIP3   OH247372   7.919   4.604  10.521 -0.4312  0.0853 -0.9863
 7726TIP3    H147373   7.843   4.569  10.566 -0.8598  2.9979  0.8256
 7726TIP3    H247374   7.885   4.673  10.464  0.6767  0.1360 -1.6301
 7727TIP3   OH247375   6.324   4.492  12.503 -0.3253  0.0934 -0.4420
 7727TIP3    H147376   6.289   4.500  12.592 -0.5071  0.5575 -0.5527
 7727TIP3    H247377   6.321   4.581  12.468  0.3426  0.0217 -0.6908
 7728TIP3   OH247378   4.447   1.374  11.059  0.3299 -0.6748 -0.1146
 7728TIP3    H147379   4.540   1.389  11.079  0.5056 -2.5743  0.8019
 7728TIP3    H247380   4.407   1.460  11.061  1.8885  0.0687  0.5249
 7729TIP3   OH247381   0.835   0.304  11.410  0.2583 -0.0625  0.1332
 7729TIP3    H147382   0.896   0.376  11.391  1.1993 -0.8980 -0.0896
 7729TIP3    H247383   0.806   0.274  11.324  0.3572 -0.3592  0.2035
 7730TIP3   OH247384   2.746   6.907  10.511 -0.2588 -0.0771 -0.1887
 7730TIP3    H147385   2.688   6.946  10.446 -0.9239 -0.9713 -0.1479
 7730TIP3    H247386   2.820   6.968  10.517 -0.4242  0.2693 -1.4174
 7731TIP3   OH247387   2.823   0.069  12.405  0.4427  0.3253 -0.1165
 7731TIP3    H147388   2.884   0.079  12.478  0.2944  0.0117  0.0555
 7731TIP3    H247389   2.816  -0.026  12.393 -0.0355  0.3587 -0.1119
 7732TIP3   OH247390   5.495   3.168  11.485 -0.1065  0.5537  0.3504
 7732TIP3    H147391   5.425   3.168  11.420 -0.4054  0.6468  0.6749
 7732TIP3    H247392   5.575   3.166  11.433 -0.3387 -2.2692 -0.0357
 7733TIP3   OH247393   8.155   5.236  10.592 -0.3587 -0.6584 -0.0198
 7733TIP3    H147394   8.081   5.223  10.652 -0.5922 -1.9035 -0.5457
 7733TIP3    H247395   8.157   5.156  10.539  0.4206  0.0155 -1.0429
 7734TIP3   OH247396   0.128   5.440  11.237  0.2908  0.0573 -0.2734
 7734TIP3    H147397   0.080   5.435  11.155  0.7825  3.8700 -0.9680
 7734TIP3    H247398   0.218   5.460  11.212  1.0276 -1.1318  1.1987
 7735TIP3   OH247399   0.436   8.231  10.804 -0.3118  0.3152 -0.0148
 7735TIP3    H147400   0.467   8.247  10.893  0.5809  0.4926 -0.3497
 7735TIP3    H247401   0.368   8.297  10.790 -2.0192 -1.0457  1.2692
 7736TIP3   OH247402   7.094   0.178  12.279  0.0346  0.3275 -0.2976
 7736TIP3    H147403   7.085   0.095  12.232 -1.5870 -0.4640  1.2998
 7736TIP3    H247404   7.010   0.191  12.322  0.7707  2.0368  0.7460
 7737TIP3   OH247405   6.898   3.767  10.517  0.0319  0.3002  0.4448
 7737TIP3    H147406   6.859   3.744  10.432  1.3288  0.0896 -0.1128
 7737TIP3    H247407   6.922   3.683  10.556 -0.0223  0.4325  0.7657
 7738TIP3   OH247408   4.301   0.728  11.166  0.6130  0.1914  0.6658
 7738TIP3    H147409   4.218   0.749  11.208  0.5231  0.1584  0.5032
 7738TIP3    H247410   4.291   0.638  11.134 -0.6644  1.3404 -2.6206
 7739TIP3   OH247411   4.238   0.145  11.619 -0.5422 -0.4182 -0.3641
 7739TIP3    H147412   4.200   0.083  11.682 -0.6564 -0.3166 -0.3324
 7739TIP3    H247413   4.220   0.106  11.533 -0.4540 -0.5188 -0.3373
 7740TIP3   OH247414   8.157   4.134  11.482 -0.1833  0.5157  0.0137
 7740TIP3    H147415   8.065   4.143  11.506 -0.1039 -1.5290  1.3871
 7740TIP3    H247416   8.161   4.053  11.431  0.7100  1.1555 -0.9760
 7741TIP3   OH247417   1.883   3.425  11.396  0.7212  0.1671  0.2176
 7741TIP3    H147418   1.951   3.426  11.328 -0.4863  1.6207 -1.0555
 7741TIP3    H247419   1.836   3.343  11.382  1.5413 -0.3460  0.4221
 7742TIP3   OH247420   3.499   3.943  11.747  0.2900 -0.1392 -0.4746
 7742TIP3    H147421   3.422   3.974  11.796 -0.8107 -2.7221 -0.4304
 7742TIP3    H247422   3.571   3.948  11.810  0.2342  2.2730 -0.4989
 7743TIP3   OH247423   5.165   8.374  10.439 -0.0283 -0.5541 -0.1439
 7743TIP3    H147424   5.240   8.427  10.466 -0.8862  0.0090  1.1872
 7743TIP3    H247425   5.203   8.307  10.382  1.4537 -0.1434  0.3210
 7744TIP3   OH247426   0.773   3.861  10.479  0.3563  0.3645 -0.8002
 7744TIP3    H147427   0.763   3.798  10.549  0.2884 -1.4141 -2.3348
 7744TIP3    H247428   0.686   3.899  10.468  0.1271 -0.0950 -0.5902
 7745TIP3   OH247429   5.326   7.365  11.417 -0.0077  0.5649 -0.9290
 7745TIP3    H147430   5.359   7.278  11.439  0.3450  1.0890  0.7740
 7745TIP3    H247431   5.232   7.354  11.408 -0.0343  0.1010 -0.1480
 7746TIP3   OH247432   1.668   1.044  11.737 -0.0504 -0.0730  0.2044
 7746TIP3    H147433   1.676   1.138  11.749 -1.6705  0.0053  0.8872
 7746TIP3    H247434   1.577   1.031  11.708  0.5795 -1.2928 -1.4019
 7747TIP3   OH247435   0.780   7.193  12.053 -0.3496 -0.1405 -0.4331
 7747TIP3    H147436   0.871   7.199  12.081 -0.5344 -1.3053  0.4973
 7747TIP3    H247437   0.732   7.246  12.116 -0.2074  1.6434 -1.7363
 7748TIP3   OH247438   2.426   8.433  12.699  0.5314  0.0469 -0.5288
 7748TIP3    H147439   2.382   8.506  12.655  0.1686 -1.0040 -1.9670
 7748TIP3    H247440   2.433   8.461  12.790 -2.7815  0.4416 -0.2869
 7749TIP3   OH247441   5.221   6.364  12.095  0.4341  0.5195  0.7129
 7749TIP3    H147442   5.194   6.330  12.180 -0.4609  0.5546  0.4566
 7749TIP3    H247443   5.167   6.442  12.083  1.1187  0.9524  0.4590
 7750TIP3   OH247444   6.545   0.597  10.532 -0.0174  0.2748  0.8082
 7750TIP3    H147445   6.484   0.563  10.598 -0.0748 -0.3639  0.4355
 7750TIP3    H247446   6.488   0.640  10.467 -0.0496 -0.0799  0.6013
 7751TIP3   OH247447   4.973   3.923  12.098 -0.3094 -0.3165 -0.2521
 7751TIP3    H147448   4.961   3.831  12.075 -1.5372  0.0831 -1.3222
 7751TIP3    H247449   4.963   3.970  12.015 -1.5489  0.9330  0.5688
 7752TIP3   OH247450   5.955   2.490  11.995  0.0438 -0.0335  0.3385
 7752TIP3    H147451   6.047   2.514  11.999 -0.2115  0.9344  0.5708
 7752TIP3    H247452   5.927   2.487  12.086 -0.4925  1.0431  0.2212
 7753TIP3   OH247453   4.678   5.783  11.103 -0.2665  0.0490  0.1006
 7753TIP3    H147454   4.586   5.793  11.128 -0.9196  0.2856 -2.2319
 7753TIP3    H247455   4.702   5.868  11.065  0.2347 -0.6935 -1.2985
 7754TIP3   OH247456   2.036   1.676  11.636  0.6552  0.1183  0.1338
 7754TIP3    H147457   1.989   1.727  11.570  0.2560 -0.8974 -0.3806
 7754TIP3    H247458   2.090   1.615  11.585  0.4779 -0.5553  0.7411
 7755TIP3   OH247459   3.520   5.555  11.756 -0.3003 -0.1654  0.4240
 7755TIP3    H147460   3.552   5.482  11.702 -0.0109  0.1388  0.1846
 7755TIP3    H247461   3.456   5.599  11.700  1.1112  1.0806 -0.2833
 7756TIP3   OH247462   5.018   2.043  11.100 -0.2109 -0.1027  0.6337
 7756TIP3    H147463   4.924   2.041  11.116 -0.6321  2.8631 -0.7893
 7756TIP3    H247464   5.052   2.104  11.166  0.0499  1.6707 -1.0250
 7757TIP3   OH247465   2.758   2.810  10.837 -0.2443 -0.0504  0.0393
 7757TIP3    H147466   2.734   2.831  10.746 -0.9965 -1.3659 -0.0862
 7757TIP3    H247467   2.843   2.767  10.830 -0.0818  0.2740  0.0079
 7758TIP3   OH247468   5.670   8.064  11.201 -0.0976 -0.4016  0.9448
 7758TIP3    H147469   5.609   8.132  11.229  0.0170  0.4634 -0.7412
 7758TIP3    H247470   5.614   7.991  11.176 -0.4505  0.2097 -0.1239
 7759TIP3   OH247471   5.962   7.952  10.422  0.1834 -0.3255  0.1466
 7759TIP3    H147472   6.056   7.939  10.429  0.0061 -2.5332 -0.6972
 7759TIP3    H247473   5.927   7.865  10.402 -1.8394  0.7255 -1.3104
 7760TIP3   OH247474   2.425   2.433  10.634 -0.2861 -0.4581  0.0045
 7760TIP3    H147475   2.495   2.369  10.629 -0.7041 -0.8799 -0.6478
 7760TIP3    H247476   2.450   2.491  10.706  0.9376 -0.3371 -0.5056
 7761TIP3   OH247477   1.141   4.488  12.513  1.1023 -0.3513 -0.1502
 7761TIP3    H147478   1.054   4.523  12.532  1.2240 -0.1936  0.1293
 7761TIP3    H247479   1.202   4.559  12.533  1.3326 -0.6349  0.1870
 7762TIP3   OH247480   3.190   3.301  12.484  0.2561  0.6687  0.1857
 7762TIP3    H147481   3.204   3.222  12.432 -1.4956 -1.0563  2.1349
 7762TIP3    H247482   3.117   3.345  12.440 -0.1746  0.0449  0.2531
 7763TIP3   OH247483   0.564   4.719  11.249  0.5855  0.1533 -0.4442
 7763TIP3    H147484   0.546   4.813  11.240  1.1693  0.2050 -1.1077
 7763TIP3    H247485   0.659   4.712  11.246  0.5557 -0.4341 -0.1177
 7764TIP3   OH247486   6.125   2.938  11.771  0.6120 -0.4249 -0.0243
 7764TIP3    H147487   6.084   2.865  11.725  1.3050 -0.6422 -0.3225
 7764TIP3    H247488   6.198   2.898  11.819  0.7311  0.0021  0.1579
 7765TIP3   OH247489   3.195   5.320  10.359 -0.4737 -0.3507 -0.6583
 7765TIP3    H147490   3.193   5.388  10.426  2.3645 -2.0091  1.3482
 7765TIP3    H247491   3.115   5.269  10.374 -1.4494  1.1230 -0.6637
 7766TIP3   OH247492   7.202   3.618  11.843  0.1854  0.4177 -0.4573
 7766TIP3    H147493   7.204   3.714  11.842 -2.3429  0.5584 -1.5481
 7766TIP3    H247494   7.255   3.592  11.768 -0.0601  1.0405 -0.8546
 7767TIP3   OH247495   5.413   6.929  10.730  0.1048  0.3475 -0.2140
 7767TIP3    H147496   5.469   6.991  10.777  1.0288  1.8705 -3.0455
 7767TIP3    H247497   5.439   6.939  10.638 -0.9265 -3.0674 -1.0204
 7768TIP3   OH247498   0.290   8.007  10.860 -0.3789 -0.6937 -0.3817
 7768TIP3    H147499   0.337   8.079  10.818 -0.9437  0.5072  0.9397
 7768TIP3    H247500   0.349   7.976  10.928 -0.6080 -0.6997 -0.1862
 7769TIP3   OH247501   4.864   1.323  10.562 -0.5871  0.5194 -0.8909
 7769TIP3    H147502   4.933   1.256  10.564 -0.3654  0.7213  2.1972
 7769TIP3    H247503   4.786   1.278  10.593 -0.6856  1.4133  0.2124
 7770TIP3   OH247504   5.393   1.985  11.355  0.2022 -0.1665 -0.4478
 7770TIP3    H147505   5.300   1.975  11.374  0.0394  0.1308 -1.0895
 7770TIP3    H247506   5.422   1.897  11.332  0.2598 -0.4102  0.5201
 7771TIP3   OH247507   0.187   7.530  10.532  0.3284  0.0904  0.3271
 7771TIP3    H147508   0.146   7.443  10.530 -2.6725  1.3761 -0.2264
 7771TIP3    H247509   0.186   7.558  10.440  1.5215  0.6383  0.4661
 7772TIP3   OH247510   6.469   6.168  12.651  0.0102 -0.0768  0.1426
 7772TIP3    H147511   6.416   6.113  12.594 -0.8665 -0.2812  1.1394
 7772TIP3    H247512   6.546   6.191  12.598  0.7859 -2.8519 -0.0605
 7773TIP3   OH247513   1.427   5.789  11.385  0.5690 -0.1645  0.7030
 7773TIP3    H147514   1.460   5.703  11.413  0.0230 -0.2329  1.1385
 7773TIP3    H247515   1.498   5.825  11.332  0.9639 -0.7145  0.8476
 7774TIP3   OH247516   0.077   5.051  11.118 -0.3113 -0.1417 -0.4939
 7774TIP3    H147517   0.049   4.975  11.168 -2.5016  0.2927 -0.9469
 7774TIP3    H247518   0.138   5.016  11.053  0.0792 -1.2059  0.4127
 7775TIP3   OH247519   3.603   3.796  11.547 -0.0154  0.6004 -0.1207
 7775TIP3    H147520   3.632   3.723  11.600  0.1907  0.6068 -0.2257
 7775TIP3    H247521   3.552   3.851  11.607 -0.5425  0.1450 -0.1509
 7776TIP3   OH247522   4.911   4.000  11.295  0.4760  0.3035  0.4543
 7776TIP3    H147523   4.835   4.025  11.348  1.2100  0.5123  1.4456
 7776TIP3    H247524   4.983   3.997  11.358  0.9184 -1.9033 -0.0723
 7777TIP3   OH247525   6.681   0.157  11.859  0.2632  0.0284 -0.0782
 7777TIP3    H147526   6.594   0.157  11.898  0.6533  0.1491  0.8370
 7777TIP3    H247527   6.698   0.065  11.838 -0.4428  0.1212 -1.1373
 7778TIP3   OH247528   3.097   1.239  12.452  0.0764  0.6461 -0.0537
 7778TIP3    H147529   3.062   1.169  12.397 -0.2820  0.2089  0.7082
 7778TIP3    H247530   3.027   1.258  12.514  1.4811 -1.0224  2.2210
 7779TIP3   OH247531   0.478   4.290  11.444  0.2370  0.1848  0.2599
 7779TIP3    H147532   0.509   4.306  11.355 -1.6345  0.1806 -0.4498
 7779TIP3    H247533   0.513   4.205  11.467  0.9783  0.3120 -0.3643
 7780TIP3   OH247534   2.074   3.150  11.975 -0.2665 -0.1380 -0.2652
 7780TIP3    H147535   2.123   3.165  11.894 -0.6539 -0.9268 -0.6589
 7780TIP3    H247536   2.050   3.057  11.971  0.6567 -0.4667  1.2832
 7781TIP3   OH247537   3.463   5.132  12.415  0.2096 -0.1795  0.0105
 7781TIP3    H147538   3.398   5.201  12.432  0.6451  0.3660 -0.4995
 7781TIP3    H247539   3.513   5.164  12.340  0.4370 -1.0483 -0.2200
 7782TIP3   OH247540   5.895   0.152  11.566 -0.4266 -0.1926 -0.9825
 7782TIP3    H147541   5.814   0.135  11.615  1.5167 -0.4662  2.4441
 7782TIP3    H247542   5.925   0.065  11.539 -0.8821 -0.1607 -1.6028
 7783TIP3   OH247543   7.807   5.493  12.004  0.0961 -0.3466 -0.7407
 7783TIP3    H147544   7.875   5.536  12.056 -0.8727  0.2942  0.0126
 7783TIP3    H247545   7.795   5.550  11.928 -2.0609  1.5026  0.8494
 7784TIP3   OH247546   6.763   2.438  11.460  0.2234 -0.1074 -0.4833
 7784TIP3    H147547   6.730   2.510  11.406 -1.8193 -0.3540  0.3489
 7784TIP3    H247548   6.858   2.442  11.449  0.3250  3.4770  0.4557
 7785TIP3   OH247549   2.698   4.828  11.389 -0.4947  0.0798 -0.7491
 7785TIP3    H147550   2.720   4.783  11.308  0.1329 -0.7652 -0.1377
 7785TIP3    H247551   2.678   4.758  11.451  1.2984  0.5358  0.4632
 7786TIP3   OH247552   1.966   3.397  12.041 -0.4659  0.0147  0.2613
 7786TIP3    H147553   1.983   3.303  12.037 -0.0187  0.1159 -0.3197
 7786TIP3    H247554   1.940   3.412  12.132 -0.6679 -0.6877  0.3297
 7787TIP3   OH247555   2.687   6.319  12.729  0.0912  0.4128  0.1692
 7787TIP3    H147556   2.713   6.353  12.814 -0.5129  0.2002  0.4464
 7787TIP3    H247557   2.727   6.232  12.725 -0.2803  0.2276  0.4441
 7788TIP3   OH247558   7.981   3.084  12.054  0.7108  0.0822  0.2963
 7788TIP3    H147559   8.006   3.088  11.962 -0.2101  0.9110  0.0648
 7788TIP3    H247560   8.057   3.120  12.101  1.1319 -0.2214 -0.1395
 7789TIP3   OH247561   4.434   5.336  10.687 -0.3433 -0.6980  0.0582
 7789TIP3    H147562   4.357   5.339  10.630 -2.1652  2.1710  2.3749
 7789TIP3    H247563   4.398   5.323  10.774  2.1501 -2.5704  0.9065
 7790TIP3   OH247564   4.447   1.476  12.306 -0.0581 -0.5686 -0.3115
 7790TIP3    H147565   4.502   1.404  12.334 -0.5426  0.1140  2.7000
 7790TIP3    H247566   4.490   1.510  12.227  2.1711 -1.8574  0.2785
 7791TIP3   OH247567   2.005   2.790  12.223 -0.7291 -0.0425  0.2663
 7791TIP3    H147568   1.977   2.806  12.313 -1.1048  1.2489 -0.0508
 7791TIP3    H247569   2.101   2.797  12.226 -0.7310 -0.1611  0.5915
 7792TIP3   OH247570   2.059   6.064  11.962  0.3690 -0.2195 -0.2157
 7792TIP3    H147571   2.058   6.050  12.057  0.6480  0.1404 -0.1595
 7792TIP3    H247572   1.967   6.057  11.936 -0.2627  3.2776  0.6126
 7793TIP3   OH247573   7.090   6.713  11.601 -0.2082  0.4505  0.5442
 7793TIP3    H147574   7.035   6.676  11.670  0.6190  0.0340  1.0032
 7793TIP3    H247575   7.138   6.784  11.645  0.9538 -0.3669  0.6451
 7794TIP3   OH247576   3.637   6.865  11.627  1.1005 -0.0559 -0.0149
 7794TIP3    H147577   3.727   6.860  11.659  0.2052  2.8968  3.7418
 7794TIP3    H247578   3.606   6.951  11.655 -3.1315 -1.1821 -0.4328
 7795TIP3   OH247579   1.440   2.614  12.594  0.6599 -0.3226 -0.0892
 7795TIP3    H147580   1.363   2.558  12.588  1.0534 -1.1193  1.8102
 7795TIP3    H247581   1.443   2.659  12.509 -2.1127  0.0451 -0.1025
 7796TIP3   OH247582   4.515   2.175  11.671  0.3874  0.7993  0.0986
 7796TIP3    H147583   4.480   2.264  11.671 -0.8721  0.3650 -1.4228
 7796TIP3    H247584   4.573   2.171  11.747  1.0968  3.1505 -0.2329
 7797TIP3   OH247585   7.721   0.440  11.237 -0.1746  0.1154 -0.0940
 7797TIP3    H147586   7.690   0.529  11.254 -0.6938 -0.3906  1.8435
 7797TIP3    H247587   7.702   0.392  11.318  1.1494 -1.4768 -0.6706
 7798TIP3   OH247588   4.358   0.487  10.745  0.1971 -0.0675  0.0060
 7798TIP3    H147589   4.358   0.557  10.679 -0.7074  0.3685  0.4517
 7798TIP3    H247590   4.287   0.510  10.804 -1.2816 -2.2494 -0.7867
 7799TIP3   OH247591   6.430   5.513  11.933 -0.1961  0.2184  0.3057
 7799TIP3    H147592   6.485   5.589  11.949 -0.5336  0.1981  1.7145
 7799TIP3    H247593   6.488   5.450  11.890 -0.2489  1.7055 -2.1250
 7800TIP3   OH247594   5.649   7.130  12.367 -0.0264  0.2760 -0.3843
 7800TIP3    H147595   5.624   7.192  12.298 -1.2545 -0.1877 -0.3817
 7800TIP3    H247596   5.597   7.157  12.443  0.1519 -0.1620 -0.1037
 7801TIP3   OH247597   6.540   3.621  10.717  0.6785  0.6459  0.0239
 7801TIP3    H147598   6.493   3.701  10.690  2.3262  1.7211  0.1532
 7801TIP3    H247599   6.585   3.646  10.797  4.2207  0.8650 -1.8460
 7802TIP3   OH247600   4.331   6.363  10.484 -0.2343  0.5150  0.1795
 7802TIP3    H147601   4.332   6.326  10.572 -0.1321  2.4602  1.0652
 7802TIP3    H247602   4.247   6.408  10.478 -0.7466 -0.5666 -1.1856
 7803TIP3   OH247603   4.456   0.885  12.358  0.0532  0.2095  0.6412
 7803TIP3    H147604   4.497   0.803  12.330  0.6653  1.1806 -1.5662
 7803TIP3    H247605   4.497   0.904  12.442 -0.0564 -1.6967  1.1680
 7804TIP3   OH247606   0.543   7.250  11.351  0.0044  0.0734 -0.5515
 7804TIP3    H147607   0.623   7.303  11.350  0.0714  0.0362  0.7002
 7804TIP3    H247608   0.552   7.192  11.275  1.6137 -0.5597  0.0663
 7805TIP3   OH247609   2.224   0.626  10.220  0.3388 -0.3982 -1.0199
 7805TIP3    H147610   2.140   0.669  10.236  0.9398  0.7203 -0.7849
 7805TIP3    H247611   2.211   0.536  10.250 -0.1529  0.2853  0.9756
 7806TIP3   OH247612   1.014   8.206  10.605 -0.3050 -0.7189 -0.3080
 7806TIP3    H147613   0.984   8.262  10.677 -0.4330  0.2427 -1.0986
 7806TIP3    H247614   1.001   8.259  10.526 -2.2920 -2.5594 -1.3080
 7807TIP3   OH247615   2.070   6.660  10.582 -0.0678  0.4918 -0.1219
 7807TIP3    H147616   2.087   6.575  10.623 -2.4054 -1.0143 -1.9963
 7807TIP3    H247617   1.988   6.689  10.621  1.2560  2.5704  1.3340
 7808TIP3   OH247618   1.860   5.709  11.047 -0.9986  0.3501  0.4073
 7808TIP3    H147619   1.902   5.755  11.120 -1.1513  0.3719  0.4819
 7808TIP3    H247620   1.824   5.629  11.085  0.4123 -0.5008  0.0259
 7809TIP3   OH247621   2.160   6.388  12.105 -0.1250 -0.0596  0.5379
 7809TIP3    H147622   2.140   6.338  12.184  1.7100 -0.6000  0.6952
 7809TIP3    H247623   2.192   6.473  12.138  1.4014 -0.5651  0.4502
 7810TIP3   OH247624   4.960   7.804  12.484  0.2564 -0.1977 -0.4650
 7810TIP3    H147625   4.917   7.719  12.497 -2.0778  0.7196 -1.5756
 7810TIP3    H247626   4.961   7.844  12.571 -0.3175 -0.6255 -0.2548
 7811TIP3   OH247627   1.272   1.935  11.302  0.4909 -0.1095 -0.4091
 7811TIP3    H147628   1.287   1.973  11.389 -0.6087  0.8133 -0.5916
 7811TIP3    H247629   1.315   1.997  11.243  1.3075 -0.7799 -0.5340
 7812TIP3   OH247630   2.226   6.432  11.839  0.1577  0.3831  0.0472
 7812TIP3    H147631   2.225   6.383  11.921 -3.6421  1.2404  0.6724
 7812TIP3    H247632   2.248   6.521  11.865  2.7460 -0.0136 -0.5069
 7813TIP3   OH247633   2.407   1.801  10.418 -0.4102 -0.1087 -0.0225
 7813TIP3    H147634   2.453   1.857  10.356 -0.2151  1.4458  1.4669
 7813TIP3    H247635   2.460   1.803  10.497 -0.9342 -1.6197  0.4090
 7814TIP3   OH247636   5.757   2.892  12.586 -0.1420  0.6499  0.0613
 7814TIP3    H147637   5.840   2.922  12.549 -1.1244  1.6816 -1.4402
 7814TIP3    H247638   5.743   2.806  12.546  0.8511 -0.1808  1.4255
 7815TIP3   OH247639   2.926   0.008  11.472  0.0122  0.8274  1.1257
 7815TIP3    H147640   2.983  -0.024  11.403 -0.8439 -0.1229  0.8255
 7815TIP3    H247641   2.857  -0.059  11.479 -1.7157  2.4819  0.6690
 7816TIP3   OH247642   6.346   6.050  11.071  0.2310  0.3726 -0.1393
 7816TIP3    H147643   6.346   5.966  11.025  2.3537  0.2509 -0.0198
 7816TIP3    H247644   6.435   6.083  11.060 -0.3362  2.2292  0.5242
 7817TIP3   OH247645   1.010   0.893  10.673  0.5211  0.4943  0.1238
 7817TIP3    H147646   1.016   0.977  10.628  4.0239  1.7572  2.4950
 7817TIP3    H247647   0.989   0.916  10.764 -2.0070 -1.5951  0.1933
 7818TIP3   OH247648   7.066   7.493  12.941 -0.2683 -0.6097 -0.2569
 7818TIP3    H147649   7.086   7.401  12.922 -0.5252 -1.0347  1.3590
 7818TIP3    H247650   6.980   7.491  12.982  0.9393 -0.0327  2.5006
 7819TIP3   OH247651   3.598   8.447  12.312  0.0761  0.5716  0.4659
 7819TIP3    H147652   3.528   8.411  12.367 -0.7156  0.5750 -0.5106
 7819TIP3    H247653   3.560   8.450  12.224  1.9987 -1.5205 -0.5523
 7820TIP3   OH247654   7.402   0.970  13.051 -1.1576  0.3508  1.1195
 7820TIP3    H147655   7.407   0.878  13.079 -3.1052 -0.0275  0.4361
 7820TIP3    H247656   7.371   0.965  12.960  1.3222  1.6382  0.1115
 7821TIP3   OH247657   2.717   4.422  12.254  0.8040 -0.1220  0.8305
 7821TIP3    H147658   2.667   4.489  12.301 -0.0079  0.6051 -0.9322
 7821TIP3    H247659   2.718   4.347  12.312  0.3158  0.8874  2.2020
 7822TIP3   OH247660   1.609   2.340  11.315 -0.0187 -0.5168  0.3895
 7822TIP3    H147661   1.605   2.426  11.357 -0.7294 -0.3701  0.0406
 7822TIP3    H247662   1.550   2.347  11.240 -0.8958 -1.6183  0.9362
 7823TIP3   OH247663   0.534   4.249  12.114 -0.0397  0.6555 -0.6619
 7823TIP3    H147664   0.441   4.269  12.114 -0.2630 -0.2140 -2.3412
 7823TIP3    H247665   0.540   4.159  12.146  0.3076  0.9325  0.0866
 7824TIP3   OH247666   4.879   0.580  12.631  0.0113  0.1458  0.0974
 7824TIP3    H147667   4.825   0.543  12.561  1.5381  1.9215 -2.1573
 7824TIP3    H247668   4.900   0.505  12.687 -1.1270 -1.3865 -1.4232
 7825TIP3   OH247669   4.371   6.301  10.743 -0.6496 -0.1904 -0.3537
 7825TIP3    H147670   4.324   6.289  10.825  0.1390 -1.7993 -0.1066
 7825TIP3    H247671   4.455   6.256  10.756 -0.2860  0.0030 -1.8459
 7826TIP3   OH247672   6.017   6.561  11.967  0.3246 -0.0033 -0.5540
 7826TIP3    H147673   6.070   6.639  11.954 -0.3510  0.7034  0.7293
 7826TIP3    H247674   6.033   6.537  12.059 -0.2104 -0.8209 -0.6648
 7827TIP3   OH247675   1.927   3.876  10.601 -0.1640  0.2546 -0.1028
 7827TIP3    H147676   1.956   3.828  10.524  1.2171  1.1572 -0.1956
 7827TIP3    H247677   2.002   3.871  10.661 -0.4042  1.3372  0.3103
 7828TIP3   OH247678   3.564   8.134  12.019 -0.0420  0.3146  0.0913
 7828TIP3    H147679   3.648   8.110  12.057  0.3321  1.5829  0.0967
 7828TIP3    H247680   3.565   8.230  12.017 -0.7234  0.3078 -1.6388
 7829TIP3   OH247681   0.543   5.014  10.820 -0.2705  0.5565  0.5655
 7829TIP3    H147682   0.559   4.939  10.762 -2.8272  1.1941 -1.1547
 7829TIP3    H247683   0.606   5.080  10.793  2.1837 -0.9016  2.2601
 7830TIP3   OH247684   0.125   2.307  11.661 -0.0476 -0.5053 -0.1139
 7830TIP3    H147685   0.134   2.349  11.575  0.6697  0.9671  0.6512
 7830TIP3    H247686   0.187   2.353  11.717 -0.4684 -1.4817  1.2026
 7831TIP3   OH247687   4.276   0.707  10.589  0.0737 -0.1977 -0.0702
 7831TIP3    H147688   4.223   0.783  10.613  0.3563 -0.0436  0.0666
 7831TIP3    H247689   4.214   0.634  10.589  0.3279 -0.5370  2.8438
 7832TIP3   OH247690   5.836   6.585  12.741 -0.1389 -0.0897 -0.2354
 7832TIP3    H147691   5.880   6.624  12.817 -0.5465 -1.2625  0.6325
 7832TIP3    H247692   5.794   6.659  12.698  0.3877  0.6547  0.4949
 7833TIP3   OH247693   5.454   1.770  11.167  0.4845  0.5339  0.3942
 7833TIP3    H147694   5.533   1.822  11.176  1.1198 -0.3436  0.0118
 7833TIP3    H247695   5.485   1.681  11.149 -0.5764  0.0794  0.7015
 7834TIP3   OH247696   2.844   1.659  10.461  0.2963 -0.2246  0.1002
 7834TIP3    H147697   2.881   1.710  10.532 -0.5446  0.2190  0.2374
 7834TIP3    H247698   2.774   1.608  10.502 -1.8314  1.7987 -0.7510
 7835TIP3   OH247699   4.627   4.399  12.214 -0.2746  0.7190  0.0533
 7835TIP3    H147700   4.670   4.358  12.138  0.2048  1.1095  0.1099
 7835TIP3    H247701   4.583   4.476  12.177 -2.4456 -0.6123 -0.3303
 7836TIP3   OH247702   1.891   0.427  10.795  0.0643  0.0511  0.5771
 7836TIP3    H147703   1.861   0.510  10.831  2.4576  0.9809  0.6151
 7836TIP3    H247704   1.831   0.409  10.722 -1.1749  1.1950  1.2709
 7837TIP3   OH247705   2.713   0.806  10.619  0.0414 -0.2906  0.3397
 7837TIP3    H147706   2.704   0.713  10.601  0.0373 -0.0178 -1.1753
 7837TIP3    H247707   2.797   0.830  10.581 -0.2163  0.4297  0.2109
 7838TIP3   OH247708   6.565   0.426  10.886  0.0730 -0.1767  0.9949
 7838TIP3    H147709   6.548   0.378  10.967 -1.0784  0.0623  0.8994
 7838TIP3    H247710   6.497   0.492  10.881 -0.6840 -1.0171 -0.8163
 7839TIP3   OH247711   6.627   6.768  11.295  0.6504 -0.3250  0.2559
 7839TIP3    H147712   6.688   6.721  11.352 -0.8911 -2.9852 -0.1197
 7839TIP3    H247713   6.542   6.755  11.336 -0.2757 -0.8858 -1.7442
 7840TIP3   OH247714   4.165   6.796  11.174  0.0379 -0.1021 -0.4821
 7840TIP3    H147715   4.141   6.888  11.167  1.2287  0.1900 -1.0634
 7840TIP3    H247716   4.095   6.749  11.129  0.0232  0.6159 -1.2256
 7841TIP3   OH247717   4.172   5.934  11.637  0.2453  0.1369  0.1239
 7841TIP3    H147718   4.223   6.010  11.607  0.9099 -0.8792 -1.4254
 7841TIP3    H247719   4.233   5.885  11.693  1.0149 -1.0168 -1.6354
 7842TIP3   OH247720   3.159   3.463  11.705  0.0837 -0.1555 -0.2501
 7842TIP3    H147721   3.131   3.493  11.792  2.8937  0.7821  0.4482
 7842TIP3    H247722   3.182   3.371  11.717  2.6404  0.5247  0.6904
 7843TIP3   OH247723   3.399   4.655  11.844  0.4316 -0.0639  0.4501
 7843TIP3    H147724   3.427   4.746  11.845 -0.5491  0.2556  0.6061
 7843TIP3    H247725   3.326   4.652  11.906 -1.5874 -0.2496 -1.7807
 7844TIP3   OH247726   5.628   7.811  12.163  0.3900  0.4159 -0.3829
 7844TIP3    H147727   5.540   7.774  12.160  0.2412  0.5521  1.4256
 7844TIP3    H247728   5.685   7.741  12.133 -0.1259 -0.4601  0.6305
 7845TIP3   OH247729   8.277   7.961  10.455  0.4059 -0.2736  0.2874
 7845TIP3    H147730   8.359   7.915  10.469  1.1533  1.4448  2.0727
 7845TIP3    H247731   8.300   8.054  10.458 -1.3245  0.2647 -1.1876
 7846TIP3   OH247732   3.400   0.631  11.707  0.3472 -0.1741 -0.1570
 7846TIP3    H147733   3.475   0.626  11.648  0.8330  2.6866  0.1009
 7846TIP3    H247734   3.437   0.651  11.792 -0.6631  0.6420  0.1123
 7847TIP3   OH247735   6.030   5.971  11.131 -0.2119 -0.3522  0.2494
 7847TIP3    H147736   5.981   5.918  11.194 -1.4800  0.9644  0.4353
 7847TIP3    H247737   6.106   5.917  11.108 -0.6185 -1.5685  1.5945
 7848TIP3   OH247738   0.669   8.331  10.599 -0.0379 -0.0775  0.7969
 7848TIP3    H147739   0.611   8.260  10.629 -0.3433  0.2225  0.9228
 7848TIP3    H247740   0.734   8.340  10.668 -0.3805  0.1990  1.0885
 7849TIP3   OH247741   4.929   4.322  12.422  0.3355  0.4933  0.3606
 7849TIP3    H147742   5.013   4.360  12.397 -0.3830  1.1414 -1.2053
 7849TIP3    H247743   4.942   4.228  12.411  1.3727  0.4042  1.9071
 7850TIP3   OH247744   1.435   6.025  10.825 -0.5673  0.0275  0.4261
 7850TIP3    H147745   1.372   6.027  10.753  0.3751  2.3558 -0.4427
 7850TIP3    H247746   1.505   5.968  10.794 -1.3758 -1.0822  0.6161
 7851TIP3   OH247747   8.273   0.007  11.287 -0.0607  0.4908 -0.1827
 7851TIP3    H147748   8.204   0.014  11.354  1.5226 -1.4966  1.8226
 7851TIP3    H247749   8.244  -0.065  11.231 -0.8138  1.3712 -0.9568
 7852TIP3   OH247750   3.508   7.381  12.013 -0.3791 -0.2672 -0.9555
 7852TIP3    H147751   3.563   7.407  11.939  0.9899  2.2009  0.7568
 7852TIP3    H247752   3.423   7.422  11.995 -0.8467 -1.6941 -2.2332
 7853TIP3   OH247753   2.147   3.916  12.455 -0.6457  0.1388 -0.3211
 7853TIP3    H147754   2.185   3.865  12.384 -0.0970  2.0445 -1.4697
 7853TIP3    H247755   2.215   3.981  12.477  0.1191 -1.6110  3.4347
 7854TIP3   OH247756   4.511   1.098  13.139  0.0777  0.0583  0.2303
 7854TIP3    H147757   4.441   1.033  13.142  0.3558 -0.5080 -2.6858
 7854TIP3    H247758   4.515   1.125  13.048  2.3374  1.5721  0.6903
 7855TIP3   OH247759   6.983   3.493  11.741 -0.1651 -0.0211 -0.5109
 7855TIP3    H147760   7.065   3.529  11.775  0.2605 -1.4434  0.0440
 7855TIP3    H247761   6.917   3.523  11.804 -0.1717  1.5402 -1.2286
 7856TIP3   OH247762   7.076   5.804  10.546 -1.0227 -0.1340 -0.8825
 7856TIP3    H147763   7.163   5.830  10.518 -1.0383  0.3083 -0.5252
 7856TIP3    H247764   7.083   5.795  10.641 -1.6594  1.0462 -0.7077
 7857TIP3   OH247765   1.035   1.163  12.284 -0.5061 -0.0516 -0.4322
 7857TIP3    H147766   1.009   1.079  12.321 -0.8331 -0.3782 -1.3776
 7857TIP3    H247767   1.113   1.143  12.231 -0.2767  0.3354 -0.2484
 7858TIP3   OH247768   8.158   4.266  11.171 -0.3072 -0.1029  0.3443
 7858TIP3    H147769   8.089   4.261  11.237 -0.3751 -0.9212  0.2293
 7858TIP3    H247770   8.124   4.324  11.103 -1.0489 -0.7936  0.1125
 7859TIP3   OH247771   1.792   3.554  11.639 -0.2692 -0.1591 -0.0898
 7859TIP3    H147772   1.842   3.516  11.567 -0.0499 -0.1278  0.0472
 7859TIP3    H247773   1.762   3.478  11.690 -2.0432 -0.3231 -1.2632
 7860TIP3   OH247774   0.663   1.501  11.645 -0.0308 -0.0715  0.4123
 7860TIP3    H147775   0.660   1.451  11.563  1.3807 -0.5820  0.6489
 7860TIP3    H247776   0.712   1.446  11.705  0.5942  1.1139  1.0222
 7861TIP3   OH247777   8.318   4.364  11.488  0.3522  0.1068 -0.1236
 7861TIP3    H147778   8.277   4.277  11.483 -2.4915  1.3805 -0.7113
 7861TIP3    H247779   8.411   4.347  11.473 -0.0968 -2.8239 -0.2386
 7862TIP3   OH247780   7.602   1.279  10.722  0.0875 -0.2391  0.3133
 7862TIP3    H147781   7.536   1.213  10.703 -0.1159  0.2800 -0.8833
 7862TIP3    H247782   7.574   1.356  10.673  2.6419 -0.6150 -2.0043
 7863TIP3   OH247783   2.147   5.603  10.741  1.3465  0.2574  0.3858
 7863TIP3    H147784   2.075   5.560  10.786  0.6198  1.2929  0.2373
 7863TIP3    H247785   2.225   5.581  10.793  0.7564  0.0923  1.2128
 7864TIP3   OH247786   2.939   5.321  11.496 -0.0993 -0.4570 -0.2220
 7864TIP3    H147787   2.856   5.287  11.527  0.0588  0.2188  1.0101
 7864TIP3    H247788   2.923   5.414  11.479  0.2300 -0.4670 -0.6076
 7865TIP3   OH247789   7.661   6.152  11.654 -0.5083 -0.5058  0.8201
 7865TIP3    H147790   7.598   6.127  11.721 -1.3498 -0.3184  0.1137
 7865TIP3    H247791   7.638   6.099  11.578 -1.5510  1.4487 -0.3076
 7866TIP3   OH247792   0.583   0.552  11.583 -0.1680  0.0125  0.0066
 7866TIP3    H147793   0.506   0.587  11.538  0.1776  1.2854  0.3663
 7866TIP3    H247794   0.610   0.623  11.642  1.1417 -0.5058  0.0508
 7867TIP3   OH247795   6.861   8.183  12.102 -0.8403  0.3210 -0.1442
 7867TIP3    H147796   6.873   8.234  12.021  0.9480  2.0943  1.1433
 7867TIP3    H247797   6.868   8.248  12.172  0.4952 -1.5407  1.5479
 7868TIP3   OH247798   4.384   3.272  11.487 -0.1528  0.1357 -0.2304
 7868TIP3    H147799   4.328   3.196  11.498 -1.1443  1.0226  1.2095
 7868TIP3    H247800   4.462   3.253  11.540  0.1541 -0.3700 -0.8521
 7869TIP3   OH247801   3.811   7.940  11.146  0.3035 -0.2164 -0.4497
 7869TIP3    H147802   3.776   7.851  11.149  1.9148 -0.8670  0.4116
 7869TIP3    H247803   3.786   7.978  11.230  0.5190 -0.2271 -0.3799
 7870TIP3   OH247804   4.738   4.754  11.674 -0.5147 -0.0796 -0.0999
 7870TIP3    H147805   4.751   4.829  11.616  1.8447 -0.2987  0.0464
 7870TIP3    H247806   4.716   4.681  11.615 -0.4076  0.1924 -0.4800
 7871TIP3   OH247807   1.696   3.308  11.693  0.1541 -0.0793 -0.2057
 7871TIP3    H147808   1.717   3.226  11.648 -0.1139 -0.0403 -0.4009
 7871TIP3    H247809   1.663   3.281  11.778  0.8188 -0.1490  0.0363
 7872TIP3   OH247810   4.435   8.121  11.702  0.1011  0.2158 -0.0645
 7872TIP3    H147811   4.472   8.050  11.755 -2.5177 -3.1395 -2.2668
 7872TIP3    H247812   4.506   8.147  11.644  0.7092 -2.0329 -0.4411
 7873TIP3   OH247813   8.177   5.282  11.560 -0.9927 -0.0603 -0.8519
 7873TIP3    H147814   8.197   5.250  11.472 -0.6606 -1.2617 -0.3479
 7873TIP3    H247815   8.253   5.335  11.584 -0.1945 -1.3079 -0.5437
 7874TIP3   OH247816   2.330   1.718  12.604 -0.6537 -0.1019  0.0545
 7874TIP3    H147817   2.339   1.764  12.521 -0.3107  0.8238  0.5854
 7874TIP3    H247818   2.369   1.777  12.669 -1.3276 -0.5891  0.9374
 7875TIP3   OH247819   1.577   8.179  11.493 -0.0213  0.3196 -0.3277
 7875TIP3    H147820   1.518   8.232  11.438 -1.9498 -2.4718 -1.2033
 7875TIP3    H247821   1.575   8.221  11.578 -0.7984  2.0831 -1.1666
 7876TIP3   OH247822   5.028   6.705  11.405  0.0736  0.0355 -0.0540
 7876TIP3    H147823   5.063   6.794  11.396 -1.1115  0.4433 -0.8721
 7876TIP3    H247824   4.945   6.717  11.452 -0.9586 -0.4159 -1.6973
 7877TIP3   OH247825   0.202   2.574  11.463  0.2858 -0.2298 -0.7383
 7877TIP3    H147826   0.275   2.630  11.489 -0.8897  1.2961 -0.6120
 7877TIP3    H247827   0.234   2.531  11.383  2.1999 -1.4760  0.6025
 7878TIP3   OH247828   2.720   4.241  10.219  0.3659 -0.0472 -0.1198
 7878TIP3    H147829   2.758   4.156  10.198  1.0711  0.1674  0.2597
 7878TIP3    H247830   2.627   4.223  10.232  0.4654 -0.7124 -0.3087
 7879TIP3   OH247831   1.145   5.626  12.061  0.3375 -0.1165 -0.7963
 7879TIP3    H147832   1.078   5.591  12.119  1.4445 -1.3933 -0.2322
 7879TIP3    H247833   1.112   5.712  12.035 -0.4859  0.2283  1.2162
 7880TIP3   OH247834   1.509   7.836  11.025  0.5458 -0.6375  0.4181
 7880TIP3    H147835   1.532   7.804  11.112 -0.1765 -1.3293  0.3656
 7880TIP3    H247836   1.460   7.916  11.042  2.0402  0.2890  0.5626
 7881TIP3   OH247837   6.931   1.035  12.275  0.2974  0.0946  0.1113
 7881TIP3    H147838   6.860   1.058  12.215  0.5489  1.3277  0.2456
 7881TIP3    H247839   6.908   1.078  12.358 -0.6219 -2.5278  1.2979
 7882TIP3   OH247840   7.788   5.743  12.532  0.3784  0.8604  0.5251
 7882TIP3    H147841   7.853   5.780  12.592  0.8295 -1.3663  1.4963
 7882TIP3    H247842   7.743   5.819  12.496  2.7318  2.4395  0.6979
 7883TIP3   OH247843   2.783   6.214  11.913 -0.4811  0.0207 -0.4122
 7883TIP3    H147844   2.747   6.196  11.826  0.7669  0.4386 -1.0331
 7883TIP3    H247845   2.755   6.304  11.932  0.1334  0.3162 -0.8591
 7884TIP3   OH247846   5.686   8.110  12.226 -0.7019  0.0952  0.0568
 7884TIP3    H147847   5.618   8.092  12.290 -0.1002 -0.7269  0.4847
 7884TIP3    H247848   5.716   8.024  12.197  3.1099  0.0812  3.0730
 7885TIP3   OH247849   6.398   0.626  12.202 -0.2517  0.3322  0.1104
 7885TIP3    H147850   6.355   0.572  12.269  1.6977 -0.3471  0.9068
 7885TIP3    H247851   6.374   0.585  12.119  0.4343 -1.2872  0.6465
 7886TIP3   OH247852   0.661   7.226  10.578  0.7988 -0.5616  0.2449
 7886TIP3    H147853   0.736   7.183  10.535  1.7849  0.4513  0.8913
 7886TIP3    H247854   0.673   7.319  10.559 -1.3147 -0.5231 -1.1531
 7887TIP3   OH247855   5.381   0.837  10.716  0.3139 -0.2007 -0.1526
 7887TIP3    H147856   5.313   0.809  10.655 -0.4054 -1.2909  1.0899
 7887TIP3    H247857   5.342   0.824  10.803  2.3595 -1.7004  0.6417
 7888TIP3   OH247858   1.482   0.467  11.697 -0.4232  0.2707 -0.2640
 7888TIP3    H147859   1.499   0.423  11.614  0.3622 -1.3296  0.6723
 7888TIP3    H247860   1.454   0.396  11.756  2.9876  0.4810  1.9184
 7889TIP3   OH247861   3.931   5.243  12.452  0.1844  0.4365  0.1404
 7889TIP3    H147862   3.995   5.269  12.386  0.3945 -0.5377 -0.0583
 7889TIP3    H247863   3.934   5.312  12.517  0.8034  0.8420 -0.3084
 7890TIP3   OH247864   4.465   7.710  11.639 -0.3908  0.3137  0.3515
 7890TIP3    H147865   4.426   7.623  11.649 -0.5955  0.3645  0.0012
 7890TIP3    H247866   4.498   7.712  11.550  1.9690 -0.3402  1.1359
 7891TIP3   OH247867   3.278   0.204  12.014  0.2469  0.6740 -0.4749
 7891TIP3    H147868   3.186   0.206  12.039  0.5304 -0.4278  0.7837
 7891TIP3    H247869   3.291   0.284  11.963 -1.7687  0.0446 -2.1167
 7892TIP3   OH247870   5.381   1.066  11.930  0.0675 -0.0612 -0.6279
 7892TIP3    H147871   5.317   1.103  11.868 -0.0563  1.9072  0.5822
 7892TIP3    H247872   5.363   1.112  12.012  2.1730 -0.4350  0.0854
 7893TIP3   OH247873   7.969   5.957  12.269 -0.7160  0.4358  0.3879
 7893TIP3    H147874   7.958   5.991  12.180  0.3219 -0.7080 -0.1949
 7893TIP3    H247875   8.061   5.973  12.289 -0.7964  0.1103  1.0198
 7894TIP3   OH247876   5.774   4.173  10.934 -0.4568  0.2604  0.3405
 7894TIP3    H147877   5.751   4.170  10.841 -3.8530  1.1425  1.0281
 7894TIP3    H247878   5.770   4.082  10.964  1.0851 -0.0867 -0.3778
 7895TIP3   OH247879   5.660   0.277  12.289  0.1486 -0.0089  0.3464
 7895TIP3    H147880   5.721   0.349  12.272 -1.3071  1.1103 -0.3373
 7895TIP3    H247881   5.628   0.292  12.378  1.5727 -1.1789  1.1045
 7896TIP3   OH247882   5.993   6.225  11.263  0.5303 -0.0561 -0.2601
 7896TIP3    H147883   5.899   6.221  11.245  0.1642 -0.9138  1.6343
 7896TIP3    H247884   6.031   6.154  11.210  0.1493  0.3777 -1.1310
 7897TIP3   OH247885   1.767   5.699  11.400  0.3355 -0.2573  0.7985
 7897TIP3    H147886   1.722   5.774  11.361 -0.5796 -0.8961  0.5879
 7897TIP3    H247887   1.726   5.623  11.358  2.4621 -0.8558 -0.3541
 7898TIP3   OH247888   7.906   4.724  12.483 -0.5784 -0.6658 -0.3520
 7898TIP3    H147889   7.876   4.648  12.432 -0.0560 -0.7424 -0.5497
 7898TIP3    H247890   7.839   4.735  12.550 -0.3604 -1.6860  0.0557
 7899TIP3   OH247891   5.165   0.218  11.372  0.5814 -0.4524 -0.2406
 7899TIP3    H147892   5.084   0.170  11.385  0.8796 -0.6713  0.9397
 7899TIP3    H247893   5.140   0.310  11.383  0.5204 -0.5329  0.3647
 7900TIP3   OH247894   3.039   5.591  11.577  0.2562 -0.1299  0.2578
 7900TIP3    H147895   3.094   5.669  11.581 -0.7999  0.6040  2.9723
 7900TIP3    H247896   2.955   5.619  11.614 -1.1531 -1.8538 -1.4014
 7901TIP3   OH247897   2.994   5.211  10.691 -0.1138  0.6134 -0.1961
 7901TIP3    H147898   3.043   5.263  10.755 -0.5100  0.5909  0.1295
 7901TIP3    H247899   3.011   5.120  10.717  0.0497  0.5931 -0.3706
 7902TIP3   OH247900   4.145   1.225  11.401  0.3199 -0.0605 -0.1929
 7902TIP3    H147901   4.198   1.176  11.464  1.1149 -0.1996 -0.9568
 7902TIP3    H247902   4.187   1.209  11.316 -1.4995 -0.9849 -0.9734
 7903TIP3   OH247903   7.346   1.898  12.765  0.4470  0.7314 -0.4591
 7903TIP3    H147904   7.346   1.818  12.818  1.4044  0.0363 -1.4608
 7903TIP3    H247905   7.257   1.903  12.729  0.5762 -0.2805 -0.9540
 7904TIP3   OH247906   6.754   0.915  10.350  0.5205  0.3667  0.0971
 7904TIP3    H147907   6.674   0.926  10.299 -0.1776 -0.7763  0.8954
 7904TIP3    H247908   6.730   0.943  10.438  0.0718 -2.6471  1.0445
 7905TIP3   OH247909   5.522   2.546  12.170  0.3968  0.0120 -0.3159
 7905TIP3    H147910   5.515   2.505  12.256 -0.7671 -0.0165 -0.4094
 7905TIP3    H247911   5.493   2.478  12.109 -0.4542  0.5807 -0.5694
 7906TIP3   OH247912   1.789   6.276  10.942 -0.5003 -0.2213  0.5302
 7906TIP3    H147913   1.744   6.260  10.859  2.2763 -0.1778 -1.1052
 7906TIP3    H247914   1.742   6.348  10.983 -1.7630 -0.0620 -1.1449
 7907TIP3   OH247915   3.769   3.622  15.526  0.0520  0.2807 -0.2696
 7907TIP3    H147916   3.824   3.555  15.566 -0.3451  1.1519  1.9469
 7907TIP3    H247917   3.713   3.653  15.598 -1.7573  1.0026 -1.8899
 7908TIP3   OH247918   1.020   5.534  11.058 -0.0336 -0.4099 -0.2041
 7908TIP3    H147919   0.985   5.539  11.147 -1.1795 -2.2349 -0.5117
 7908TIP3    H247920   0.962   5.591  11.006 -1.3905 -1.8542 -0.3393
 7909TIP3   OH247921   5.450   5.916  12.094  0.3625  0.1776  0.2218
 7909TIP3    H147922   5.459   5.940  12.186 -0.9722  0.3091  0.3494
 7909TIP3    H247923   5.355   5.919  12.078  0.4643 -1.1052 -0.8119
 7910TIP3   OH247924   5.719   6.217  11.230  0.1487  0.4182  0.2880
 7910TIP3    H147925   5.722   6.233  11.325  1.3690  0.3609  0.2760
 7910TIP3    H247926   5.628   6.194  11.213 -0.3370  1.4961  1.2681
 7911TIP3   OH247927   7.220   7.765  11.032 -0.3568  0.2126 -0.1078
 7911TIP3    H147928   7.235   7.683  10.984 -0.5896  0.5554 -0.7860
 7911TIP3    H247929   7.126   7.764  11.051 -0.8953  1.4899 -2.3824
 7912TIP3   OH247930   0.150   0.654  10.904  0.6022 -0.1996 -0.0557
 7912TIP3    H147931   0.167   0.585  10.968  2.7526 -0.5660 -0.8963
 7912TIP3    H247932   0.185   0.733  10.944 -0.2777  0.0623  0.2034
 7913TIP3   OH247933   4.867   1.821  11.432 -0.4595  0.1236  0.4242
 7913TIP3    H147934   4.812   1.808  11.509 -0.3242  0.6245  0.6047
 7913TIP3    H247935   4.816   1.877  11.374  0.5104  1.9800  1.3006
 7914TIP3   OH247936   4.215   2.144  11.855 -0.4608 -0.1511  0.1918
 7914TIP3    H147937   4.234   2.225  11.809 -1.3791  0.2165  0.4501
 7914TIP3    H247938   4.204   2.079  11.786  3.0813 -0.7754 -0.0125
 7915TIP3   OH247939   5.287   4.478  11.496  0.4440 -0.1212  0.2775
 7915TIP3    H147940   5.227   4.425  11.547  0.3222  0.3718  0.6574
 7915TIP3    H247941   5.317   4.421  11.425  1.2669 -1.0859  1.3716
 7916TIP3   OH247942   0.419   1.439  10.509 -0.1623  0.6578  0.5584
 7916TIP3    H147943   0.480   1.381  10.463  1.6285  1.5418  1.7275
 7916TIP3    H247944   0.439   1.427  10.602 -0.5574  2.2908  0.8819
 7917TIP3   OH247945   1.321   3.251  10.753  0.8493 -0.0894  0.5488
 7917TIP3    H147946   1.387   3.254  10.822  0.8464  0.2899  0.5408
 7917TIP3    H247947   1.299   3.343  10.737  2.5726  0.0198 -1.6402
 7918TIP3   OH247948   2.207   0.270  10.293 -0.0987  0.4088 -0.3218
 7918TIP3    H147949   2.203   0.179  10.323  0.7779  0.1294 -1.0383
 7918TIP3    H247950   2.300   0.291  10.293 -0.3823  2.0884  2.0733
 7919TIP3   OH247951   3.129   1.440  11.983 -0.1550 -0.5470 -0.7395
 7919TIP3    H147952   3.179   1.442  11.901  1.2803  0.3609  0.1211
 7919TIP3    H247953   3.067   1.367  11.972  1.4704 -1.8240 -1.7830
 7920TIP3   OH247954   2.917   4.098  11.932 -0.5474 -0.2792 -0.3975
 7920TIP3    H147955   2.969   4.086  12.012 -0.1059 -1.3282 -0.8247
 7920TIP3    H247956   2.884   4.188  11.938  0.3768  0.0202  0.4385
 7921TIP3   OH247957   3.715   5.803  10.666  0.0347 -0.0709 -0.4414
 7921TIP3    H147958   3.673   5.718  10.682  0.1015 -0.1744 -0.8151
 7921TIP3    H247959   3.801   5.795  10.708  0.6408 -0.7316 -1.7283
 7922TIP3   OH247960   6.856   6.895  11.926  0.5469 -0.3476  0.1426
 7922TIP3    H147961   6.854   6.811  11.882 -0.1446  0.8823 -2.3677
 7922TIP3    H247962   6.885   6.957  11.859 -0.9491  1.7157  1.2801
 7923TIP3   OH247963   2.644   1.590  10.630 -0.6434  0.1747  0.2757
 7923TIP3    H147964   2.696   1.549  10.699 -1.4714 -0.4273  0.5617
 7923TIP3    H247965   2.607   1.516  10.581 -0.4673  0.5924 -0.5141
 7924TIP3   OH247966   1.849   5.943  12.178  0.0473 -0.5481  0.1577
 7924TIP3    H147967   1.779   5.982  12.230  1.3562 -0.1694  1.7093
 7924TIP3    H247968   1.819   5.952  12.087 -1.8435 -0.3155  0.7544
 7925TIP3   OH247969   4.848   0.389  11.812  0.0270 -0.0560  0.0366
 7925TIP3    H147970   4.928   0.368  11.860 -1.0671  0.2822  2.0996
 7925TIP3    H247971   4.867   0.472  11.769  0.6075  0.3301  1.0045
 7926TIP3   OH247972   8.396   7.211  12.156  0.2211  0.6141 -0.0443
 7926TIP3    H147973   8.345   7.136  12.188  1.5523  0.0245  0.7947
 7926TIP3    H247974   8.453   7.234  12.229  1.3666  1.0427 -1.0344
 7927TIP3   OH247975   3.744   1.898  10.480  0.1545  0.5326 -0.8430
 7927TIP3    H147976   3.816   1.882  10.420 -0.6408 -1.1185 -1.3940
 7927TIP3    H247977   3.754   1.990  10.505  1.0952  0.9737 -2.6956
 7928TIP3   OH247978   1.981   6.031  10.718 -0.0987  0.0758 -0.1767
 7928TIP3    H147979   2.005   6.112  10.673  0.3791 -0.2963 -0.5981
 7928TIP3    H247980   2.037   6.029  10.795 -1.3441  1.0218  0.7931
 7929TIP3   OH247981   8.094   6.071  10.515  0.5613  0.1578 -0.4037
 7929TIP3    H147982   8.129   6.095  10.601 -2.3949  1.1132  0.6605
 7929TIP3    H247983   8.140   5.990  10.492  0.4949 -0.9287  2.7823
 7930TIP3   OH247984   5.276   6.163  12.747 -0.2826 -0.5697  0.0143
 7930TIP3    H147985   5.352   6.188  12.800  0.0453 -0.6050 -0.4385
 7930TIP3    H247986   5.311   6.148  12.660 -0.7497 -0.9533 -0.1131
 7931TIP3   OH247987   2.366   6.698  11.786 -0.1692 -0.0318  0.0822
 7931TIP3    H147988   2.456   6.697  11.755  0.5232 -0.5940  1.9662
 7931TIP3    H247989   2.373   6.697  11.881 -2.1777 -0.4905  0.2799
 7932TIP3   OH247990   1.232   5.080  10.817 -0.6657  0.0557 -0.4541
 7932TIP3    H147991   1.245   5.060  10.909 -0.1027  1.0669 -0.3017
 7932TIP3    H247992   1.294   5.022  10.772 -1.3170 -0.8184 -0.2457
 7933TIP3   OH247993   2.504   3.228  10.865  0.0196  0.2364 -0.1386
 7933TIP3    H147994   2.530   3.163  10.801 -0.7595 -0.7746  0.5512
 7933TIP3    H247995   2.555   3.306  10.842  1.2147 -0.7066 -0.7639
 7934TIP3   OH247996   4.476   6.619  11.740  0.1615  0.0208  0.1839
 7934TIP3    H147997   4.419   6.668  11.799 -1.1732 -0.8507 -0.3550
 7934TIP3    H247998   4.424   6.545  11.711  0.9930  0.0746 -1.6015
 7935TIP3   OH247999   7.894   0.409  12.075  0.6263  0.3331 -0.1891
 7935TIP3    H148000   7.831   0.337  12.076  1.3867 -0.3417  0.5407
 7935TIP3    H248001   7.915   0.424  12.167  2.3568 -0.2272 -0.4434
 7936TIP3   OH248002   0.323   2.248  11.007  0.1553 -0.4516 -0.2727
 7936TIP3    H148003   0.305   2.185  11.076  1.7380  0.4833  1.0554
 7936TIP3    H248004   0.263   2.224  10.936  0.6060 -3.3216  0.2233
 7937TIP3   OH248005   6.843   0.677  10.510 -0.3030 -0.5936 -0.0463
 7937TIP3    H148006   6.816   0.724  10.431 -0.6289 -1.9552 -0.7725
 7937TIP3    H248007   6.767   0.623  10.533 -1.0110  1.2582  2.4266
 7938TIP3   OH248008   2.221   3.341  12.165  0.2635  0.2725 -0.2560
 7938TIP3    H148009   2.197   3.268  12.108  0.5587  0.7232 -0.9735
 7938TIP3    H248010   2.306   3.370  12.133  0.3604  0.6364  0.3150
 7939TIP3   OH248011   4.586   6.053  12.238  0.3356 -0.2722 -0.3576
 7939TIP3    H148012   4.664   6.004  12.211 -0.9156 -1.3965 -2.1842
 7939TIP3    H248013   4.532   5.988  12.283 -0.1442  0.1465 -0.3270
 7940TIP3   OH248014   1.911   5.380  12.171 -0.1501  0.2182 -0.5525
 7940TIP3    H148015   1.953   5.433  12.239 -2.1506 -0.9568  1.7380
 7940TIP3    H248016   1.830   5.425  12.151  0.0541  0.1384 -1.6422
 7941TIP3   OH248017   3.987   6.076  11.034 -0.1174 -0.0820 -0.4060
 7941TIP3    H148018   3.949   6.026  10.962  0.4033 -0.9010 -0.1362
 7941TIP3    H248019   4.080   6.080  11.013 -0.2376  1.3237 -0.7265
 7942TIP3   OH248020   0.799   6.606  11.719  0.2353 -0.8098  0.2819
 7942TIP3    H148021   0.726   6.566  11.767  1.3296 -3.1121  0.1118
 7942TIP3    H248022   0.787   6.577  11.628  1.7917 -1.9380  0.4025
 7943TIP3   OH248023   4.143   0.585  11.668 -0.5747 -0.0989  0.0365
 7943TIP3    H148024   4.206   0.593  11.740 -0.2287  0.2400 -0.2954
 7943TIP3    H248025   4.093   0.506  11.688  0.0178 -0.4234  0.2618
 7944TIP3   OH248026   3.239   4.760  11.248 -0.3383  0.5091  0.4091
 7944TIP3    H148027   3.221   4.792  11.159  2.0135 -0.8611 -0.6403
 7944TIP3    H248028   3.261   4.839  11.297 -1.0261  1.2124 -0.3624
 7945TIP3   OH248029   4.258   2.009  11.284 -0.0055  0.0798 -0.4329
 7945TIP3    H148030   4.174   1.963  11.287 -0.5308  1.0022 -0.5911
 7945TIP3    H248031   4.295   1.987  11.198 -0.2277 -0.0893 -0.4853
 7946TIP3   OH248032   3.553   1.455  12.255 -0.1675 -0.0607 -0.2129
 7946TIP3    H148033   3.464   1.490  12.260 -0.0899  0.3889 -1.5988
 7946TIP3    H248034   3.541   1.361  12.242 -0.4416 -0.0144 -0.2989
 7947TIP3   OH248035   1.220   1.109  10.649 -0.0477 -0.4474 -0.0908
 7947TIP3    H148036   1.184   1.197  10.634  0.1225 -0.6730 -2.0035
 7947TIP3    H248037   1.253   1.113  10.739  0.1307  1.5135 -0.1852
 7948TIP3   OH248038   0.648   2.646  12.052  0.0976 -0.3754 -0.3090
 7948TIP3    H148039   0.718   2.695  12.093 -1.9931  1.6480  1.1006
 7948TIP3    H248040   0.569   2.672  12.100 -1.7094 -2.1001 -2.1429
 7949TIP3   OH248041   3.547   0.479  12.520  0.5778  0.7273 -0.0620
 7949TIP3    H148042   3.625   0.440  12.560  1.8557  1.8175 -1.3930
 7949TIP3    H248043   3.546   0.569  12.553 -0.7490  0.4446  0.7611
 7950TIP3   OH248044   6.303   2.256  12.100  0.5381 -0.0859  0.3419
 7950TIP3    H148045   6.320   2.349  12.084  2.0065 -0.2987  0.5025
 7950TIP3    H248046   6.296   2.217  12.012 -1.2128  0.3285  0.2599
 7951TIP3   OH248047   4.323   1.116  11.568  0.0337  0.5626 -0.1571
 7951TIP3    H148048   4.382   1.173  11.617 -0.9866  0.9010  0.7277
 7951TIP3    H248049   4.377   1.042  11.541  0.9721  1.1059  0.1945
 7952TIP3   OH248050   2.614   2.634  11.372 -0.2014  0.1940 -0.7327
 7952TIP3    H148051   2.699   2.607  11.336 -1.8461 -1.2893 -3.9095
 7952TIP3    H248052   2.607   2.727  11.349 -0.8528 -0.5238 -3.8738
 7953TIP3   OH248053   0.165   7.381  11.677 -0.0161 -0.3034 -0.1221
 7953TIP3    H148054   0.091   7.428  11.637  1.9999  0.9094 -2.7805
 7953TIP3    H248055   0.191   7.317  11.611  1.5458 -0.3838  0.5313
 7954TIP3   OH248056   0.326   6.884  11.415 -0.4011 -0.1885  0.2605
 7954TIP3    H148057   0.327   6.813  11.479  1.2305 -0.1809  0.2743
 7954TIP3    H248058   0.412   6.881  11.374  0.7359  3.2669  1.9697
 7955TIP3   OH248059   7.868   7.375  10.953 -0.2620  0.3492 -0.1265
 7955TIP3    H148060   7.905   7.463  10.938  0.7474  0.0209  0.3312
 7955TIP3    H248061   7.881   7.330  10.870 -1.1245  0.7348 -0.4853
 7956TIP3   OH248062   8.136   6.714  11.551  0.4810  0.2843  0.4448
 7956TIP3    H148063   8.116   6.636  11.601  0.5502 -0.3017 -0.4166
 7956TIP3    H248064   8.187   6.682  11.476 -2.4000  0.6049 -1.8508
 7957TIP3   OH248065   4.714   0.560  12.011  0.8110  0.5453  0.2244
 7957TIP3    H148066   4.690   0.608  11.932  2.8621  1.3448  0.0392
 7957TIP3    H248067   4.719   0.468  11.983  1.4417  0.8114 -0.5715
 7958TIP3   OH248068   3.972   0.233  12.790  0.2922 -0.3741 -0.3019
 7958TIP3    H148069   4.058   0.194  12.776  0.6210 -0.0584  0.7641
 7958TIP3    H248070   3.912   0.158  12.795  0.7070 -0.6680  0.3087
 7959TIP3   OH248071   4.921   1.107  12.543 -0.6029  0.3433  0.0928
 7959TIP3    H148072   5.012   1.134  12.531 -1.0003  1.0451 -1.5660
 7959TIP3    H248073   4.919   1.015  12.517 -0.4568  0.4534 -0.3094
 7960TIP3   OH248074   7.979   4.930  11.953 -0.6054  0.6000  0.0280
 7960TIP3    H148075   8.017   4.851  11.991 -0.9136 -0.0253 -0.9169
 7960TIP3    H248076   8.053   4.990  11.943  0.3484 -0.8323 -2.3705
 7961TIP3   OH248077   7.696   4.307  11.992 -0.2262 -0.0248  0.2625
 7961TIP3    H148078   7.734   4.226  11.958 -0.4448  0.0586 -0.1906
 7961TIP3    H248079   7.715   4.305  12.086 -0.2795 -0.6249  0.2644
 7962TIP3   OH248080   8.181   7.030  11.515 -0.0107  0.5786 -0.0928
 7962TIP3    H148081   8.196   6.940  11.487  0.1745  0.8901 -1.0016
 7962TIP3    H248082   8.124   7.021  11.592  1.6342 -0.4085  1.0653
 7963TIP3   OH248083   5.583   6.869  12.207 -0.1387 -0.4420 -0.0928
 7963TIP3    H148084   5.631   6.940  12.248  0.3206 -0.9639  0.2953
 7963TIP3    H248085   5.651   6.813  12.169 -0.5660  0.5229 -2.4689
 7964TIP3   OH248086   7.299   7.790  11.691 -0.0912  0.0623 -0.2397
 7964TIP3    H148087   7.261   7.723  11.634  1.7416  0.2374 -1.7715
 7964TIP3    H248088   7.394   7.782  11.677  0.3764  0.6607  2.2189
 7965TIP3   OH248089   4.250   3.416  12.228 -0.2314  0.0716 -0.1817
 7965TIP3    H148090   4.287   3.421  12.316  0.6090  0.3928 -0.5413
 7965TIP3    H248091   4.295   3.341  12.188 -0.4524  0.0612 -0.4090
 7966TIP3   OH248092   1.568   2.900  11.466 -0.6153 -0.1173  0.0339
 7966TIP3    H148093   1.478   2.869  11.458 -0.7535  0.4502 -0.7113
 7966TIP3    H248094   1.564   2.991  11.438 -0.0302  0.2957  1.2044
 7967TIP3   OH248095   5.423   7.983  11.829 -0.4321  0.3190 -0.3129
 7967TIP3    H148096   5.464   7.898  11.816  0.1283  0.6838 -1.0492
 7967TIP3    H248097   5.418   8.021  11.741  1.2485  1.8975  0.1860
 7968TIP3   OH248098   0.118   5.596  11.846  0.1480  0.2157  0.2239
 7968TIP3    H148099   0.202   5.551  11.848  0.1490  0.2381  0.9739
 7968TIP3    H248100   0.098   5.613  11.938 -0.0770  1.3376 -0.0176
 7969TIP3   OH248101   6.337   7.042  10.921  0.1386  0.0068  0.4881
 7969TIP3    H148102   6.408   7.033  10.984  2.5722  0.7407 -1.9297
 7969TIP3    H248103   6.337   6.959  10.873 -1.0380 -0.1914  0.8171
 7970TIP3   OH248104   0.718   2.364  10.911  0.2852 -0.4284 -0.6415
 7970TIP3    H148105   0.709   2.302  10.983 -1.1248  0.5367  0.0792
 7970TIP3    H248106   0.639   2.351  10.859  0.5650 -0.0756 -1.1534
 7971TIP3   OH248107   2.627   3.899  11.652 -0.1784  0.3327 -0.0150
 7971TIP3    H148108   2.651   3.850  11.731 -0.0071 -0.4680 -0.5471
 7971TIP3    H248109   2.531   3.899  11.653 -0.1782  0.1370  0.0807
 7972TIP3   OH248110   6.603   7.577  10.405  0.1642 -0.0754  0.2136
 7972TIP3    H148111   6.613   7.530  10.322  0.2216  0.8379 -0.3141
 7972TIP3    H248112   6.526   7.632  10.392 -0.1845 -0.3597  0.9930
 7973TIP3   OH248113   2.533   5.792  11.803  0.4128 -0.3877 -0.5657
 7973TIP3    H148114   2.541   5.732  11.729  1.0048 -0.9143 -0.0866
 7973TIP3    H248115   2.439   5.809  11.811  0.2713 -0.9719 -0.9291
 7974TIP3   OH248116   4.466   1.183  12.115  0.3807 -0.2974 -0.1838
 7974TIP3    H148117   4.529   1.217  12.179  0.7110 -0.6145 -0.3357
 7974TIP3    H248118   4.418   1.116  12.163 -0.6186  0.7122  0.2693
 7975TIP3   OH248119   1.197   3.078  11.934  0.2334 -0.0060 -0.4788
 7975TIP3    H148120   1.162   3.168  11.936 -0.3328 -0.2269  1.1774
 7975TIP3    H248121   1.119   3.023  11.933  0.4876 -0.4860  1.4753
 7976TIP3   OH248122   5.058   4.252  10.437 -0.2956 -0.0274  0.2161
 7976TIP3    H148123   5.045   4.164  10.400  1.0313  0.1775 -0.8358
 7976TIP3    H248124   4.972   4.293  10.431 -0.0206  0.3691 -3.8564
 7977TIP3   OH248125   4.407   4.469  10.802 -0.3459 -0.7447 -0.4293
 7977TIP3    H148126   4.347   4.536  10.835 -0.7484 -1.2263 -0.1827
 7977TIP3    H248127   4.494   4.502  10.825 -0.6109 -1.1037  1.2310
 7978TIP3   OH248128   6.097   3.996  11.068  0.2242  0.3072  0.7184
 7978TIP3    H148129   6.137   4.054  11.133  0.5071  0.0807  0.7473
 7978TIP3    H248130   6.143   4.016  10.987  1.5201 -1.0648  1.0652
 7979TIP3   OH248131   2.738   6.610  11.280 -0.1938  0.3682 -0.3289
 7979TIP3    H148132   2.819   6.569  11.248 -0.4561  0.1024 -0.6586
 7979TIP3    H248133   2.678   6.537  11.292 -1.1864  0.7743 -2.4293
 7980TIP3   OH248134   8.242   8.319  11.845  0.7122 -0.2174 -0.7774
 7980TIP3    H148135   8.190   8.238  11.844  3.0944 -1.8798 -0.7144
 7980TIP3    H248136   8.179   8.389  11.833 -1.7082 -1.9611  0.8577
 7981TIP3   OH248137   2.911   6.203  10.787 -0.3389 -0.0264 -0.0986
 7981TIP3    H148138   2.946   6.271  10.729 -0.8900  1.2217  0.9771
 7981TIP3    H248139   2.817   6.204  10.770 -0.5521  0.5868  1.0192
 7982TIP3   OH248140   8.389   3.146  11.616  0.3011 -0.2391 -0.1057
 7982TIP3    H148141   8.423   3.179  11.533 -0.3191 -1.4160 -0.8570
 7982TIP3    H248142   8.463   3.099  11.656  0.8984  1.1651  0.5159
 7983TIP3   OH248143   4.785   6.193  10.577 -0.6434  0.2601  0.4777
 7983TIP3    H148144   4.734   6.231  10.506 -0.3437 -0.2500 -0.0220
 7983TIP3    H248145   4.863   6.248  10.583 -0.6234  0.2479  0.3432
 7984TIP3   OH248146   0.044   4.542  11.205 -0.1521  0.2141  0.0818
 7984TIP3    H148147   0.087   4.532  11.290 -3.2941  1.9664  2.0722
 7984TIP3    H248148   0.008   4.455  11.187  1.2563 -0.3924  0.0577
 7985TIP3   OH248149   0.159   7.687  11.714  0.2548 -0.0521  0.0550
 7985TIP3    H148150   0.225   7.671  11.782  0.1751 -0.0523  0.1326
 7985TIP3    H248151   0.145   7.601  11.675 -1.8296 -0.6845  1.9776
 7986TIP3   OH248152   2.587   2.114  10.596  0.0554 -0.6942 -0.4567
 7986TIP3    H148153   2.500   2.084  10.623  0.1099 -0.3613  0.0911
 7986TIP3    H248154   2.641   2.035  10.598 -0.2569 -0.9259 -0.9123
 7987TIP3   OH248155   2.604   6.659  12.770  0.8335  0.3642 -0.0792
 7987TIP3    H148156   2.509   6.653  12.778  0.7543  1.5414 -0.0684
 7987TIP3    H248157   2.634   6.568  12.776 -0.1538  0.1237  1.6586
 7988TIP3   OH248158   3.110   0.284  11.129 -0.0486 -0.0415  0.0734
 7988TIP3    H148159   3.134   0.287  11.221  0.3930 -0.8066 -0.0071
 7988TIP3    H248160   3.021   0.247  11.128  0.1609 -0.5561  0.1646
 7989TIP3   OH248161   4.549   3.597  12.891  0.0283  0.4369  0.1887
 7989TIP3    H148162   4.569   3.668  12.829  0.1123 -0.2478 -0.5906
 7989TIP3    H248163   4.600   3.618  12.969  1.8646  0.0419 -0.8558
 7990TIP3   OH248164   3.977   0.059  11.327 -0.4800  0.4930  0.0630
 7990TIP3    H148165   4.071   0.070  11.335 -0.3110  0.1858 -1.3734
 7990TIP3    H248166   3.965   0.005  11.249 -1.7584 -1.0823  1.2895
 7991TIP3   OH248167   4.586   7.228  12.471 -0.7596  0.4310 -0.7293
 7991TIP3    H148168   4.638   7.147  12.461  0.7852  1.1169  1.0850
 7991TIP3    H248169   4.564   7.231  12.564 -0.9298  2.0044 -0.7918
 7992TIP3   OH248170   6.845   7.781  12.133  0.6791  0.1481  0.2867
 7992TIP3    H148171   6.863   7.687  12.129  1.1204  0.2596 -0.4519
 7992TIP3    H248172   6.858   7.804  12.225  3.3090 -0.0088  0.0312
 7993TIP3   OH248173   3.556   8.407  10.449 -0.1091  0.0309  0.2391
 7993TIP3    H148174   3.488   8.373  10.507  0.6102 -1.1735  0.4253
 7993TIP3    H248175   3.579   8.332  10.393  0.7304  0.5469 -0.1188
 7994TIP3   OH248176   6.625   6.580  12.864  0.2442 -0.5746  0.5765
 7994TIP3    H148177   6.703   6.597  12.811 -1.0603 -1.2339 -1.7416
 7994TIP3    H248178   6.599   6.666  12.896  1.5932 -0.2762  0.9341
 7995TIP3   OH248179   1.873   2.464  12.596  0.0753 -0.4170 -0.3082
 7995TIP3    H148180   1.847   2.461  12.504 -0.1108  0.7950 -0.3125
 7995TIP3    H248181   1.797   2.501  12.642  0.1690 -1.0001  0.3303
 7996TIP3   OH248182   2.048   6.692  12.079 -0.0290 -0.0157  0.0489
 7996TIP3    H148183   1.953   6.680  12.086  0.1096 -0.7493  0.7708
 7996TIP3    H248184   2.068   6.674  11.988 -0.7486  1.3675 -0.4116
 7997TIP3   OH248185   7.762   0.177  12.043 -0.1197 -0.5806 -0.5682
 7997TIP3    H148186   7.810   0.096  12.057  2.2735  0.9374  0.5368
 7997TIP3    H248187   7.774   0.196  11.950  2.4530  0.3045 -0.1282
 7998TIP3   OH248188   0.464   1.272  11.646  0.0052 -0.0852 -0.0123
 7998TIP3    H148189   0.469   1.197  11.706 -1.9556  0.4088  0.8273
 7998TIP3    H248190   0.473   1.348  11.703  0.8204  0.3587 -0.7167
 7999TIP3   OH248191   2.759   2.206  11.614 -0.0076 -0.1057  0.0492
 7999TIP3    H148192   2.736   2.296  11.636 -0.6314 -0.1142 -0.5244
 7999TIP3    H248193   2.760   2.160  11.698  0.0124  0.3679  0.3122
 8000TIP3   OH248194   5.830   2.679  10.975 -0.7835 -0.4546 -0.0683
 8000TIP3    H148195   5.874   2.751  10.929 -2.1079 -0.3926 -1.3290
 8000TIP3    H248196   5.896   2.645  11.035  0.6518  0.2441 -1.1838
 8001TIP3   OH248197   3.260   3.856  11.392 -0.3919 -0.1931  0.0290
 8001TIP3    H148198   3.335   3.835  11.336 -0.7064  0.9970 -0.8910
 8001TIP3    H248199   3.273   3.803  11.470  1.6189  0.2649  0.0711
 8002TIP3   OH248200   0.254   8.409  10.662  0.2848 -0.5013  0.1540
 8002TIP3    H148201   0.245   8.504  10.660 -1.7772 -0.6727 -0.1417
 8002TIP3    H248202   0.325   8.391  10.600  1.6513  0.8959  1.2238
 8003TIP3   OH248203   7.801   6.631  12.246  0.6735 -0.1810 -0.0238
 8003TIP3    H148204   7.769   6.607  12.159  1.4093 -0.6105 -0.1883
 8003TIP3    H248205   7.736   6.693  12.279 -0.6410 -1.4802 -0.0812
 8004TIP3   OH248206   2.213   3.085  11.536  0.6954  0.0287 -0.0685
 8004TIP3    H148207   2.274   3.013  11.519 -0.7762 -1.2346 -0.1933
 8004TIP3    H248208   2.252   3.160  11.490  1.9141 -0.8493 -0.5300
 8005TIP3   OH248209   0.355   5.461  11.926  0.5125 -0.2144  0.3706
 8005TIP3    H148210   0.439   5.475  11.882 -0.4399  0.4309 -1.3175
 8005TIP3    H248211   0.361   5.513  12.006  0.8913  1.7236 -0.8504
 8006TIP3   OH248212   6.385   4.962  11.781  0.0133  0.4629 -0.0187
 8006TIP3    H148213   6.478   4.941  11.784 -0.3344 -1.3350 -0.6324
 8006TIP3    H248214   6.342   4.878  11.770 -1.7932  1.1169  1.5595
 8007TIP3   OH248215   5.298   6.547  13.142 -0.0185 -0.6460  0.0123
 8007TIP3    H148216   5.355   6.471  13.128  0.0650 -0.5578 -0.1368
 8007TIP3    H248217   5.227   6.535  13.079 -0.0143 -0.6108  0.0005
 8008TIP3   OH248218   8.275   5.324  11.260  0.3843 -0.1783 -0.3412
 8008TIP3    H148219   8.284   5.415  11.232  1.6817 -0.2275 -0.1642
 8008TIP3    H248220   8.256   5.275  11.180 -1.6325  0.3889 -0.2554
 8009TIP3   OH248221   3.800   0.270  12.605 -0.2710 -0.5318  0.1702
 8009TIP3    H148222   3.861   0.265  12.679 -1.1542 -0.4255  0.9097
 8009TIP3    H248223   3.827   0.197  12.548  0.4866 -0.5424  0.5289
 8010TIP3   OH248224   5.850   4.779  10.581  0.0875  0.1113  0.1847
 8010TIP3    H148225   5.854   4.716  10.509 -1.7018 -2.0004  1.7935
 8010TIP3    H248226   5.796   4.851  10.547 -1.9066 -1.4848 -0.2366
 8011TIP3   OH248227   3.445   0.689  11.249 -0.7778  0.0839  0.3046
 8011TIP3    H148228   3.490   0.666  11.330  1.0907  1.4154 -0.3021
 8011TIP3    H248229   3.480   0.628  11.184 -0.1840  0.8014 -0.0628
 8012TIP3   OH248230   2.796   7.117  11.042 -0.1742  0.4176  0.3112
 8012TIP3    H148231   2.808   7.036  11.092  0.6195  0.3833  0.0859
 8012TIP3    H248232   2.839   7.100  10.958 -0.9049  0.7126 -0.1323
 8013TIP3   OH248233   0.444   3.949  11.833  0.4251  0.2406  0.0770
 8013TIP3    H148234   0.446   3.894  11.911  0.3893  0.7436  0.4337
 8013TIP3    H248235   0.368   3.918  11.784 -0.5298  1.0011  1.0329
 8014TIP3   OH248236   5.192   4.771  12.297  0.3114  0.0400 -0.2614
 8014TIP3    H148237   5.134   4.777  12.373  1.2507 -0.5967  0.5295
 8014TIP3    H248238   5.190   4.859  12.259 -1.3934 -0.0470 -0.4405
 8015TIP3   OH248239   4.033   5.971  12.087  0.2747 -0.4883 -0.1136
 8015TIP3    H148240   3.976   6.046  12.100  3.4681  1.9335  1.0343
 8015TIP3    H248241   4.079   5.990  12.005  2.5456 -0.0824  1.1809
 8016TIP3   OH248242   8.402   2.625  11.379  0.2238  0.1148  0.1191
 8016TIP3    H148243   8.496   2.612  11.391  0.3478  1.7916  1.3438
 8016TIP3    H248244   8.361   2.560  11.436  0.7021  0.6831  1.1457
 8017TIP3   OH248245   3.541   6.302  10.733 -0.6504  0.6015  0.3459
 8017TIP3    H148246   3.586   6.275  10.653  0.2515  1.3681  0.5785
 8017TIP3    H248247   3.502   6.221  10.767  1.5520 -0.3685  0.7685
 8018TIP3   OH248248   1.933   4.949  10.625  0.3737  0.2428 -0.5375
 8018TIP3    H148249   1.997   4.982  10.562  1.2477  0.1105  0.2694
 8018TIP3    H248250   1.933   5.014  10.695  1.9643 -1.3144  0.9826
 8019TIP3   OH248251   2.224   2.707  11.974  0.4081  0.0477 -0.1251
 8019TIP3    H148252   2.220   2.739  11.884 -1.3910 -1.7625 -0.7759
 8019TIP3    H248253   2.250   2.615  11.965 -2.2937 -0.9199  0.9106
 8020TIP3   OH248254   3.929   6.200  12.192 -0.1180  0.2470 -0.4178
 8020TIP3    H148255   3.859   6.265  12.197 -1.1368 -0.6383 -2.1712
 8020TIP3    H248256   3.949   6.180  12.283 -2.6146  0.0636  0.1730
 8021TIP3   OH248257   6.126   0.278  11.492  0.0932  0.0966  0.3285
 8021TIP3    H148258   6.047   0.252  11.539  0.4223 -0.3536  0.6540
 8021TIP3    H248259   6.158   0.356  11.539 -0.5724  0.7437 -0.2806
 8022TIP3   OH248260   5.484   4.656  11.404 -0.4852  0.4305 -0.0329
 8022TIP3    H148261   5.451   4.726  11.349 -0.6706  0.8152  0.5600
 8022TIP3    H248262   5.406   4.611  11.436 -0.3946  0.4653  0.2420
 8023TIP3   OH248263   8.158   5.735  11.102  0.3722  0.4401 -0.2088
 8023TIP3    H148264   8.101   5.805  11.132 -1.7986 -1.7952  1.2016
 8023TIP3    H248265   8.245   5.761  11.133 -0.6432  1.6686  1.8271
 8024TIP3   OH248266   5.368   6.731  11.211 -0.6839  0.2434  0.2600
 8024TIP3    H148267   5.420   6.771  11.281  0.0591  1.4141 -0.9139
 8024TIP3    H248268   5.412   6.758  11.131 -1.2253 -1.4927 -0.6595
 8025TIP3   OH248269   4.374   7.252  10.630  0.6285 -0.8358 -0.2331
 8025TIP3    H148270   4.462   7.219  10.647  1.3505  0.2097 -1.6978
 8025TIP3    H248271   4.377   7.282  10.539 -1.2980 -0.9200 -0.3691
 8026TIP3   OH248272   3.142   4.561  10.903 -0.1081  0.1391 -0.4412
 8026TIP3    H148273   3.096   4.556  10.987  2.3843 -5.0003  1.0240
 8026TIP3    H248274   3.228   4.595  10.926  0.2416 -0.2768 -1.1175
 8027TIP3   OH248275   0.802   0.972  12.273 -0.4156  0.0604  0.1835
 8027TIP3    H148276   0.815   0.887  12.230  0.7693  0.7570 -0.9253
 8027TIP3    H248277   0.711   0.993  12.258 -0.2351 -0.1253 -1.2712
 8028TIP3   OH248278   0.761   2.223  11.991 -0.0022 -0.3608 -0.1615
 8028TIP3    H148279   0.772   2.138  11.950 -0.4541  0.2405 -1.5872
 8028TIP3    H248280   0.702   2.207  12.065  0.0601 -1.2978 -0.3058
 8029TIP3   OH248281   6.937   3.942  10.732  0.0716  0.3824  0.3442
 8029TIP3    H148282   6.926   3.893  10.651  0.4095  0.4969  0.2272
 8029TIP3    H248283   6.934   3.876  10.801  2.8295 -0.1613  0.0746
 8030TIP3   OH248284   0.838   7.524  10.785 -0.1283  0.3102  0.1862
 8030TIP3    H148285   0.930   7.498  10.779  0.3279  1.5383  1.2143
 8030TIP3    H248286   0.812   7.500  10.874 -1.0049 -0.5865 -0.2952
 8031TIP3   OH248287   4.027   1.126  12.530  0.0745 -0.2865  0.1757
 8031TIP3    H148288   3.957   1.085  12.581 -0.2599  0.1501  0.0661
 8031TIP3    H248289   4.004   1.219  12.527 -1.0102 -0.5731 -2.4865
 8032TIP3   OH248290   8.428   4.709  10.367 -0.3863  0.5630 -0.0473
 8032TIP3    H148291   8.416   4.699  10.273  0.6142  0.9913 -0.2255
 8032TIP3    H248292   8.340   4.729  10.400 -0.8730 -0.2619 -0.7850
 8033TIP3   OH248293   2.731   2.123  11.909  0.1392 -0.1135 -0.2345
 8033TIP3    H148294   2.817   2.147  11.944  0.5675 -1.6485 -0.1783
 8033TIP3    H248295   2.669   2.166  11.968  0.7887  2.5344 -1.3082
 8034TIP3   OH248296   0.358   3.772  12.015 -0.2119  0.2062  0.6645
 8034TIP3    H148297   0.360   3.797  12.107 -0.2434 -0.8365  0.9592
 8034TIP3    H248298   0.273   3.803  11.984 -0.6852 -0.4466  1.2873
 8035TIP3   OH248299   4.570   4.784  11.184  0.0916 -0.2238  0.6658
 8035TIP3    H148300   4.612   4.866  11.211 -1.7130  1.1018 -0.3253
 8035TIP3    H248301   4.478   4.808  11.172 -0.0780 -1.8493 -1.8977
 8036TIP3   OH248302   1.129   5.035  11.923 -0.3956 -0.0684 -0.1598
 8036TIP3    H148303   1.146   5.121  11.961 -0.8760 -0.1083  0.1501
 8036TIP3    H248304   1.146   4.974  11.994  0.1303 -0.2464 -0.4349
 8037TIP3   OH248305   0.478   4.034  10.713  0.1575  0.8126 -0.0962
 8037TIP3    H148306   0.515   4.117  10.686 -0.4479  1.1207  0.0008
 8037TIP3    H248307   0.456   4.046  10.806 -0.0597  0.5949 -0.1160
 8038TIP3   OH248308   0.255   7.292  11.335  0.0934  0.0723  0.1184
 8038TIP3    H148309   0.260   7.350  11.259  1.6661 -0.6062 -0.3323
 8038TIP3    H248310   0.345   7.267  11.352  0.0705  1.7192  3.4510
 8039TIP3   OH248311   8.298   2.354  11.822 -0.0968  0.2192  0.3518
 8039TIP3    H148312   8.258   2.285  11.875 -1.7335  1.3973  0.7029
 8039TIP3    H248313   8.391   2.350  11.844 -0.4607 -0.5625  1.8695
 8040TIP3   OH248314   1.840   7.622  11.421 -0.1559 -0.4226  0.0792
 8040TIP3    H148315   1.777   7.593  11.487 -1.1452 -0.1161 -0.6991
 8040TIP3    H248316   1.865   7.542  11.374 -1.7533 -0.2727 -1.1034
 8041TIP3   OH248317   5.055   1.085  10.641 -1.0472 -0.0083 -0.7718
 8041TIP3    H148318   4.966   1.056  10.622 -1.3986  0.9818 -0.6571
 8041TIP3    H248319   5.048   1.130  10.725 -0.1083 -1.4610  0.1214
 8042TIP3   OH248320   5.717   5.021  10.880  0.0627 -0.4900  0.1930
 8042TIP3    H148321   5.702   4.931  10.852  0.9477 -0.9063  0.9773
 8042TIP3    H248322   5.664   5.030  10.960 -3.0170  0.9103 -1.8357
 8043TIP3   OH248323   4.283   5.348  11.345  0.0875  0.2911  0.5426
 8043TIP3    H148324   4.295   5.421  11.283  0.5783  0.4054  0.7700
 8043TIP3    H248325   4.195   5.361  11.380  0.3066  0.9994  0.8641
 8044TIP3   OH248326   6.676   1.266  11.081  0.3009  0.1460 -0.1927
 8044TIP3    H148327   6.703   1.186  11.037 -0.8794 -0.9506  0.9730
 8044TIP3    H248328   6.631   1.317  11.014  1.1429 -0.1083 -0.9701
 8045TIP3   OH248329   3.705   3.186  11.529 -0.5494 -0.7819  0.2560
 8045TIP3    H148330   3.711   3.101  11.486 -0.6638 -1.1079  0.8707
 8045TIP3    H248331   3.611   3.204  11.536 -0.5240 -0.5335  0.0002
 8046TIP3   OH248332   4.518   8.411  10.304 -0.0956  0.1406 -0.7890
 8046TIP3    H148333   4.593   8.371  10.261  0.5296  1.2051 -0.7298
 8046TIP3    H248334   4.546   8.421  10.396 -0.4576  0.1686 -0.6800
 8047TIP3   OH248335   8.081   4.668  11.721 -0.3545  0.3615 -0.0025
 8047TIP3    H148336   8.008   4.708  11.674  0.2818  1.6416  0.0325
 8047TIP3    H248337   8.065   4.688  11.813 -1.9036 -2.6385  0.4949
 8048TIP3   OH248338   7.118   0.681  10.901  0.0839 -0.4224 -0.3979
 8048TIP3    H148339   7.093   0.741  10.830  1.3655  1.2977  0.5241
 8048TIP3    H248340   7.213   0.690  10.908  0.1043 -1.3343  0.8760
 8049TIP3   OH248341   6.757   8.154  11.017 -0.2246  0.0568 -0.1218
 8049TIP3    H148342   6.840   8.175  10.975 -0.5169  0.2793 -0.5992
 8049TIP3    H248343   6.760   8.059  11.032  0.3181  0.1431  0.3196
 8050TIP3   OH248344   5.599   7.357  12.156 -0.2220  0.1272  0.3044
 8050TIP3    H148345   5.538   7.363  12.083 -0.6965 -3.1943  0.2836
 8050TIP3    H248346   5.544   7.369  12.234 -0.5506 -0.7831  0.2212
 8051TIP3   OH248347   3.918   4.116  12.071 -0.2537 -0.4746 -0.7608
 8051TIP3    H148348   3.909   4.049  12.139  0.1516 -0.2792 -0.5111
 8051TIP3    H248349   3.951   4.193  12.117 -2.9849  0.6932 -0.5835
 8052TIP3   OH248350   0.978   3.254  11.840  0.0970  0.4477  0.2160
 8052TIP3    H148351   0.972   3.261  11.935  0.7553 -1.3463  0.4212
 8052TIP3    H248352   1.021   3.336  11.813 -1.7315  1.8213  1.2253
 8053TIP3   OH248353   6.592   8.111  11.846 -0.4076  0.2902 -0.1399
 8053TIP3    H148354   6.498   8.094  11.851 -0.6716  1.6137 -0.2275
 8053TIP3    H248355   6.633   8.026  11.861 -1.6135 -0.2338  0.2766
 8054TIP3   OH248356   6.240   1.041  10.659  0.0231  0.2802  0.3679
 8054TIP3    H148357   6.239   0.949  10.634 -0.1682  0.5663 -0.7126
 8054TIP3    H248358   6.314   1.079  10.611 -0.1318  0.7724  0.5111
 8055TIP3   OH248359   4.599   7.525  10.561  0.0858 -0.1716  0.2504
 8055TIP3    H148360   4.640   7.581  10.627  1.7405 -0.6233 -0.3476
 8055TIP3    H248361   4.669   7.467  10.532 -0.5623  0.0419 -1.9429
 8056TIP3   OH248362   0.137   1.535  10.524  0.0148  0.2001 -0.1741
 8056TIP3    H148363   0.230   1.512  10.526 -0.0636 -0.1166 -0.1014
 8056TIP3    H248364   0.135   1.630  10.535  0.3863  0.3617 -1.4027
 8057TIP3   OH248365   1.025   6.741  11.794 -0.5240  0.2755 -0.1071
 8057TIP3    H148366   1.060   6.674  11.734  0.8405  1.1385 -0.3067
 8057TIP3    H248367   0.930   6.736  11.782 -0.5572 -2.3042  0.6088
 8058TIP3   OH248368   0.708   3.210  11.767  0.2121 -0.7370 -0.2163
 8058TIP3    H148369   0.677   3.128  11.804 -0.0620  0.0139  1.2767
 8058TIP3    H248370   0.792   3.226  11.811  0.0219  0.0326 -0.1268
 8059TIP3   OH248371   6.836   0.902  11.730  0.3166  0.4525  0.0971
 8059TIP3    H148372   6.913   0.923  11.677  0.2811  0.7029  0.1421
 8059TIP3    H248373   6.823   0.808  11.718  0.2096  0.5332 -0.4800
 8060TIP3   OH248374   3.077   6.276  11.963 -0.2643  0.8079 -0.0019
 8060TIP3    H148375   3.075   6.283  12.059  0.3179  0.3638  0.0477
 8060TIP3    H248376   2.994   6.234  11.940  0.4414 -0.9894  0.4990
 8061TIP3   OH248377   6.580   2.647  11.920 -0.0435 -0.3048 -1.0389
 8061TIP3    H148378   6.641   2.636  11.993 -2.9140 -0.7111  1.5206
 8061TIP3    H248379   6.609   2.584  11.854  0.8643 -2.3291  1.1430
 8062TIP3   OH248380   8.105   1.345  11.211 -0.4916 -0.2790 -0.3449
 8062TIP3    H148381   8.187   1.341  11.261 -0.3480 -0.5639 -0.6017
 8062TIP3    H248382   8.133   1.351  11.120 -0.7595 -0.7847 -0.4613
 8063TIP3   OH248383   0.863   8.310  11.241 -0.2826 -0.0694 -0.4006
 8063TIP3    H148384   0.805   8.250  11.195 -2.0696 -0.0691  1.7237
 8063TIP3    H248385   0.806   8.359  11.301  1.5952  1.4474  0.2578
 8064TIP3   OH248386   6.723   7.804  11.038 -0.2547  0.4996  0.1034
 8064TIP3    H148387   6.724   7.712  11.012 -1.7272  0.4285  0.2383
 8064TIP3    H248388   6.650   7.842  10.990  0.0802  1.5045  0.3707
 8065TIP3   OH248389   1.812   0.571  11.391 -0.0937  0.2471 -0.2712
 8065TIP3    H148390   1.783   0.656  11.360  0.3793 -0.1168 -1.7849
 8065TIP3    H248391   1.779   0.565  11.481  0.4415  2.2861  0.1087
 8066TIP3   OH248392   1.009   6.025  10.915 -0.2891  0.3854  0.0581
 8066TIP3    H148393   1.056   6.081  10.977 -1.8563  0.5087  1.2061
 8066TIP3    H248394   1.064   6.023  10.837  0.2022  2.9221  0.2587
 8067TIP3   OH248395   6.377   4.176  12.429  0.1163  0.1614  0.2846
 8067TIP3    H148396   6.298   4.127  12.453 -0.3255  1.0918  0.7825
 8067TIP3    H248397   6.347   4.266  12.417  1.1471  0.5812  0.7429
 8068TIP3   OH248398   0.453   2.699  11.627 -0.2782  0.3898 -0.3304
 8068TIP3    H148399   0.423   2.769  11.569 -0.6299  0.5291  0.0126
 8068TIP3    H248400   0.544   2.722  11.648 -0.6532  1.2127  0.4656
 8069TIP3   OH248401   8.291   1.225  12.431  0.5059  0.2821 -0.4486
 8069TIP3    H148402   8.221   1.286  12.410  0.2412  0.9742  2.1488
 8069TIP3    H248403   8.247   1.149  12.469  1.0290 -0.3873 -1.1315
 8070TIP3   OH248404   6.955   0.971  11.433  0.3404 -0.2566 -0.2059
 8070TIP3    H148405   6.970   0.877  11.441  0.5266 -0.1603  0.6753
 8070TIP3    H248406   6.862   0.979  11.412  0.1594 -0.6114  0.4449
 8071TIP3   OH248407   6.659   6.028  10.884 -0.0914 -0.5870 -0.4069
 8071TIP3    H148408   6.616   6.055  10.965 -0.2338 -1.4489 -0.1886
 8071TIP3    H248409   6.631   6.093  10.819  0.9386  0.7966  0.4733
 8072TIP3   OH248410   3.756   1.300  11.179 -0.0029 -0.1922  0.1269
 8072TIP3    H148411   3.717   1.238  11.117  0.8473 -0.6235  0.0130
 8072TIP3    H248412   3.682   1.353  11.210 -0.4747 -0.1076 -1.0914
 8073TIP3   OH248413   2.100   1.655  12.499 -0.1188 -0.2610 -0.1490
 8073TIP3    H148414   2.159   1.661  12.574  0.7808 -1.0596 -0.7679
 8073TIP3    H248415   2.114   1.737  12.452  3.6358 -1.9331 -2.4761
 8074TIP3   OH248416   3.929   0.453  11.011 -0.6157  0.1833  0.0785
 8074TIP3    H148417   3.905   0.499  11.092  2.2102  0.9012  0.6315
 8074TIP3    H248418   3.941   0.362  11.038  0.8969  0.5242  0.6832
 8075TIP3   OH248419   5.575   4.794  12.310 -0.9203 -0.2641  0.3722
 8075TIP3    H148420   5.512   4.853  12.351 -0.4761  0.3814  0.1492
 8075TIP3    H248421   5.653   4.801  12.366 -0.6711 -0.1870  0.0176
 8076TIP3   OH248422   0.606   4.743  10.699 -0.4088 -0.5316  0.1040
 8076TIP3    H148423   0.596   4.673  10.764  1.1934 -2.1712 -1.3068
 8076TIP3    H248424   0.533   4.730  10.639  0.0262 -1.1785 -0.2959
 8077TIP3   OH248425   7.889   6.842  11.426  0.1492 -0.1749 -0.2091
 8077TIP3    H148426   7.928   6.754  11.427  1.2567  0.2940  1.0079
 8077TIP3    H248427   7.906   6.876  11.514  0.1947  1.4520 -0.8233
 8078TIP3   OH248428   7.569   2.698  12.415  0.0551 -0.1915 -0.4655
 8078TIP3    H148429   7.476   2.678  12.405 -0.4012  0.4657  1.7250
 8078TIP3    H248430   7.610   2.615  12.438 -0.1993 -0.3029 -0.4143
 8079TIP3   OH248431   7.755   1.401  12.493 -0.0710  0.6137  0.6735
 8079TIP3    H148432   7.796   1.323  12.529 -0.4132  0.3109  0.4135
 8079TIP3    H248433   7.807   1.474  12.527 -0.2627  0.3269  1.6117
 8080TIP3   OH248434   7.463   3.970  10.784  0.1178 -0.1038  0.5767
 8080TIP3    H148435   7.467   4.065  10.797 -0.6186 -0.1933  1.6511
 8080TIP3    H248436   7.391   3.957  10.723  2.8199  0.2426 -3.0014
 8081TIP3   OH248437   8.069   4.602  11.286  0.1062  0.3120  0.3514
 8081TIP3    H148438   8.048   4.532  11.348  0.4227  0.8591  1.0896
 8081TIP3    H248439   7.986   4.648  11.272 -1.1333 -2.5113 -3.2119
 8082TIP3   OH248440   0.228   3.956  10.641 -0.4820 -0.0261 -0.7755
 8082TIP3    H148441   0.323   3.944  10.646 -0.5349 -1.3438 -2.1357
 8082TIP3    H248442   0.217   4.042  10.601  0.0714  1.0621  1.2781
 8083TIP3   OH248443   5.931   0.317  11.003  0.2430  0.4762 -0.4776
 8083TIP3    H148444   5.949   0.309  11.096  1.3092  2.1333 -0.4945
 8083TIP3    H248445   5.924   0.227  10.972  0.1058 -0.1080  1.1413
 8084TIP3   OH248446   5.164   5.447  10.409 -0.1294  0.2077 -0.0444
 8084TIP3    H148447   5.236   5.473  10.466 -0.1658  0.7196 -0.2260
 8084TIP3    H248448   5.206   5.422  10.327 -0.1927  0.9363 -0.2987
 8085TIP3   OH248449   2.210   8.306  12.128 -0.4420 -0.4956  0.4012
 8085TIP3    H148450   2.225   8.237  12.193 -1.3365 -1.5238 -0.4520
 8085TIP3    H248451   2.155   8.370  12.174  0.4010 -0.3225  1.1998
 8086TIP3   OH248452   8.036   6.244  11.118  0.2940 -0.8476 -0.0480
 8086TIP3    H148453   7.952   6.266  11.078 -0.0773 -0.4723  0.9305
 8086TIP3    H248454   8.100   6.254  11.047 -0.3388 -0.0805 -0.5172
 8087TIP3   OH248455   1.660   0.640  10.782  0.2843  0.6760 -0.2389
 8087TIP3    H148456   1.661   0.678  10.870 -0.2961 -1.3705  0.6924
 8087TIP3    H248457   1.570   0.652  10.751 -0.6935 -2.2296  1.1731
 8088TIP3   OH248458   2.930   6.758  10.671  0.3942  0.1617  0.4322
 8088TIP3    H148459   2.838   6.778  10.654  0.4930  0.4644  0.2357
 8088TIP3    H248460   2.978   6.820  10.616  0.7120 -0.4726 -0.0088
 8089TIP3   OH248461   2.969   5.180  10.399 -0.5818  0.3864  0.3813
 8089TIP3    H148462   2.957   5.094  10.358 -1.2735  0.3297  0.6768
 8089TIP3    H248463   2.968   5.162  10.493  1.0999  0.5029  0.4459
 8090TIP3   OH248464   7.262   0.051  10.286 -0.1943 -0.0123 -0.4598
 8090TIP3    H148465   7.193  -0.013  10.272  0.3238 -0.6345 -0.2120
 8090TIP3    H248466   7.222   0.135  10.262 -1.2131 -0.2803  0.2564
 8091TIP3   OH248467   4.749   0.846  12.028  0.9905  0.1886 -0.0584
 8091TIP3    H148468   4.700   0.829  11.948  1.8550 -0.1594 -0.5201
 8091TIP3    H248469   4.759   0.760  12.069 -2.9523  0.6951  2.5837
 8092TIP3   OH248470   7.502   5.518  12.089  0.0104  0.0969  0.3400
 8092TIP3    H148471   7.583   5.533  12.041  0.4791 -1.3135  0.6488
 8092TIP3    H248472   7.464   5.605  12.099  1.4474  0.7814  0.1224
 8093TIP3   OH248473   8.057   7.530  11.822 -0.0398  0.2424 -0.8334
 8093TIP3    H148474   8.104   7.582  11.887  0.3425 -0.8748 -0.1962
 8093TIP3    H248475   8.095   7.556  11.739  1.5762 -0.4746 -0.3531
 8094TIP3   OH248476   0.287   4.846  11.407 -0.2163 -0.0316  0.2933
 8094TIP3    H148477   0.294   4.764  11.455 -0.8763 -0.1153  0.2566
 8094TIP3    H248478   0.367   4.850  11.354  1.3363  0.8310  2.5372
 8095TIP3   OH248479   0.737   3.334  10.761  0.4136 -0.5467  0.1411
 8095TIP3    H148480   0.793   3.369  10.830  0.9256  1.1976 -1.1020
 8095TIP3    H248481   0.651   3.373  10.777  0.1937 -1.1695  0.5249
 8096TIP3   OH248482   0.918   6.893  11.187 -0.0659 -0.1639 -0.1670
 8096TIP3    H148483   1.012   6.882  11.179  0.2356  1.8511  0.0963
 8096TIP3    H248484   0.905   6.932  11.273 -1.0833  0.1095 -0.4231
 8097TIP3   OH248485   3.366   4.074  11.052 -0.3882 -0.4076  0.4534
 8097TIP3    H148486   3.304   4.060  10.981  0.2952  0.0884 -0.2523
 8097TIP3    H248487   3.451   4.087  11.008  0.0317 -0.0384  1.3498
 8098TIP3   OH248488   5.441   0.728  12.179 -0.0617  0.6544  0.2973
 8098TIP3    H148489   5.504   0.733  12.107  0.3223 -1.2353  0.4474
 8098TIP3    H248490   5.356   0.731  12.136  0.1633  0.2690 -0.1923
 8099TIP3   OH248491   8.448   5.696  11.154 -0.4210  0.4821  0.2733
 8099TIP3    H148492   8.415   5.647  11.229 -0.0440  2.1632  1.6242
 8099TIP3    H248493   8.535   5.726  11.181 -0.7552  2.1250 -0.3084
 8100TIP3   OH248494   1.819   8.136  11.672 -0.0179 -0.1444 -0.1393
 8100TIP3    H148495   1.776   8.181  11.745 -0.0567  0.4321 -0.5070
 8100TIP3    H248496   1.859   8.059  11.711  1.6211  1.1400  0.8685
 8101TIP3   OH248497   8.000   2.850  10.885  0.2127 -0.3066 -0.1494
 8101TIP3    H148498   7.921   2.896  10.913 -0.5015 -1.4773 -0.1771
 8101TIP3    H248499   8.072   2.910  10.906 -0.7167  1.0566 -0.7138
 8102TIP3   OH248500   2.542   1.777  10.993 -0.3598  0.5494  0.0731
 8102TIP3    H148501   2.452   1.747  10.984  0.3140 -1.5238 -0.3351
 8102TIP3    H248502   2.547   1.815  11.080 -1.6096  0.6860  0.0962
 8103TIP3   OH248503   4.631   2.463  11.481 -0.5697  0.3671 -0.1037
 8103TIP3    H148504   4.646   2.411  11.402  0.6825  0.2424  0.1900
 8103TIP3    H248505   4.610   2.551  11.448  0.4301  0.4420 -0.5883
 8104TIP3   OH248506   2.399   7.355  10.784  0.5409 -0.2139 -0.3111
 8104TIP3    H148507   2.443   7.389  10.706  0.9114 -1.0389 -0.4750
 8104TIP3    H248508   2.465   7.363  10.854  0.5026 -0.2581 -0.2698
 8105TIP3   OH248509   1.834   6.108  11.201 -0.1435 -0.4027  0.8277
 8105TIP3    H148510   1.763   6.145  11.148 -0.5517 -1.1901  0.8074
 8105TIP3    H248511   1.910   6.108  11.142  0.0351  0.9493  1.0199
 8106TIP3   OH248512   4.683   5.194  11.361  0.2157 -0.2507 -0.7500
 8106TIP3    H148513   4.727   5.269  11.400 -1.4447 -0.8010  2.4979
 8106TIP3    H248514   4.592   5.222  11.350 -1.0105 -2.3140  2.7124
 8107TIP3   OH248515   4.766   1.230  13.172 -0.4061 -0.0135 -0.2851
 8107TIP3    H148516   4.684   1.198  13.135  0.1427 -0.1348 -1.4325
 8107TIP3    H248517   4.767   1.197  13.262  0.2741 -3.5486 -1.4604
 8108TIP3   OH248518   8.431   1.145  10.935 -0.1748  0.1955  0.1791
 8108TIP3    H148519   8.446   1.076  10.870 -0.6162  0.3246 -0.0651
 8108TIP3    H248520   8.513   1.150  10.984  0.1715  0.1033 -0.3780
 8109TIP3   OH248521   5.393   8.255  11.965 -0.0752 -0.1097 -0.3110
 8109TIP3    H148522   5.307   8.292  11.984 -0.1897 -0.4809 -0.0953
 8109TIP3    H248523   5.407   8.273  11.872 -0.0701  0.5917 -0.1796
 8110TIP3   OH248524   4.305   6.190  11.224  0.1523 -0.1694 -0.0513
 8110TIP3    H148525   4.285   6.108  11.270  3.6834 -0.4258  1.3312
 8110TIP3    H248526   4.285   6.259  11.287  0.0978 -0.1685 -0.0694
 8111TIP3   OH248527   5.758   6.326  10.658 -0.1328 -0.2642 -0.4495
 8111TIP3    H148528   5.687   6.390  10.654 -0.7815 -1.0101 -1.0489
 8111TIP3    H248529   5.778   6.318  10.752  0.5332  1.4204 -0.4126
 8112TIP3   OH248530   7.114   8.020  11.603  0.0272  0.1239  0.0314
 8112TIP3    H148531   7.145   7.931  11.620 -0.0470  0.2991  1.2144
 8112TIP3    H248532   7.061   8.013  11.524  2.1538 -0.3839 -1.4070
 8113TIP3   OH248533   2.946   2.147  10.966  0.0377 -0.0819  0.2064
 8113TIP3    H148534   2.991   2.074  10.924  1.0363  0.6396 -0.0383
 8113TIP3    H248535   2.864   2.156  10.917  0.6505 -0.0019 -0.8392
 8114TIP3   OH248536   6.276   2.759  11.304  0.7692 -0.2334 -0.2787
 8114TIP3    H148537   6.355   2.752  11.357  1.1535  1.0945 -0.6261
 8114TIP3    H248538   6.300   2.820  11.234 -0.6707  0.5094 -0.1653
 8115TIP3   OH248539   6.222   6.447  12.766 -0.2228  0.0564  0.0423
 8115TIP3    H148540   6.189   6.505  12.835 -1.1949 -0.9711  0.4592
 8115TIP3    H248541   6.310   6.425  12.794 -0.3755  0.1678  0.6262
 8116TIP3   OH248542   7.843   1.633  12.606  0.1182  0.2791  0.5351
 8116TIP3    H148543   7.807   1.655  12.692  0.1802  0.8581  0.4169
 8116TIP3    H248544   7.857   1.717  12.564  0.5308  0.0136  0.1333
 8117TIP3   OH248545   5.075   5.067  11.529  0.1532  0.2530 -0.1345
 8117TIP3    H148546   5.105   4.976  11.530  0.1117  0.2346  0.9329
 8117TIP3    H248547   4.994   5.065  11.480 -0.4918 -0.5216  0.9084
 8118TIP3   OH248548   2.620   7.023  11.289 -0.0199  0.2546  0.5855
 8118TIP3    H148549   2.695   6.988  11.240  0.2903  1.2346  0.3309
 8118TIP3    H248550   2.544   6.999  11.236  0.0422 -1.2255  1.1200
 8119TIP3   OH248551   1.102   6.994  11.832 -0.3112 -0.9190  0.3450
 8119TIP3    H148552   1.085   6.911  11.787  3.0545 -1.4753 -0.1645
 8119TIP3    H248553   1.123   6.970  11.922 -0.4996 -0.4701  0.5150
 8120TIP3   OH248554   1.020   4.085  12.299 -0.2275 -0.2291  0.2235
 8120TIP3    H148555   1.073   4.165  12.295 -1.5726  0.7068  0.2297
 8120TIP3    H248556   1.033   4.043  12.214 -0.0077  0.3412 -0.0294
 8121TIP3   OH248557   2.021   4.856  11.018 -0.2888 -0.9080  0.4075
 8121TIP3    H148558   2.098   4.849  10.962 -1.5231  0.8512 -1.6444
 8121TIP3    H248559   1.952   4.810  10.970 -1.5428  1.2105  0.0469
 8122TIP3   OH248560   6.773   6.343  17.380 -0.8769  0.4796 -0.7648
 8122TIP3    H148561   6.823   6.338  17.298 -1.1448  0.9543 -0.9623
 8122TIP3    H248562   6.753   6.436  17.390  0.1023  0.5934  0.4172
 8123TIP3   OH248563   6.329   6.118  11.634  0.1772 -0.1936 -0.6516
 8123TIP3    H148564   6.262   6.108  11.566 -0.1143 -1.5162 -0.2033
 8123TIP3    H248565   6.313   6.045  11.694  0.9911  0.4384  0.3578
 8124TIP3   OH248566   5.905   8.292  12.214 -0.1764  0.2433 -0.0985
 8124TIP3    H148567   5.856   8.271  12.135  1.6650  1.6188 -1.6995
 8124TIP3    H248568   5.875   8.228  12.279 -2.7360 -0.0708 -1.4650
 8125TIP3   OH248569   5.284   3.441  10.585  0.2032 -0.0916 -0.1480
 8125TIP3    H148570   5.248   3.393  10.511  0.6529 -0.1929 -0.3031
 8125TIP3    H248571   5.249   3.530  10.575 -0.1981 -0.2502 -0.1574
 8126TIP3   OH248572   2.294   1.547  12.833 -0.3558  0.1189  0.4315
 8126TIP3    H148573   2.358   1.586  12.892  0.9080 -0.8121 -0.2600
 8126TIP3    H248574   2.313   1.587  12.748 -0.4913 -0.3840  0.1587
 8127TIP3   OH248575   4.829   5.219  10.908 -0.3093 -0.0396  0.1076
 8127TIP3    H148576   4.867   5.307  10.900  2.7507 -0.9205  2.6129
 8127TIP3    H248577   4.868   5.169  10.837  1.3764 -0.3024  1.1590
 8128TIP3   OH248578   0.369   7.073  10.969 -0.2892  0.1020  0.2941
 8128TIP3    H148579   0.411   7.128  10.903 -1.7908 -0.6764 -1.4199
 8128TIP3    H248580   0.441   7.037  11.020  0.9374  0.7945 -0.8879
 8129TIP3   OH248581   4.641   6.268  11.361  0.3002  0.0467 -0.3671
 8129TIP3    H148582   4.568   6.261  11.299  0.2515 -0.0033 -0.3029
 8129TIP3    H248583   4.700   6.196  11.337 -0.0316 -0.3724  0.0631
 8130TIP3   OH248584   4.280   8.374  10.400  0.6480 -0.2172  0.3856
 8130TIP3    H148585   4.372   8.384  10.373  0.1901 -0.9195 -1.6055
 8130TIP3    H248586   4.230   8.411  10.328 -0.6788 -0.0724  1.3436
 8131TIP3   OH248587   1.051   5.817  11.755  0.4536 -0.0039 -0.3019
 8131TIP3    H148588   1.145   5.811  11.738  0.5668  2.7970 -1.0895
 8131TIP3    H248589   1.045   5.839  11.848  0.5308 -0.7859 -0.1069
 8132TIP3   OH248590   5.891   4.994  11.312 -0.3623  0.2795 -0.0197
 8132TIP3    H148591   5.823   4.933  11.284 -0.3752  0.3527 -0.1524
 8132TIP3    H248592   5.850   5.080  11.303  0.6043  0.5560 -2.7734
 8133TIP3   OH248593   0.217   3.410  11.390  0.8981 -0.1601 -0.1399
 8133TIP3    H148594   0.131   3.370  11.375  1.1982 -1.5733  1.6432
 8133TIP3    H248595   0.197   3.501  11.410 -0.3804 -0.8438  1.9409
 8134TIP3   OH248596   3.050   0.425  16.622 -0.2986 -0.0084 -0.3003
 8134TIP3    H148597   3.128   0.436  16.677 -0.1257 -0.2425 -0.4964
 8134TIP3    H248598   3.070   0.472  16.541 -0.7196  0.6941 -0.0095
 8135TIP3   OH248599   1.416   0.941  11.708  0.0432  0.0010 -0.0233
 8135TIP3    H148600   1.381   0.901  11.787  0.2227  3.0469  1.7681
 8135TIP3    H248601   1.339   0.982  11.666  0.4783  1.7008  0.7526
 8136TIP3   OH248602   4.284   4.836  11.491  0.1221  0.5108 -0.5370
 8136TIP3    H148603   4.273   4.899  11.419  0.6419  0.4487 -0.6714
 8136TIP3    H248604   4.294   4.890  11.569 -1.6091  0.5748 -0.3245
 8137TIP3   OH248605   6.398   5.293  11.090 -0.1523  0.1522 -0.5880
 8137TIP3    H148606   6.459   5.234  11.135  1.1497  2.0132  0.2098
 8137TIP3    H248607   6.313   5.250  11.100  0.6342 -1.2500  0.5595
 8138TIP3   OH248608   6.420   5.132  10.542 -0.0203 -0.7454  0.1708
 8138TIP3    H148609   6.344   5.123  10.599  0.0045 -1.8436  0.0392
 8138TIP3    H248610   6.387   5.110  10.455  0.4981 -1.4914  0.1545
 8139TIP3   OH248611   6.104   4.918  10.942  0.0760 -0.0023  0.7401
 8139TIP3    H148612   6.054   4.848  10.985 -0.0590  0.1703  0.8650
 8139TIP3    H248613   6.195   4.900  10.965  0.0017  0.1163  1.1424
 8140TIP3   OH248614   0.060   6.225  11.640 -0.0235  0.1312  0.5941
 8140TIP3    H148615  -0.022   6.235  11.687 -0.8627 -0.8131 -0.5949
 8140TIP3    H248616   0.091   6.314  11.625  0.1833  0.4653  2.7057
 8141TIP3   OH248617   2.453   6.755  10.468 -1.1995  0.7182 -0.2853
 8141TIP3    H148618   2.468   6.736  10.560 -1.2447  0.0447 -0.4150
 8141TIP3    H248619   2.536   6.732  10.425 -1.4584  0.2117 -0.5273
 8142TIP3   OH248620   3.943   1.513  10.700 -0.1060  0.0715  0.1230
 8142TIP3    H148621   3.922   1.490  10.609  0.3954  1.0307 -0.2474
 8142TIP3    H248622   3.875   1.574  10.726 -0.4589 -0.4835  0.5267
 8143TIP3   OH248623   3.129   4.577  11.490  0.1531  0.2350 -0.0299
 8143TIP3    H148624   3.207   4.579  11.545  0.8419 -0.5531 -0.9327
 8143TIP3    H248625   3.157   4.616  11.407  0.0966 -1.5141 -0.9329
 8144TIP3   OH248626   3.207   5.811  11.525 -0.1457 -0.1333  0.1429
 8144TIP3    H148627   3.257   5.879  11.570  0.6811 -0.0585 -0.8692
 8144TIP3    H248628   3.177   5.852  11.444  0.8806 -1.1291 -0.7699
 8145TIP3   OH248629   0.360   0.561  10.696 -0.4078 -0.3661 -0.0460
 8145TIP3    H148630   0.376   0.644  10.651  1.2058 -0.8388 -0.4342
 8145TIP3    H248631   0.282   0.576  10.748 -2.9656 -0.0217 -3.5923
 8146TIP3   OH248632   2.806   1.307  12.868  0.1244  0.4441  0.1351
 8146TIP3    H148633   2.754   1.373  12.913 -0.0850  0.5210 -0.2201
 8146TIP3    H248634   2.803   1.230  12.926  1.5052  1.1578  1.2247
 8147TIP3   OH248635   5.419   2.892  12.709  0.0998 -0.5279  0.0810
 8147TIP3    H148636   5.478   2.942  12.766 -1.2058  0.1101  0.9507
 8147TIP3    H248637   5.459   2.806  12.702  1.2072 -0.0632  0.5121
 8148TIP3   OH248638   3.725   4.126  11.883 -0.6121  0.5380  0.2452
 8148TIP3    H148639   3.769   4.181  11.819  0.6141 -0.9472 -0.2460
 8148TIP3    H248640   3.796   4.090  11.937 -1.3270 -0.7977  0.3487
 8149TIP3   OH248641   4.386   2.909  11.676  0.0464  0.3906 -0.1924
 8149TIP3    H148642   4.463   2.891  11.730 -0.3179 -0.3972  0.0666
 8149TIP3    H248643   4.312   2.905  11.736 -0.2715  0.3819 -0.5809
 8150TIP3   OH248644   6.599   3.633  11.335  0.0890 -0.0828  0.3946
 8150TIP3    H148645   6.535   3.570  11.303  0.7766 -1.0176  0.8236
 8150TIP3    H248646   6.608   3.613  11.428  1.7444 -0.6529  0.1436
 8151TIP3   OH248647   0.346   0.700  11.211 -0.2297  0.2580  0.3592
 8151TIP3    H148648   0.277   0.704  11.277 -1.4213 -0.0753 -0.8361
 8151TIP3    H248649   0.363   0.607  11.199  0.1810  0.3266  0.3923
 8152TIP3   OH248650   0.125   1.976  12.562 -0.1794 -0.8217 -0.2978
 8152TIP3    H148651   0.096   1.888  12.536 -0.5039 -0.9903  0.6186
 8152TIP3    H248652   0.221   1.969  12.564 -0.2345 -1.3999  0.5989
 8153TIP3   OH248653   6.462   2.433  12.672  0.2917  0.2369 -0.3394
 8153TIP3    H148654   6.481   2.373  12.744  1.9965  0.6404 -0.4181
 8153TIP3    H248655   6.371   2.459  12.686 -0.0485 -1.2748  0.4829
 8154TIP3   OH248656   7.521   3.291  12.308  0.3013 -0.8936 -0.5117
 8154TIP3    H148657   7.566   3.340  12.377 -0.0634 -2.9694  1.2896
 8154TIP3    H248658   7.494   3.358  12.245  1.4282  0.9729  0.8904
 8155TIP3   OH248659   2.801   7.823  10.461  0.1087  0.2107  0.3749
 8155TIP3    H148660   2.750   7.779  10.393  0.7783  2.0019 -1.3672
 8155TIP3    H248661   2.803   7.760  10.533  0.0691 -2.1289 -1.5369
 8156TIP3   OH248662   4.500   0.903  11.597  0.1808 -0.0864 -0.0671
 8156TIP3    H148663   4.450   0.829  11.563  0.4941 -0.3846  0.1109
 8156TIP3    H248664   4.586   0.895  11.556  0.0249  0.5404 -0.5322
 8157TIP3   OH248665   6.558   5.968  11.763 -0.0142  0.9531  0.2806
 8157TIP3    H148666   6.571   6.051  11.810 -0.4509  1.3749 -0.3347
 8157TIP3    H248667   6.466   5.947  11.777  0.2203  0.2728  0.8969
 8158TIP3   OH248668   2.930   7.347  12.043 -0.1828 -0.0599 -0.2891
 8158TIP3    H148669   2.911   7.383  11.956  3.8305  1.4204 -0.7425
 8158TIP3    H248670   2.950   7.423  12.097  1.2824 -1.1830  0.8135
 8159TIP3   OH248671   8.058   8.097  11.894 -0.2067 -0.0309 -0.1623
 8159TIP3    H148672   8.068   8.003  11.885 -0.1163  0.0108 -0.4774
 8159TIP3    H248673   7.975   8.108  11.941  0.6960 -0.3368  1.6193
 8160TIP3   OH248674   0.936   3.108  12.306 -0.3726 -0.0986 -0.4046
 8160TIP3    H148675   0.904   3.106  12.396  2.4838  1.5311  0.7914
 8160TIP3    H248676   0.926   3.018  12.275  0.2008 -1.1453  2.2057
 8161TIP3   OH248677   0.571   4.025  12.260  0.7913  0.1729  0.0512
 8161TIP3    H148678   0.584   3.930  12.261  0.2979  0.1015  0.5839
 8161TIP3    H248679   0.598   4.053  12.348 -0.8635  0.2555  0.5625
 8162TIP3   OH248680   6.115   7.518  10.626 -0.0036 -0.3033  0.0976
 8162TIP3    H148681   6.023   7.507  10.602 -0.6231  0.9196  1.7309
 8162TIP3    H248682   6.136   7.442  10.680 -0.1916 -0.3501  0.1031
 8163TIP3   OH248683   7.989   6.897  11.177 -0.2990 -0.0199 -0.2198
 8163TIP3    H148684   7.948   6.899  11.263 -2.2613 -1.0643 -1.0527
 8163TIP3    H248685   7.991   6.988  11.149  0.2771  0.3149  0.8671
 8164TIP3   OH248686   7.880   6.601  11.744 -0.0679 -0.0520  0.1978
 8164TIP3    H148687   7.945   6.657  11.786  1.9850 -0.5441 -2.1012
 8164TIP3    H248688   7.930   6.527  11.709 -2.1930 -1.5526  0.0943
 8165TIP3   OH248689   5.485   0.307  10.878  0.1133  0.0794 -0.3207
 8165TIP3    H148690   5.571   0.308  10.836  0.9302  1.5289  1.3098
 8165TIP3    H248691   5.471   0.397  10.908 -1.1409 -0.5330  1.0660
 8166TIP3   OH248692   4.083   3.843  10.774 -0.0029 -0.6229  0.2715
 8166TIP3    H148693   4.177   3.858  10.785 -0.2886  1.8133 -0.1395
 8166TIP3    H248694   4.048   3.842  10.863  0.2324 -0.2888  0.3668
 8167TIP3   OH248695   3.797   0.395  12.175  0.7692  0.1393  0.3820
 8167TIP3    H148696   3.749   0.413  12.256  0.4756 -1.2085  0.5250
 8167TIP3    H248697   3.871   0.342  12.202  0.0876 -1.2288 -0.3504
 8168TIP3   OH248698   3.979   5.014  12.659  0.3971 -0.3666  0.2906
 8168TIP3    H148699   3.885   5.006  12.677  0.1789  1.6971  0.2897
 8168TIP3    H248700   3.986   5.092  12.603  1.8683 -1.9294 -1.8660
 8169TIP3   OH248701   5.828   8.199  10.937  0.0656 -0.1873 -0.0337
 8169TIP3    H148702   5.782   8.200  11.021  1.0990 -2.9851  0.6844
 8169TIP3    H248703   5.920   8.216  10.959 -0.1534  3.4256 -1.2215
 8170TIP3   OH248704   5.274   3.252  11.331  0.2211 -0.0246 -0.5910
 8170TIP3    H148705   5.214   3.201  11.385  0.7949  0.7191  0.8134
 8170TIP3    H248706   5.258   3.222  11.242 -0.0128 -2.0784  0.0937
 8171TIP3   OH248707   2.550   6.424  11.256 -0.1820  0.2966 -0.0616
 8171TIP3    H148708   2.475   6.480  11.238 -0.1920  0.0066 -0.9511
 8171TIP3    H248709   2.517   6.335  11.247  0.4820  0.1583 -1.4710
 8172TIP3   OH248710   5.981   3.198  11.338  0.4131 -0.0245 -0.1433
 8172TIP3    H148711   5.895   3.195  11.295  0.1393 -1.7484  0.4536
 8172TIP3    H248712   6.041   3.224  11.268 -0.0066 -2.9025 -1.7073
 8173TIP3   OH248713   7.394   7.100  12.705 -0.5399  0.4012  0.0179
 8173TIP3    H148714   7.347   7.159  12.646  1.9149  2.3440 -0.1188
 8173TIP3    H248715   7.390   7.143  12.790 -1.5186 -0.9400  0.6977
 8174TIP3   OH248716   6.999   0.158  10.243  0.0091 -0.1120 -0.0945
 8174TIP3    H148717   6.926   0.181  10.186 -1.1868  0.9146  1.7220
 8174TIP3    H248718   6.999   0.227  10.310  2.0089 -0.6550  0.5299
 8175TIP3   OH248719   6.312   7.700  10.669 -0.5306 -0.4853  0.0709
 8175TIP3    H148720   6.239   7.645  10.642 -0.2732 -0.7573 -0.0789
 8175TIP3    H248721   6.306   7.703  10.765  0.4955 -2.2548  0.2341
 8176TIP3   OH248722   8.208   4.881  10.940  0.5870  0.1212 -0.5502
 8176TIP3    H148723   8.113   4.876  10.948  0.5617 -1.2347 -1.3870
 8176TIP3    H248724   8.242   4.852  11.025  0.2479 -1.1217 -0.8146
 8177TIP3   OH248725   0.102   0.360  12.078 -0.1080  0.8391  0.1917
 8177TIP3    H148726   0.135   0.448  12.060  1.0892  0.5758  0.9833
 8177TIP3    H248727   0.158   0.302  12.027 -1.0084  0.5227 -0.4709
 8178TIP3   OH248728   4.709   5.559  11.242 -0.0953 -0.2555  0.1688
 8178TIP3    H148729   4.681   5.644  11.209 -0.1219 -0.3255  0.0093
 8178TIP3    H248730   4.638   5.530  11.298 -1.3063 -1.3381 -1.7934
 8179TIP3   OH248731   5.326   0.331  11.678 -0.1869  0.2284 -0.3623
 8179TIP3    H148732   5.397   0.366  11.732 -0.2011  1.7048 -1.2283
 8179TIP3    H248733   5.365   0.322  11.591  0.0051 -2.6558 -0.0804
 8180TIP3   OH248734   4.591   4.195  10.991  0.8774 -0.0891 -0.1508
 8180TIP3    H148735   4.544   4.265  11.037  1.2347  0.1831 -0.2028
 8180TIP3    H248736   4.678   4.194  11.030  0.6112 -1.0894  0.4563
 8181TIP3   OH248737   8.136   4.685  12.032  0.4988  0.1905 -0.4592
 8181TIP3    H148738   8.128   4.590  12.041 -0.5504  0.1145 -1.9596
 8181TIP3    H248739   8.092   4.720  12.110 -2.0755 -0.5382 -1.4811
 8182TIP3   OH248740   6.809   0.711  10.893  0.0114 -0.2043  0.0627
 8182TIP3    H148741   6.729   0.723  10.841  0.4608  1.0768 -0.3655
 8182TIP3    H248742   6.869   0.778  10.861  1.0425 -0.7289  0.8271
 8183TIP3   OH248743   0.036   0.171  11.496  0.3025 -0.4267  0.3105
 8183TIP3    H148744  -0.056   0.157  11.518 -0.0255  1.7030  0.4855
 8183TIP3    H248745   0.073   0.083  11.493 -1.5263 -1.2875  1.1365
 8184TIP3   OH248746   7.227   6.962  10.665 -0.5934 -0.0359  0.0147
 8184TIP3    H148747   7.153   6.965  10.726  0.2180 -0.3903  1.0513
 8184TIP3    H248748   7.277   7.041  10.685 -0.7709  0.2837 -0.7889
 8185TIP3   OH248749   4.236   3.359  12.832  0.4022 -0.4047  0.1187
 8185TIP3    H148750   4.219   3.435  12.888  2.2103  0.5227 -0.5364
 8185TIP3    H248751   4.155   3.347  12.783 -0.8913 -0.6352  2.1643
 8186TIP3   OH248752   3.248   8.278  11.473  0.1410 -0.4183  0.0286
 8186TIP3    H148753   3.284   8.230  11.548  1.9949  0.9664  0.0999
 8186TIP3    H248754   3.244   8.214  11.402  1.6730 -0.9250  0.3748
 8187TIP3   OH248755   6.092   1.435  12.548 -0.0780  0.6453  0.9111
 8187TIP3    H148756   6.183   1.457  12.527  0.5458 -0.7794  1.9648
 8187TIP3    H248757   6.098   1.373  12.621 -1.8912  0.2859  0.8120
 8188TIP3   OH248758   1.181   1.819  10.982  0.0838  0.2350  0.3733
 8188TIP3    H148759   1.224   1.740  11.013  1.4558  1.1508  0.9249
 8188TIP3    H248760   1.224   1.840  10.899 -2.6313 -1.4364 -1.5804
 8189TIP3   OH248761   4.526   8.192  11.194 -0.6825 -0.2337 -0.4052
 8189TIP3    H148762   4.564   8.179  11.107  0.1606  0.6591 -0.1781
 8189TIP3    H248763   4.455   8.128  11.198 -0.7233 -0.3021 -1.7430
 8190TIP3   OH248764   0.014   8.353  11.481  0.3877 -0.2020  0.5207
 8190TIP3    H148765  -0.015   8.262  11.482 -0.3971  0.0426  0.4491
 8190TIP3    H248766  -0.051   8.399  11.427 -0.4308  0.7876  2.2670
 8191TIP3   OH248767   7.719   0.702  11.911  0.3797  0.1075 -0.5930
 8191TIP3    H148768   7.676   0.756  11.978 -0.1685 -2.5362  1.3315
 8191TIP3    H248769   7.655   0.698  11.839 -1.8492 -1.9965  1.3294
 8192TIP3   OH248770   6.351   8.349  11.292  0.0909 -0.4164 -0.1963
 8192TIP3    H148771   6.423   8.372  11.232 -1.1189 -2.5899 -2.6753
 8192TIP3    H248772   6.372   8.260  11.320  0.3525  0.3745  2.3479
 8193TIP3   OH248773   2.679   4.760  10.821 -0.6684  0.2749  0.4991
 8193TIP3    H148774   2.614   4.730  10.757  0.0453  1.1888 -0.6930
 8193TIP3    H248775   2.753   4.700  10.810 -2.4530 -3.1206  4.3458
 8194TIP3   OH248776   6.203   0.873  11.333  0.3187  0.3810 -0.2354
 8194TIP3    H148777   6.288   0.872  11.378  0.3182  0.3041 -0.2362
 8194TIP3    H248778   6.147   0.817  11.387  1.3167 -2.8956 -2.3469
 8195TIP3   OH248779   8.288   1.734  11.224  0.1024 -0.4584 -0.1322
 8195TIP3    H148780   8.228   1.716  11.296  1.7224  0.1268  1.4284
 8195TIP3    H248781   8.246   1.695  11.148 -1.4433 -1.5346  1.2023
 8196TIP3   OH248782   2.712   0.348  11.203 -0.0192  0.4053 -0.1448
 8196TIP3    H148783   2.763   0.373  11.280  0.2538 -1.0003  0.1627
 8196TIP3    H248784   2.621   0.364  11.227  0.0774  0.1380  0.4154
 8197TIP3   OH248785   6.734   1.087  10.890  0.5625  0.4240 -0.0360
 8197TIP3    H148786   6.777   1.013  10.848 -0.8724 -0.1567 -0.5431
 8197TIP3    H248787   6.645   1.056  10.907 -0.0420  1.9949 -0.1870
 8198TIP3   OH248788   6.273   2.583  10.893 -0.1059 -0.0651 -0.1697
 8198TIP3    H148789   6.299   2.674  10.878  0.5192  0.1366  1.8168
 8198TIP3    H248790   6.187   2.576  10.852 -0.1602  1.4142 -0.3862
 8199TIP3   OH248791   6.744   5.423  10.923  0.1449  0.1233  0.0257
 8199TIP3    H148792   6.784   5.390  11.003 -1.9443  1.1816  1.5937
 8199TIP3    H248793   6.724   5.344  10.872 -1.9746 -0.9650  2.3128
 8200TIP3   OH248794   4.940   7.604  12.162 -0.1833  0.1774 -0.5375
 8200TIP3    H148795   4.915   7.521  12.122  0.7462 -1.1823  1.5173
 8200TIP3    H248796   5.022   7.585  12.208  0.6652  2.5434 -0.9246
 8201TIP3   OH248797   8.421   0.171  10.521  0.4614  0.7314  0.2211
 8201TIP3    H148798   8.459   0.254  10.494 -0.6740  1.3329  0.4099
 8201TIP3    H248799   8.495   0.110  10.524  1.1794  1.5337 -0.6891
 8202TIP3   OH248800   0.500   7.121  12.012 -0.1657 -0.4835 -0.5736
 8202TIP3    H148801   0.530   7.067  11.939  1.5256 -1.0381  0.4877
 8202TIP3    H248802   0.567   7.188  12.022  0.0551 -0.8849  0.9557
 8203TIP3   OH248803   2.197   4.746  12.280 -0.0376  0.3752 -0.0171
 8203TIP3    H148804   2.215   4.785  12.365  0.7087 -0.8148  0.4029
 8203TIP3    H248805   2.276   4.760  12.229  0.2790 -0.6029  0.1698
 8204TIP3   OH248806   7.294   5.834  12.431  0.5277  0.0666  0.2991
 8204TIP3    H148807   7.366   5.845  12.368 -0.1893  1.8652 -0.2680
 8204TIP3    H248808   7.247   5.757  12.400  0.7445  0.3646 -0.8276
 8205TIP3   OH248809   0.878   0.909  10.935  0.6936  0.3494 -0.3787
 8205TIP3    H148810   0.934   0.834  10.956  0.1877  0.2310  0.5939
 8205TIP3    H248811   0.905   0.978  10.996  3.1574  2.0358 -3.0952
 8206TIP3   OH248812   0.250   1.961  10.639 -0.2069  0.5733  0.3027
 8206TIP3    H148813   0.321   2.023  10.657 -0.2258  0.4574  0.8021
 8206TIP3    H248814   0.293   1.888  10.596  0.8102 -1.3796  4.1537
 8207TIP3   OH248815   1.811   7.701  11.887  0.1068  0.0905 -0.2399
 8207TIP3    H148816   1.875   7.758  11.844  0.7503  0.0754  0.6784
 8207TIP3    H248817   1.851   7.678  11.971 -0.1498 -1.6959 -0.5718
 8208TIP3   OH248818   4.047   4.750  12.092  0.0060 -0.5348 -0.2544
 8208TIP3    H148819   4.085   4.671  12.052  1.9025  0.7457 -1.1649
 8208TIP3    H248820   4.025   4.724  12.181  1.1886 -1.9402 -0.3272
 8209TIP3   OH248821   5.805   4.988  12.056  0.6665  0.0613 -0.2781
 8209TIP3    H148822   5.721   4.972  12.098  0.1937 -1.3215 -1.6622
 8209TIP3    H248823   5.868   4.988  12.128  0.0256 -3.2337  0.4335
 8210TIP3   OH248824   3.029   3.867  10.629 -0.2152 -0.0217 -0.1095
 8210TIP3    H148825   2.942   3.864  10.589 -1.0276  3.5212  1.0465
 8210TIP3    H248826   3.014   3.848  10.721  0.5311 -0.9713 -0.1675
 8211TIP3   OH248827   2.562   2.584  10.837  0.3211 -0.0636 -0.2585
 8211TIP3    H148828   2.641   2.636  10.824 -0.6439  1.5799  0.2190
 8211TIP3    H248829   2.519   2.623  10.913 -1.7130  0.0566 -1.3969
 8212TIP3   OH248830   4.565   0.281  11.300  0.7289  0.4073 -0.0928
 8212TIP3    H148831   4.490   0.294  11.357 -0.3618  1.2815 -1.6804
 8212TIP3    H248832   4.639   0.273  11.360 -0.8986 -3.6679  1.7741
 8213TIP3   OH248833   0.203   1.179  11.096 -0.4801  0.3670 -0.8902
 8213TIP3    H148834   0.271   1.200  11.160  0.1304  1.6508 -1.9006
 8213TIP3    H248835   0.122   1.209  11.137 -0.3973 -0.7126  0.1136
 8214TIP3   OH248836   1.498   0.553  11.946 -0.4811  0.4685  0.1473
 8214TIP3    H148837   1.491   0.458  11.936  0.0171  0.4630 -0.2149
 8214TIP3    H248838   1.506   0.586  11.856 -1.4229  0.9257  0.2226
 8215TIP3   OH248839   8.432   3.960  11.174  0.4333  0.0536  0.2820
 8215TIP3    H148840   8.346   3.947  11.214  0.9710  0.5141  1.6634
 8215TIP3    H248841   8.414   4.015  11.097 -0.8585 -2.3663 -1.2907
 8216TIP3   OH248842   1.398   2.664  12.290 -0.3169 -0.3679 -0.0210
 8216TIP3    H148843   1.352   2.733  12.243 -1.3760 -1.2450 -0.2996
 8216TIP3    H248844   1.432   2.607  12.221  0.5607 -0.1485  0.2079
 8217TIP3   OH248845   8.140   6.619  10.779  0.6125  0.4402  0.5949
 8217TIP3    H148846   8.055   6.664  10.773  0.0077 -0.5399  1.5124
 8217TIP3    H248847   8.170   6.635  10.868  0.4820 -0.7848  0.8746
 8218TIP3   OH248848   7.626   5.875  10.521 -0.0611 -0.2694 -1.0506
 8218TIP3    H148849   7.694   5.811  10.544  0.0267  0.5899  1.3708
 8218TIP3    H248850   7.675   5.957  10.508 -0.3746 -0.2495 -2.2668
 8219TIP3   OH248851   6.721   7.978  12.433 -0.0363 -0.1995 -0.7972
 8219TIP3    H148852   6.708   7.998  12.340  0.8109 -0.8563 -1.0747
 8219TIP3    H248853   6.653   7.914  12.453 -1.0879  0.9505 -0.5909
 8220TIP3   OH248854   4.574   0.032  10.966  0.1214  0.0031 -0.7287
 8220TIP3    H148855   4.581   0.065  10.876  2.3057  0.0837 -0.5775
 8220TIP3    H248856   4.643   0.078  11.014 -0.7762 -0.3186  0.9128
 8221TIP3   OH248857   7.635   0.629  10.782  0.2593 -0.1096  0.5520
 8221TIP3    H148858   7.639   0.665  10.693 -0.0713 -0.4816  0.3868
 8221TIP3    H248859   7.691   0.688  10.833 -0.2786  0.6436  0.2890
 8222TIP3   OH248860   1.186   7.336  11.097  0.1957 -0.4038 -0.0135
 8222TIP3    H148861   1.195   7.354  11.004  1.2172  0.0322  0.1567
 8222TIP3    H248862   1.192   7.240  11.103 -0.0100 -0.4442 -0.4047
 8223TIP3   OH248863   4.283   4.534  11.958 -0.0907  0.3168 -0.3395
 8223TIP3    H148864   4.247   4.514  11.872 -2.9853  1.2397  0.5640
 8223TIP3    H248865   4.246   4.469  12.017  0.7274  0.5412  0.4594
 8224TIP3   OH248866   0.012   0.642  11.966  0.0396  0.0211 -0.1203
 8224TIP3    H148867  -0.077   0.640  12.001 -0.2176  0.2967 -0.7449
 8224TIP3    H248868   0.066   0.668  12.041 -0.6168  1.4893 -0.1156
 8225TIP3   OH248869   5.221   2.253  12.294  0.2409  0.3090  0.4394
 8225TIP3    H148870   5.314   2.229  12.297  0.2335 -0.1013 -1.5339
 8225TIP3    H248871   5.183   2.210  12.371  1.2841 -1.3697  0.0686
 8226TIP3   OH248872   8.280   6.090  10.705 -0.7402  0.1846 -0.2217
 8226TIP3    H148873   8.370   6.119  10.701 -1.0896  1.1330 -2.7748
 8226TIP3    H248874   8.285   6.000  10.737  1.2942 -0.4071 -2.0091
 8227TIP3   OH248875   7.066   4.706  11.713  0.3547  0.4251 -0.0620
 8227TIP3    H148876   7.080   4.783  11.768 -2.9461 -0.0104  1.6564
 8227TIP3    H248877   7.040   4.742  11.628  0.7495  1.1568  0.1164
 8228TIP3   OH248878   2.691   8.186  11.723 -0.0910  0.1221  0.0749
 8228TIP3    H148879   2.713   8.246  11.795  1.2178  0.4401 -0.5502
 8228TIP3    H248880   2.676   8.243  11.648 -0.2346 -0.2656 -0.1919
 8229TIP3   OH248881   7.646   3.566  11.509  0.5574 -0.1630  0.4655
 8229TIP3    H148882   7.632   3.553  11.415 -1.6343 -2.0315  0.9783
 8229TIP3    H248883   7.647   3.661  11.520 -2.7771  0.1910 -1.0297
 8230TIP3   OH248884   8.124   5.637  11.859  0.0751 -0.4774  0.2086
 8230TIP3    H148885   8.207   5.606  11.895 -0.7354 -0.9926  1.7407
 8230TIP3    H248886   8.072   5.659  11.937 -1.5680 -1.0781 -0.6917
 8231TIP3   OH248887   2.865   2.548  10.894  0.1835  0.1075 -0.4093
 8231TIP3    H148888   2.836   2.512  10.811 -1.3424 -0.8037  0.4850
 8231TIP3    H248889   2.945   2.499  10.915 -0.2171 -0.6469 -0.6476
 8232TIP3   OH248890   3.728   6.995  10.449 -0.0609 -0.2574 -0.1429
 8232TIP3    H148891   3.775   7.076  10.429  0.3391 -0.5257 -0.3062
 8232TIP3    H248892   3.781   6.926  10.409  1.7048 -1.0178  3.1490
 8233TIP3   OH248893   3.145   5.639  10.382 -0.1261 -0.0810 -0.4809
 8233TIP3    H148894   3.120   5.637  10.290 -0.9142 -2.5956 -0.2814
 8233TIP3    H248895   3.076   5.692  10.424  0.0243  0.7464 -1.2439
 8234TIP3   OH248896   5.772   3.384  10.722  0.2291 -0.0291 -0.2093
 8234TIP3    H148897   5.709   3.397  10.651  0.0191 -0.2020 -0.0540
 8234TIP3    H248898   5.854   3.419  10.687  0.2340 -0.5414 -0.7173
 8235TIP3   OH248899   1.421   4.166  11.970 -0.0554  0.5093  0.2253
 8235TIP3    H148900   1.515   4.158  11.988 -0.0136 -2.1430 -0.7341
 8235TIP3    H248901   1.393   4.077  11.947 -2.4226  1.5562 -1.3772
 8236TIP3   OH248902   3.540   7.164  10.612 -0.4558  0.6990  0.2502
 8236TIP3    H148903   3.603   7.208  10.669 -1.4175  3.0484 -0.3611
 8236TIP3    H248904   3.592   7.104  10.559  1.2573  2.3518 -0.0314
 8237TIP3   OH248905   7.224   3.931  10.633 -0.1065 -0.3780  0.3861
 8237TIP3    H148906   7.194   3.840  10.643  0.2821 -0.7165 -1.2230
 8237TIP3    H248907   7.147   3.984  10.650  0.0309 -0.8896  2.9875
 8238TIP3   OH248908   5.308   7.210  12.208  0.5270 -0.3171  0.6077
 8238TIP3    H148909   5.332   7.242  12.121 -1.9510  0.0978 -0.0013
 8238TIP3    H248910   5.214   7.192  12.202  0.2827 -0.3233  3.1951
 8239TIP3   OH248911   1.135   3.335  10.482  0.0779  0.2387 -0.2288
 8239TIP3    H148912   1.128   3.418  10.530  0.8453 -0.5716  1.3769
 8239TIP3    H248913   1.055   3.288  10.504 -0.3673  0.5361 -1.1584
 8240TIP3   OH248914   4.135   3.980  11.831 -0.3890  0.3946  0.3405
 8240TIP3    H148915   4.050   3.980  11.786  0.0608 -0.0275 -0.5451
 8240TIP3    H248916   4.125   3.918  11.903 -0.3721 -0.8577 -0.6981
 8241TIP3   OH248917   7.157   3.080  11.474  0.2143  0.1022  0.0137
 8241TIP3    H148918   7.138   3.061  11.565  1.3875  1.3254  0.5371
 8241TIP3    H248919   7.183   2.996  11.436  2.0284 -0.0191  1.4101
 8242TIP3   OH248920   6.213   0.042  11.639  0.0694  0.1424  0.1512
 8242TIP3    H148921   6.200   0.119  11.584 -2.8118 -0.5174 -0.2355
 8242TIP3    H248922   6.132  -0.008  11.631  1.2304 -2.1779  1.6142
 8243TIP3   OH248923   6.421   2.271  10.723 -0.4889 -0.5739 -0.0139
 8243TIP3    H148924   6.488   2.203  10.720 -1.1376 -1.1889 -1.6664
 8243TIP3    H248925   6.364   2.246  10.796  0.5401 -0.5443  0.8145
 8244TIP3   OH248926   6.627   4.587  12.096 -0.0038  0.1089  0.3250
 8244TIP3    H148927   6.573   4.536  12.035  2.2413 -1.3632 -0.5370
 8244TIP3    H248928   6.569   4.602  12.171 -1.4063 -2.0164 -0.2373
 8245TIP3   OH248929   1.227   0.615  11.134 -0.0512 -0.3092 -0.4271
 8245TIP3    H148930   1.241   0.709  11.127 -1.4639  0.1941  2.0182
 8245TIP3    H248931   1.274   0.577  11.061  3.2509  2.0227  0.2952
 8246TIP3   OH248932   3.417   7.507  12.549  0.2969 -0.0852  0.1843
 8246TIP3    H148933   3.432   7.413  12.563  1.1591 -0.0024 -0.1048
 8246TIP3    H248934   3.485   7.549  12.602  1.0350  0.3234 -1.0413
 8247TIP3   OH248935   6.338   0.793  11.078  0.0369 -0.1736 -0.2708
 8247TIP3    H148936   6.293   0.864  11.124  1.6765  0.9865 -0.3863
 8247TIP3    H248937   6.286   0.715  11.098 -1.4541  0.9345  0.3773
 8248TIP3   OH248938   0.364   3.926  11.200 -0.2308  0.5606 -0.2352
 8248TIP3    H148939   0.287   3.911  11.145 -0.7085  0.2715  0.5000
 8248TIP3    H248940   0.330   3.966  11.280  0.4448  0.8797 -0.0950
 8249TIP3   OH248941   8.254   2.785  12.449  0.8479 -0.5694  0.6100
 8249TIP3    H148942   8.161   2.763  12.452  0.7912 -0.2717  2.9669
 8249TIP3    H248943   8.256   2.881  12.444  1.0802 -0.6370 -1.3548
 8250TIP3   OH248944   4.099   5.533  12.924  0.0514 -0.2564 -0.9050
 8250TIP3    H148945   4.040   5.489  12.984  1.1100  0.7628  0.9781
 8250TIP3    H248946   4.042   5.571  12.857 -1.2332 -0.7953 -0.1474
 8251TIP3   OH248947   2.558   0.067  11.806 -0.1080 -0.4379 -0.4857
 8251TIP3    H148948   2.608   0.102  11.732  0.3894 -3.1497 -1.5629
 8251TIP3    H248949   2.468   0.066  11.774 -0.9939  3.9059  1.2460
 8252TIP3   OH248950   0.666   8.088  11.114 -0.2927 -0.4108 -0.0936
 8252TIP3    H148951   0.668   8.081  11.209 -0.8941 -1.0765 -0.1197
 8252TIP3    H248952   0.605   8.159  11.096  1.6546  1.4101  0.0493
 8253TIP3   OH248953   3.052   3.263  10.596  0.2071  0.1994  0.0650
 8253TIP3    H148954   3.036   3.351  10.563 -0.2172 -0.2983 -1.1210
 8253TIP3    H248955   2.967   3.236  10.632 -0.0597 -0.2565 -0.8903
 8254TIP3   OH248956   6.830   7.628  12.403  0.0484  0.0955  0.3667
 8254TIP3    H148957   6.888   7.639  12.478 -0.2864  1.5947  0.4419
 8254TIP3    H248958   6.743   7.618  12.441  0.0318 -0.3793  0.2077
 8255TIP3   OH248959   3.039   1.644  11.034 -0.1949 -0.0315  0.4776
 8255TIP3    H148960   3.100   1.601  10.974 -1.3933  0.9299 -1.5405
 8255TIP3    H248961   3.074   1.732  11.045 -2.1873  1.3129 -2.5105
 8256TIP3   OH248962   2.251   1.459  10.883 -0.4861  0.1145 -0.3027
 8256TIP3    H148963   2.190   1.497  10.946  1.0813 -0.2442  1.4958
 8256TIP3    H248964   2.302   1.533  10.851 -1.1561  0.2688 -1.0533
 8257TIP3   OH248965   2.805   7.475  11.283  0.4873 -0.3470  0.0428
 8257TIP3    H148966   2.777   7.511  11.367  2.6987  1.9571 -0.0910
 8257TIP3    H248967   2.726   7.434  11.247 -0.7392 -0.6101  2.8007
 8258TIP3   OH248968   6.522   4.501  11.384 -0.0276 -0.2668  0.3399
 8258TIP3    H148969   6.515   4.428  11.322 -2.3511 -1.0920  1.4383
 8258TIP3    H248970   6.460   4.566  11.351  1.9351  1.2306 -0.5616
 8259TIP3   OH248971   3.217   0.713  10.863 -0.0237 -0.0390 -0.3547
 8259TIP3    H148972   3.292   0.747  10.912  0.0623 -1.3689  0.4655
 8259TIP3    H248973   3.255   0.655  10.798 -0.3234 -0.5114 -0.1117
 8260TIP3   OH248974   7.833   3.708  11.206 -0.3882 -0.4847 -0.6085
 8260TIP3    H148975   7.864   3.788  11.162  0.7242 -0.0638  0.8507
 8260TIP3    H248976   7.862   3.719  11.297 -2.5816 -1.3298  0.2376
 8261TIP3   OH248977   4.865   8.202  10.981  0.4686 -0.1565  0.2872
 8261TIP3    H148978   4.770   8.198  10.974  0.4258 -1.4282  1.2705
 8261TIP3    H248979   4.885   8.296  10.981 -0.7041  0.1202 -0.7381
 8262TIP3   OH248980   3.377   3.435  12.328 -0.4387 -0.0235 -0.3472
 8262TIP3    H148981   3.362   3.347  12.363  3.8252 -0.0599  2.0488
 8262TIP3    H248982   3.429   3.420  12.248 -1.1194  0.3146 -0.8596
 8263TIP3   OH248983   1.183   4.116  10.359 -0.4786  0.0262 -0.4766
 8263TIP3    H148984   1.244   4.092  10.289 -0.8966  0.6705 -1.0781
 8263TIP3    H248985   1.224   4.191  10.402 -0.1276 -0.4929  0.1069
 8264TIP3   OH248986   3.687   0.933  10.823 -0.5805  0.2742  0.5543
 8264TIP3    H148987   3.668   0.841  10.804  1.3471 -0.0951  0.1915
 8264TIP3    H248988   3.634   0.953  10.900 -3.4460 -0.1806 -1.1359
 8265TIP3   OH248989   0.798   0.294  11.687 -0.0272  0.2260  0.1855
 8265TIP3    H148990   0.721   0.237  11.684 -0.0117  0.0600  2.0673
 8265TIP3    H248991   0.813   0.317  11.595 -1.5804 -0.7143 -0.3577
 8266TIP3   OH248992   0.002   1.788  10.679 -0.8943  0.1641  0.1526
 8266TIP3    H148993   0.084   1.837  10.685 -1.5356  1.2226  0.7075
 8266TIP3    H248994   0.001   1.732  10.756 -0.4507 -0.2653 -0.1462
 8267TIP3   OH248995   1.626   1.278  10.505 -0.1215 -0.1993  0.1436
 8267TIP3    H148996   1.578   1.199  10.479 -0.1076 -0.3977  0.7151
 8267TIP3    H248997   1.702   1.245  10.553 -0.3150  0.1691  0.7185
 8268TIP3   OH248998   3.913   0.702  11.766  0.5637 -0.5551 -0.1101
 8268TIP3    H148999   4.004   0.707  11.737  0.6801 -1.9741 -0.0616
 8268TIP3    H249000   3.905   0.768  11.835  1.5769 -0.4873 -0.0544
 8269TIP3   OH249001   2.973   5.176  11.841  0.0078 -1.0725 -0.1973
 8269TIP3    H149002   2.937   5.226  11.915  0.1157 -0.3146 -0.6437
 8269TIP3    H249003   3.067   5.194  11.844  0.0795 -1.4435 -0.2228
 8270TIP3   OH249004   6.898   2.912  12.404  0.6003 -0.8687  0.1180
 8270TIP3    H149005   6.957   2.838  12.413  1.1824 -0.2934  1.2448
 8270TIP3    H249006   6.956   2.987  12.392  0.0230 -0.5848 -1.1163
 8271TIP3   OH249007   7.493   1.832  12.481 -0.3777  0.6091  0.0508
 8271TIP3    H149008   7.468   1.862  12.568 -0.7866 -0.7906  0.4397
 8271TIP3    H249009   7.441   1.753  12.467  1.2944 -0.4402 -0.5582
 8272TIP3   OH249010   6.815   1.347  12.122 -0.3135 -0.3862  0.4877
 8272TIP3    H149011   6.836   1.396  12.201 -1.3417 -0.9757  1.1494
 8272TIP3    H249012   6.720   1.336  12.125 -0.5057  0.3848 -1.3131
 8273TIP3   OH249013   1.147   8.307  12.122 -0.1659  0.2767 -0.1500
 8273TIP3    H149014   1.227   8.288  12.073 -0.9449  0.2204 -1.4442
 8273TIP3    H249015   1.167   8.281  12.212  0.5574 -1.7785 -0.8459
 8274TIP3   OH249016   4.864   2.967  11.928 -0.0246 -0.2490 -0.1530
 8274TIP3    H149017   4.887   3.043  11.876  1.4988 -0.0410  0.7717
 8274TIP3    H249018   4.948   2.927  11.951 -0.5706 -0.0073  2.5825
 8275TIP3   OH249019   3.546   0.695  12.674 -0.7869  0.2316 -0.1202
 8275TIP3    H149020   3.614   0.747  12.716 -1.0669 -0.6910  1.5649
 8275TIP3    H249021   3.494   0.759  12.624  0.3436  1.1682 -0.1285
 8276TIP3   OH249022   5.665   2.116  10.651  0.4278 -0.4863  0.0101
 8276TIP3    H149023   5.643   2.099  10.743  0.4979 -1.1443 -0.0897
 8276TIP3    H249024   5.595   2.075  10.601  0.9969 -1.1689 -0.2577
 8277TIP3   OH249025   8.085   7.762  10.696 -0.5142 -1.2518  0.1223
 8277TIP3    H149026   8.066   7.804  10.612 -0.9870 -0.4295  0.6244
 8277TIP3    H249027   8.124   7.831  10.749  0.1760 -1.8796  0.4454
 8278TIP3   OH249028   2.512   6.422  10.687  0.2979  0.0005  0.0827
 8278TIP3    H149029   2.461   6.343  10.668 -0.3845  0.2716  0.7501
 8278TIP3    H249030   2.447   6.486  10.715  1.0566  0.2202  1.3961
 8279TIP3   OH249031   6.355   0.733  10.814 -0.5483 -0.1802  0.5032
 8279TIP3    H149032   6.267   0.726  10.776 -0.3785 -0.3384  0.1404
 8279TIP3    H249033   6.339   0.746  10.908 -0.9531 -0.4932  0.4808
 8280TIP3   OH249034   0.184   7.499  12.035  0.4487  0.3538  0.2798
 8280TIP3    H149035   0.241   7.570  12.005  1.3080 -0.0646  0.8801
 8280TIP3    H249036   0.208   7.424  11.981 -0.9871  0.6696 -0.8836
 8281TIP3   OH249037   1.162   1.120  10.956  0.3049 -0.9261 -0.0051
 8281TIP3    H149038   1.073   1.112  10.989  0.4660  0.4239  0.8584
 8281TIP3    H249039   1.181   1.214  10.961  1.2530 -0.9948 -1.5958
 8282TIP3   OH249040   7.698   6.495  10.843  0.4241 -0.5376 -0.0065
 8282TIP3    H149041   7.737   6.420  10.800  0.0871 -0.4596 -0.4525
 8282TIP3    H249042   7.605   6.472  10.851  0.3745 -0.2962  0.1274
 8283TIP3   OH249043   3.276   5.917  12.238  0.0873  0.0041 -0.0353
 8283TIP3    H149044   3.315   5.849  12.184  1.8453  0.3218  0.7751
 8283TIP3    H249045   3.292   5.998  12.191 -0.1754  0.0762 -0.0038
 8284TIP3   OH249046   3.676   5.386  11.527 -0.3849 -0.3495  0.0692
 8284TIP3    H149047   3.740   5.334  11.576  0.1031 -0.5033 -0.7083
 8284TIP3    H249048   3.604   5.325  11.511  0.1540 -0.7887 -0.7745
 8285TIP3   OH249049   6.447   2.085  12.241  0.8198 -0.2529  0.2195
 8285TIP3    H149050   6.507   2.137  12.294 -0.0596 -0.6534  1.6661
 8285TIP3    H249051   6.398   2.150  12.190  2.1279  0.1005 -0.6377
 8286TIP3   OH249052   8.276   0.923  11.685 -0.3732 -0.1591  0.9972
 8286TIP3    H149053   8.194   0.903  11.730 -0.0376 -1.5012  1.0674
 8286TIP3    H249054   8.254   0.996  11.627 -1.7911 -0.9075  0.5384
 8287TIP3   OH249055   1.321   3.741  11.362  0.2003 -0.2390 -0.5769
 8287TIP3    H149056   1.257   3.745  11.290 -1.5843 -0.1131  0.9458
 8287TIP3    H249057   1.340   3.647  11.372  0.3494 -0.2696 -1.1012
 8288TIP3   OH249058   7.597   2.309  10.848  0.7124  0.6818 -0.3397
 8288TIP3    H149059   7.630   2.260  10.773 -2.4123 -0.6956 -0.9950
 8288TIP3    H249060   7.586   2.243  10.917 -1.3898  0.8370 -0.4635
 8289TIP3   OH249061   1.201   5.276  12.016  0.2564  0.7537 -0.3848
 8289TIP3    H149062   1.146   5.353  12.002 -0.4476  0.6173  1.4075
 8289TIP3    H249063   1.221   5.277  12.110  0.3635 -1.1459 -0.3517
 8290TIP3   OH249064   1.551   0.429  11.107  0.0311 -0.1296  0.0660
 8290TIP3    H149065   1.487   0.495  11.081 -0.1991 -0.2292  0.3667
 8290TIP3    H249066   1.634   0.476  11.114 -0.4853  0.6034  2.3148
 8291TIP3   OH249067   4.002   2.886  12.731 -0.0453  0.1379 -0.3928
 8291TIP3    H149068   3.931   2.822  12.728  0.0759  0.0229 -1.0279
 8291TIP3    H249069   4.070   2.849  12.675 -0.2187  1.0894 -1.2612
 8292TIP3   OH249070   6.213   1.419  12.221 -0.6297  0.1260 -0.0557
 8292TIP3    H149071   6.209   1.373  12.138  0.1173  1.1510 -0.6878
 8292TIP3    H249072   6.251   1.356  12.282  1.1635  0.1163 -1.0971
 8293TIP3   OH249073   2.347   7.844  10.792  0.8293 -0.1874 -0.3472
 8293TIP3    H149074   2.252   7.857  10.783  1.0176  1.4896 -0.1576
 8293TIP3    H249075   2.385   7.913  10.738  1.9498  0.3882  1.1392
 8294TIP3   OH249076   3.522   5.138  12.742  0.1843 -0.1480  0.2107
 8294TIP3    H149077   3.449   5.198  12.728 -0.2895 -0.6914  0.3150
 8294TIP3    H249078   3.486   5.051  12.723  1.0886 -0.3313 -0.7657
 8295TIP3   OH249079   0.494   0.937  10.293  0.3133 -0.8629 -0.6370
 8295TIP3    H149080   0.528   0.848  10.294 -2.6983 -2.1444 -0.8351
 8295TIP3    H249081   0.403   0.929  10.321  0.2383  2.3545  0.5524
 8296TIP3   OH249082   4.591   1.889  11.303  0.1021  0.4225  0.6255
 8296TIP3    H149083   4.589   1.924  11.214 -1.9084  0.9525  0.8377
 8296TIP3    H249084   4.575   1.965  11.359 -3.0122 -0.4959  1.1555
 8297TIP3   OH249085   1.980   8.121  10.863 -0.6090  0.2243 -0.3806
 8297TIP3    H149086   1.885   8.132  10.873 -0.5893 -0.1453  0.3261
 8297TIP3    H249087   2.015   8.145  10.948 -0.3068 -2.1027  0.2429
 8298TIP3   OH249088   3.022   3.935  11.721  0.3282 -0.2228 -0.1701
 8298TIP3    H149089   2.967   3.991  11.776  3.0952  0.7038  1.8210
 8298TIP3    H249090   3.065   3.996  11.661 -0.0967 -0.8525 -1.1523
 8299TIP3   OH249091   1.865   4.321  11.702 -0.0862 -0.2720 -0.5678
 8299TIP3    H149092   1.907   4.287  11.623  1.2920 -0.8479  0.3711
 8299TIP3    H249093   1.788   4.266  11.714  1.2729 -2.0871  0.0727
 8300TIP3   OH249094   1.327   4.999  12.150 -0.2315  0.0005  0.3226
 8300TIP3    H149095   1.278   5.073  12.186  0.8705  0.8195  0.1825
 8300TIP3    H249096   1.381   4.967  12.223 -1.4207 -1.3312  0.6684
 8301TIP3   OH249097   1.666   5.075  11.855  0.2898 -0.1314  0.5708
 8301TIP3    H149098   1.676   5.084  11.761  0.4387  0.8848  0.6747
 8301TIP3    H249099   1.580   5.113  11.874 -0.1164 -1.1152  0.7401
 8302TIP3   OH249100   2.431   0.851  11.557  0.5112 -0.1501 -0.4195
 8302TIP3    H149101   2.398   0.842  11.468 -1.0647  1.7172 -0.1163
 8302TIP3    H249102   2.360   0.816  11.612  1.0844 -0.4701  0.1223
 8303TIP3   OH249103   4.224   4.001  12.203 -0.7903  0.1290 -0.1954
 8303TIP3    H149104   4.169   4.030  12.276  1.4050  0.8870  1.2430
 8303TIP3    H249105   4.285   3.939  12.241 -0.0446 -0.0073 -1.5436
 8304TIP3   OH249106   8.025   4.877  12.239 -0.6251  0.0166  0.2477
 8304TIP3    H149107   7.994   4.966  12.257 -0.0822 -0.2087  2.4916
 8304TIP3    H249108   7.991   4.824  12.311 -0.8819 -1.6140 -1.0120
 8305TIP3   OH249109   0.308   4.932  10.968  0.3246  0.1357 -0.1679
 8305TIP3    H149110   0.289   4.839  10.981 -0.3672  0.1464 -1.0145
 8305TIP3    H249111   0.400   4.934  10.941 -0.1157 -0.4747 -1.8260
 8306TIP3   OH249112   2.569   2.224  12.101  0.8169 -0.2697 -0.1315
 8306TIP3    H149113   2.500   2.183  12.048  0.3661 -0.0741  0.2969
 8306TIP3    H249114   2.563   2.317  12.080  0.8466 -0.2329  0.0207
 8307TIP3   OH249115   2.551   4.089  11.033 -0.1010  0.0271  0.4183
 8307TIP3    H149116   2.459   4.112  11.030  0.1341  1.0453  0.8924
 8307TIP3    H249117   2.576   4.078  10.941 -1.1513 -2.2213  0.3415
 8308TIP3   OH249118   3.643   7.665  12.666  0.1977 -0.5068 -0.3134
 8308TIP3    H149119   3.687   7.597  12.616  1.1618  0.0940 -0.3155
 8308TIP3    H249120   3.711   7.701  12.724 -0.1388  0.8041 -0.6906
 8309TIP3   OH249121   1.582   1.308  11.232  0.7670  0.0456 -0.2441
 8309TIP3    H149122   1.592   1.398  11.263 -2.4125  0.1376  0.8452
 8309TIP3    H249123   1.563   1.257  11.310 -1.8955 -0.7033 -1.2606
 8310TIP3   OH249124   6.457   4.139  10.645 -0.0659  0.3226 -0.2957
 8310TIP3    H149125   6.464   4.047  10.620  1.0457  0.5016 -0.6858
 8310TIP3    H249126   6.539   4.158  10.691 -0.9975  0.6708  1.3030
 8311TIP3   OH249127   5.355   8.385  10.647  0.3707  0.0814  0.4237
 8311TIP3    H149128   5.320   8.373  10.735 -2.5755 -0.7478 -0.7580
 8311TIP3    H249129   5.392   8.300  10.623 -1.7825 -0.7379 -0.2556
 8312TIP3   OH249130   1.124   0.388  11.901 -0.0230 -0.0118 -0.3590
 8312TIP3    H149131   1.093   0.328  11.833  0.1628 -0.4681 -0.0471
 8312TIP3    H249132   1.059   0.457  11.903  0.0123  0.0555 -1.0612
 8313TIP3   OH249133   4.995   1.704  10.696  0.2344 -0.3892 -0.5728
 8313TIP3    H149134   5.040   1.789  10.701  1.8561 -1.2688  1.3343
 8313TIP3    H249135   5.035   1.661  10.621  0.5447 -0.0719 -0.5945
 8314TIP3   OH249136   2.772   3.858  10.514  0.2119 -0.4154  0.1552
 8314TIP3    H149137   2.744   3.787  10.572  1.0884  0.2577  1.4449
 8314TIP3    H249138   2.691   3.900  10.486 -0.2705 -1.3547  0.0966
 8315TIP3   OH249139   3.338   8.090  12.194 -0.0960 -0.1079  0.1022
 8315TIP3    H149140   3.270   8.087  12.127 -0.7497  1.6815  0.6201
 8315TIP3    H249141   3.416   8.124  12.149 -0.5060  0.9957  0.1861
 8316TIP3   OH249142   3.631   2.536  12.100  0.4430  0.2628  0.2561
 8316TIP3    H149143   3.674   2.506  12.180  0.9014 -0.5772 -0.3014
 8316TIP3    H249144   3.575   2.608  12.129  1.2889  0.5632  1.1826
 8317TIP3   OH249145   8.317   4.945  12.171 -0.6348 -0.5177  0.1080
 8317TIP3    H149146   8.252   4.978  12.233  1.6076  0.9381  1.8226
 8317TIP3    H249147   8.347   4.862  12.210  0.4343  0.1662  0.8107
 8318TIP3   OH249148   1.780   3.148  10.287 -0.6424 -0.1222 -0.3140
 8318TIP3    H149149   1.778   3.238  10.256  1.1441  0.3435  0.7974
 8318TIP3    H249150   1.704   3.141  10.345 -0.8040  0.6528 -0.4163
 8319TIP3   OH249151   5.587   5.691  12.165 -0.1806 -0.7844 -0.3196
 8319TIP3    H149152   5.639   5.741  12.228  0.4334 -0.4950 -1.0387
 8319TIP3    H249153   5.545   5.757  12.110  0.1735 -1.0412 -0.9097
 8320TIP3   OH249154   3.413   0.320  11.366  0.4318 -0.6842  0.6437
 8320TIP3    H149155   3.352   0.327  11.439  0.2446  0.4902  0.3825
 8320TIP3    H249156   3.382   0.244  11.316 -1.4107  0.4413 -0.0156
 8321TIP3   OH249157   4.702   2.578  11.876  0.1448 -0.2877 -0.0997
 8321TIP3    H149158   4.702   2.544  11.966 -0.3446 -0.6476 -0.2317
 8321TIP3    H249159   4.782   2.543  11.837  0.0558 -0.6318  0.0173
 8322TIP3   OH249160   4.580   5.636  12.357 -0.0860  0.9709  0.2427
 8322TIP3    H149161   4.642   5.635  12.430 -1.2230 -1.9042  1.3501
 8322TIP3    H249162   4.507   5.690  12.389  0.3484  1.5158  0.3314
 8323TIP3   OH249163   0.366   1.379  11.207  0.0202 -0.1072  0.0113
 8323TIP3    H149164   0.460   1.398  11.207  0.1616 -0.7372  0.7286
 8323TIP3    H249165   0.332   1.424  11.130  0.9990 -0.2906 -0.5377
 8324TIP3   OH249166   0.411   7.499  10.792 -0.0466 -0.0534  0.0777
 8324TIP3    H149167   0.340   7.544  10.838 -0.6540 -1.1951  0.3019
 8324TIP3    H249168   0.485   7.500  10.854 -0.6361 -0.9619  0.8300
 8325TIP3   OH249169   3.668   2.649  11.377 -0.1784 -0.3018  0.2456
 8325TIP3    H149170   3.625   2.620  11.296 -1.2722 -0.9440  1.0154
 8325TIP3    H249171   3.748   2.597  11.381  0.4128  0.4886 -0.9328
 8326TIP3   OH249172   6.910   6.575  11.762 -0.0600  0.4914  0.0929
 8326TIP3    H149173   6.824   6.543  11.789 -0.3594  1.0544 -0.1820
 8326TIP3    H249174   6.966   6.559  11.838 -1.4610  4.4365  2.2575
 8327TIP3   OH249175   5.230   4.660  11.713 -0.4133 -0.5538 -0.1341
 8327TIP3    H149176   5.225   4.608  11.633 -1.4271  0.6494 -0.8999
 8327TIP3    H249177   5.141   4.658  11.749 -0.6807  1.2224 -0.5963
 8328TIP3   OH249178   5.747   1.719  11.479  0.0189 -0.5782 -0.1657
 8328TIP3    H149179   5.688   1.786  11.444 -0.3319  0.2812  1.9588
 8328TIP3    H249180   5.832   1.738  11.437 -0.2426  0.7461 -0.1332
 8329TIP3   OH249181   1.946   5.773  12.405 -0.1838 -0.2230  0.0115
 8329TIP3    H149182   1.963   5.865  12.423  0.2271 -0.1734 -0.5923
 8329TIP3    H249183   1.920   5.771  12.313  0.7636 -0.8242 -0.2543
 8330TIP3   OH249184   3.619   5.827  10.404  0.2276 -0.0448 -0.2221
 8330TIP3    H149185   3.627   5.842  10.498  0.3421 -1.1018 -0.0504
 8330TIP3    H249186   3.685   5.884  10.365 -0.0774  0.6865  0.3062
 8331TIP3   OH249187   1.245   7.442  12.347 -0.0092 -0.4518  1.0018
 8331TIP3    H149188   1.322   7.448  12.402  1.7122  0.0722 -1.2938
 8331TIP3    H249189   1.243   7.351  12.317 -0.1049 -0.3829  0.7950
 8332TIP3   OH249190   4.010   5.832  12.771 -0.3090  0.2652  0.0534
 8332TIP3    H149191   4.098   5.866  12.758 -0.1830 -0.7693 -2.2895
 8332TIP3    H249192   4.010   5.747  12.725 -3.1168  1.2288 -2.0190
 8333TIP3   OH249193   4.795   6.845  11.534 -0.3636 -0.2895  0.2841
 8333TIP3    H149194   4.790   6.940  11.518 -5.2183 -0.1974  0.7909
 8333TIP3    H249195   4.806   6.837  11.628 -0.0531 -0.1963  0.2541
 8334TIP3   OH249196   7.955   1.017  10.966  0.3052 -0.5968  0.4712
 8334TIP3    H149197   7.879   1.076  10.962  0.0387 -1.0012 -1.2082
 8334TIP3    H249198   8.030   1.075  10.971 -0.0626 -0.1730  1.3257
 8335TIP3   OH249199   0.136   4.169  12.495  0.1906  0.0643  0.7413
 8335TIP3    H149200   0.150   4.191  12.587 -1.7123 -1.9839  1.6142
 8335TIP3    H249201   0.172   4.081  12.486 -0.0263  0.0813 -0.3693
 8336TIP3   OH249202   1.715   2.350  15.369 -0.4183  0.2719  0.3949
 8336TIP3    H149203   1.774   2.418  15.338  1.5954 -2.1115 -1.4141
 8336TIP3    H249204   1.772   2.281  15.401 -2.2576 -1.4369  0.1767
 8337TIP3   OH249205   2.108   5.079  10.453 -0.4786  0.1487  0.7864
 8337TIP3    H149206   2.166   5.140  10.498 -2.0975  0.4743  2.5488
 8337TIP3    H249207   2.076   5.128  10.377 -0.9236  1.1229  1.5878
 8338TIP3   OH249208   3.854   7.191  12.026  0.6201 -0.0457  0.3353
 8338TIP3    H149209   3.896   7.227  12.104  0.1382 -0.9807  1.0523
 8338TIP3    H249210   3.878   7.252  11.955  0.6141  1.1309  1.3054
 8339TIP3   OH249211   5.085   6.308  11.496  0.0567 -0.4312  0.5319
 8339TIP3    H149212   5.122   6.225  11.466  1.1415  0.4651 -0.7867
 8339TIP3    H249213   5.137   6.375  11.451 -1.4086  0.9535  0.7828
 8340TIP3   OH249214   3.793   1.765  11.399  0.1209  0.1405 -0.2395
 8340TIP3    H149215   3.745   1.812  11.330  0.3414  0.3692 -0.2380
 8340TIP3    H249216   3.828   1.834  11.455 -1.6262 -0.0572  1.1858
 8341TIP3   OH249217   8.249   0.305  10.717  0.0195 -0.6893  0.3405
 8341TIP3    H149218   8.301   0.254  10.655  0.5805  1.6046 -1.2352
 8341TIP3    H249219   8.164   0.316  10.674 -0.3493 -0.9040  0.9961
 8342TIP3   OH249220   0.487   6.164  11.368  0.7472 -0.0464  0.1916
 8342TIP3    H149221   0.393   6.180  11.356  0.6865 -0.6408 -0.2066
 8342TIP3    H249222   0.525   6.183  11.282  0.4929 -3.1188 -0.7265
 8343TIP3   OH249223   2.298   4.179  11.571 -0.4651  0.0126 -0.8265
 8343TIP3    H149224   2.216   4.220  11.542 -1.2955 -1.7170 -1.0621
 8343TIP3    H249225   2.346   4.162  11.490 -0.1839  0.3877 -0.7394
 8344TIP3   OH249226   1.861   5.911  10.493 -0.1857  0.1386  0.2581
 8344TIP3    H149227   1.895   5.822  10.488  0.4332  0.3719  0.1801
 8344TIP3    H249228   1.913   5.952  10.563  1.4299  1.2249 -1.4665
 8345TIP3   OH249229   1.881   6.307  10.415 -0.1727  1.0620  0.5456
 8345TIP3    H149230   1.811   6.357  10.457  0.3562  0.7667  1.8531
 8345TIP3    H249231   1.840   6.226  10.387 -1.4403  2.7468 -3.0821
 8346TIP3   OH249232   2.846   4.364  12.016 -0.1130  0.1187  0.1707
 8346TIP3    H149233   2.822   4.368  12.109  0.5779  0.0278  0.3602
 8346TIP3    H249234   2.813   4.446  11.980 -1.4750 -0.3811  0.2179
 8347TIP3   OH249235   0.050   2.396  10.957  0.0412 -0.3087  0.6505
 8347TIP3    H149236   0.053   2.316  10.904 -1.1356 -0.2579  0.4852
 8347TIP3    H249237  -0.025   2.444  10.924  1.4317  1.4920 -0.1012
 8348TIP3   OH249238   2.779   0.062  16.641  0.1310 -0.0623  0.7441
 8348TIP3    H149239   2.738   0.006  16.574  0.5596  0.4074  0.0748
 8348TIP3    H249240   2.818   0.134  16.591 -1.4815  1.5340  1.6874
 8349TIP3   OH249241   8.162   3.885  11.324  0.3792 -0.0397 -0.4676
 8349TIP3    H149242   8.104   3.886  11.248  1.6056 -1.0439 -1.4671
 8349TIP3    H249243   8.115   3.834  11.390  0.0154 -0.6580 -1.1866
 8350TIP3   OH249244   7.915   0.678  11.367 -0.7250  0.2160 -0.2457
 8350TIP3    H149245   7.987   0.732  11.334 -0.9736  0.5792 -0.2043
 8350TIP3    H249246   7.838   0.736  11.364 -1.3491 -0.6454 -1.7688
 8351TIP3   OH249247   1.850   1.034  11.313  0.2707  0.5323  0.4981
 8351TIP3    H149248   1.844   1.114  11.261  2.2055  0.0060 -0.6813
 8351TIP3    H249249   1.863   1.065  11.403  1.9270  1.6225 -0.0546
 8352TIP3   OH249250   0.305   4.638  11.581 -0.2825 -0.5906  0.2170
 8352TIP3    H149251   0.315   4.640  11.676  1.1736 -0.9135  0.0903
 8352TIP3    H249252   0.385   4.597  11.549 -1.6289 -2.3785 -1.0493
 8353TIP3   OH249253   1.898   6.564  11.036  0.2241 -0.0725  0.2213
 8353TIP3    H149254   1.946   6.523  11.108  2.2545 -0.4784 -1.2708
 8353TIP3    H249255   1.888   6.655  11.063 -1.7394 -0.7873  2.2764
 8354TIP3   OH249256   2.929   7.201  11.268 -0.1633 -0.1590 -0.7120
 8354TIP3    H149257   2.900   7.287  11.299 -0.1328 -0.2379 -0.4587
 8354TIP3    H249258   2.872   7.182  11.194  0.6257  0.6187 -1.5456
 8355TIP3   OH249259   2.255   4.638  11.131  0.1892  0.0483 -0.3113
 8355TIP3    H149260   2.204   4.706  11.087 -0.2786 -0.0037  0.1417
 8355TIP3    H249261   2.346   4.659  11.109 -0.0050  0.3279 -0.8633
 8356TIP3   OH249262   5.943   0.190  11.942 -0.1175 -0.1679 -0.8267
 8356TIP3    H149263   5.873   0.248  11.970  1.8768  1.1134  2.0562
 8356TIP3    H249264   5.951   0.126  12.013  2.5328  0.6771 -0.2345
 8357TIP3   OH249265   5.212   4.304  10.854  0.3768 -0.2517  0.3590
 8357TIP3    H149266   5.183   4.356  10.778 -2.1064 -0.1628  1.2772
 8357TIP3    H249267   5.267   4.235  10.816  3.5418  2.7093 -0.9449
 8358TIP3   OH249268   4.320   3.390  11.219  0.1421 -0.2613 -0.0087
 8358TIP3    H149269   4.343   3.318  11.160  1.0529 -0.1141  0.1602
 8358TIP3    H249270   4.348   3.361  11.306  0.3125  0.1996  0.0944
 8359TIP3   OH249271   6.018   2.992  10.488 -0.1534 -0.3729  0.6269
 8359TIP3    H149272   6.071   2.913  10.482 -0.7168 -0.6904 -0.5061
 8359TIP3    H249273   6.052   3.049  10.420  0.0235  0.2354  1.2123
 8360TIP3   OH249274   7.596   4.858  12.606 -0.6860 -0.5363  0.1985
 8360TIP3    H149275   7.647   4.923  12.655 -1.0031  0.9558 -1.3413
 8360TIP3    H249276   7.589   4.784  12.666  0.5681  0.4352  1.6572
 8361TIP3   OH249277   5.876   3.332  11.613 -0.2763 -0.2965 -0.1715
 8361TIP3    H149278   5.845   3.287  11.535  0.4854  1.4461 -1.5387
 8361TIP3    H249279   5.796   3.359  11.658 -0.7401  0.1100 -1.2060
 8362TIP3   OH249280   4.628   7.085  10.993  0.1143  0.0015  0.5994
 8362TIP3    H149281   4.565   7.073  11.064  1.2479  1.2691  1.8719
 8362TIP3    H249282   4.624   7.003  10.944  0.6321 -1.6985  3.2065
 8363TIP3   OH249283   2.852   6.782  12.958  0.0517 -0.2898  0.2465
 8363TIP3    H149284   2.902   6.848  12.909 -0.4271  0.1245  0.3089
 8363TIP3    H249285   2.770   6.773  12.910 -0.0706 -0.5073  0.4946
 8364TIP3   OH249286   8.431   1.378  11.351  0.2417 -0.2587  0.2069
 8364TIP3    H149287   8.515   1.363  11.395  1.5663  2.1377 -1.2961
 8364TIP3    H249288   8.367   1.385  11.422  1.9991  1.7745  1.6944
 8365TIP3   OH249289   6.142   1.222  12.716 -0.8615  0.4100  0.1909
 8365TIP3    H149290   6.145   1.127  12.702 -1.1132  0.4176  0.0910
 8365TIP3    H249291   6.234   1.248  12.721 -0.7056  0.4465 -1.7623
 8366TIP3   OH249292   1.113   5.234  11.474  0.0192 -0.3125 -0.5343
 8366TIP3    H149293   1.194   5.252  11.426 -0.6284 -1.3272 -2.1060
 8366TIP3    H249294   1.083   5.320  11.503  0.9828  0.2268 -1.0747
 8367TIP3   OH249295   2.031   1.119  10.434  0.6099 -0.5052  0.1302
 8367TIP3    H149296   2.116   1.083  10.410  0.5399 -0.2705 -0.4888
 8367TIP3    H249297   2.035   1.211  10.407  0.7234 -0.0714  1.5332
 8368TIP3   OH249298   6.508   4.930  12.163  0.0304  0.3831 -0.0365
 8368TIP3    H149299   6.563   4.875  12.220  0.1668 -0.5154 -0.9913
 8368TIP3    H249300   6.570   4.966  12.099 -0.4884 -0.8258 -1.2666
 8369TIP3   OH249301   7.359   5.281  11.627  0.3773  0.3372  0.8050
 8369TIP3    H149302   7.428   5.343  11.651  0.8362  0.2493 -0.2727
 8369TIP3    H249303   7.392   5.195  11.654 -0.2971  0.5376  2.3828
 8370TIP3   OH249304   7.086   5.548  11.465 -0.4022  0.3327 -0.2066
 8370TIP3    H149305   7.028   5.473  11.477  0.0711 -0.0947 -0.5200
 8370TIP3    H249306   7.154   5.516  11.405 -0.3147  1.0791 -0.5160
 8371TIP3   OH249307   4.107   0.506  11.277  0.1021  0.4375 -0.0391
 8371TIP3    H149308   4.014   0.482  11.274 -0.1573  1.4309 -0.3217
 8371TIP3    H249309   4.107   0.601  11.289  1.0445  0.7349 -1.9903
 8372TIP3   OH249310   4.156   4.468  12.558 -0.1337  0.2476  0.0049
 8372TIP3    H149311   4.152   4.377  12.590  1.4435  0.3200  0.5137
 8372TIP3    H249312   4.141   4.521  12.637 -0.9962  0.4475 -0.2819
 8373TIP3   OH249313   7.755   0.817  10.965 -0.1787  0.3082  0.0719
 8373TIP3    H149314   7.691   0.888  10.975 -0.7329 -0.3388  1.3027
 8373TIP3    H249315   7.840   0.862  10.960 -0.5718  1.0869  0.2161
 8374TIP3   OH249316   2.282   5.203  12.239  0.4000  0.1536 -0.4303
 8374TIP3    H149317   2.254   5.244  12.321 -1.4312 -3.2091  0.8165
 8374TIP3    H249318   2.204   5.158  12.207  1.2871  0.6833 -3.6765
 8375TIP3   OH249319   2.323   7.292  10.427  0.0527  0.2593  0.1075
 8375TIP3    H149320   2.307   7.386  10.414  0.2957  0.1280 -1.2983
 8375TIP3    H249321   2.238   7.251  10.410  0.4572  0.0527 -1.5163
 8376TIP3   OH249322   6.266   4.424  10.347  0.0760 -0.6103 -0.2721
 8376TIP3    H149323   6.221   4.343  10.323 -0.0401 -1.2030  1.7065
 8376TIP3    H249324   6.238   4.441  10.437  2.6693 -0.1932  0.5416
 8377TIP3   OH249325   0.747   1.473  11.956 -0.1673  0.2083  0.3827
 8377TIP3    H149326   0.721   1.405  12.018  0.0464  2.1695  2.7718
 8377TIP3    H249327   0.838   1.451  11.933  0.1373  0.0225  1.6796
 8378TIP3   OH249328   3.527   2.277  10.708 -0.1645  0.3380 -0.5496
 8378TIP3    H149329   3.517   2.357  10.657  0.1502 -0.4438 -1.8597
 8378TIP3    H249330   3.456   2.220  10.678  0.1016 -0.1802 -0.2092
 8379TIP3   OH249331   5.729   4.245  11.248  0.2773  0.1330  0.2068
 8379TIP3    H149332   5.758   4.234  11.157  3.2546 -2.0967  1.2412
 8379TIP3    H249333   5.727   4.339  11.262 -1.9000  0.6358 -2.5246
 8380TIP3   OH249334   0.753   1.669  10.594  0.3331 -0.1406  0.8325
 8380TIP3    H149335   0.677   1.707  10.549  1.8098  0.8194 -0.9749
 8380TIP3    H249336   0.738   1.687  10.687 -0.7473  1.7063  0.3386
 8381TIP3   OH249337   7.976   1.684  10.775  0.5322  0.5780 -0.2725
 8381TIP3    H149338   8.001   1.658  10.687  0.9050 -1.0101  0.2762
 8381TIP3    H249339   7.908   1.750  10.762  0.0308 -0.1845 -1.7472
 8382TIP3   OH249340   3.345   2.873  10.762  0.4378 -0.2451  0.0719
 8382TIP3    H149341   3.398   2.951  10.779  0.1477  0.0727 -0.4701
 8382TIP3    H249342   3.277   2.903  10.702  0.5493 -1.0007 -0.4421
 8383TIP3   OH249343   1.402   4.779  11.957 -0.0033 -0.0578  0.0541
 8383TIP3    H149344   1.400   4.824  11.873  1.3019 -0.2173 -0.0816
 8383TIP3    H249345   1.368   4.843  12.020  0.6277  0.6716 -0.3311
 8384TIP3   OH249346   7.470   2.812  12.097  0.5738  0.2257  0.1525
 8384TIP3    H149347   7.524   2.868  12.153 -0.7792 -0.9726  2.9008
 8384TIP3    H249348   7.406   2.775  12.157 -0.5276 -1.8294 -2.1385
 8385TIP3   OH249349   6.841   8.173  12.565  0.2487  0.1161 -0.1191
 8385TIP3    H149350   6.791   8.098  12.535 -1.5792  1.3280 -0.2326
 8385TIP3    H249351   6.834   8.170  12.661 -0.2550  0.4176 -0.1446
 8386TIP3   OH249352   0.023   7.961  10.818 -0.0437  0.0547  0.8390
 8386TIP3    H149353   0.115   7.985  10.824 -0.0397 -0.1843  2.0654
 8386TIP3    H249354   0.023   7.877  10.772  0.2015  0.7853 -0.5486
 8387TIP3   OH249355   2.009   3.182  10.965  0.2108 -0.3721  0.0647
 8387TIP3    H149356   1.972   3.209  10.881 -1.2046 -1.0040  0.4703
 8387TIP3    H249357   2.089   3.135  10.941  0.4133  0.4055 -0.8549
 8388TIP3   OH249358   7.356   7.349  11.093  0.3355 -0.6464  0.2783
 8388TIP3    H149359   7.299   7.278  11.124  0.5509 -0.7213  0.5096
 8388TIP3    H249360   7.442   7.307  11.081  0.7384 -0.1961  1.4552
 8389TIP3   OH249361   5.146   2.550  10.275  0.7341  0.5287 -0.5569
 8389TIP3    H149362   5.232   2.548  10.315  0.7621 -2.5229 -0.5361
 8389TIP3    H249363   5.092   2.495  10.332 -1.0272  1.6731 -1.0367
 8390TIP3   OH249364   4.067   1.941  10.970  0.2424 -0.0882 -0.4571
 8390TIP3    H149365   4.033   1.902  11.050  1.8382  0.7004  0.6436
 8390TIP3    H249366   3.999   1.924  10.904 -0.4910 -1.9468  0.7100
 8391TIP3   OH249367   7.663   1.748  10.786  0.4822  0.4576 -0.2666
 8391TIP3    H149368   7.653   1.830  10.834  1.7984  1.4071 -1.5121
 8391TIP3    H249369   7.593   1.750  10.720  0.3680  0.4864 -0.1434
 8392TIP3   OH249370   5.058   1.306  11.549  0.3696  0.0365 -1.0472
 8392TIP3    H149371   5.117   1.275  11.480 -0.9125 -0.9375 -1.7399
 8392TIP3    H249372   5.067   1.401  11.547  2.0422 -0.0840 -0.9986
 8393TIP3   OH249373   2.713   3.752  11.867  0.6392  0.1632  0.0073
 8393TIP3    H149374   2.620   3.737  11.887  0.9829 -0.7684  1.0244
 8393TIP3    H249375   2.759   3.725  11.946  1.7511  1.2260 -0.2419
 8394TIP3   OH249376   3.280   7.503  11.913  0.2804  0.2381 -0.0069
 8394TIP3    H149377   3.246   7.558  11.984 -0.2992  1.1579 -0.9740
 8394TIP3    H249378   3.245   7.542  11.833  1.5393 -0.3161 -0.8663
 8395TIP3   OH249379   1.630   2.577  12.786  0.2282  0.4693  0.6536
 8395TIP3    H149380   1.599   2.489  12.805 -0.4532  0.5274 -0.1426
 8395TIP3    H249381   1.564   2.614  12.727  1.5854  0.7519 -0.7518
 8396TIP3   OH249382   3.327   5.391  12.022  0.2077  0.2265  0.5440
 8396TIP3    H149383   3.261   5.396  11.953  2.0131  1.8761 -1.2028
 8396TIP3    H249384   3.294   5.325  12.082 -1.7990 -0.8257 -1.5583
 8397TIP3   OH249385   1.833   4.150  10.661  0.4895 -0.3796 -0.2264
 8397TIP3    H149386   1.885   4.075  10.632 -0.4418 -0.8094 -0.8316
 8397TIP3    H249387   1.846   4.216  10.593  0.2495 -0.4903 -0.3821
 8398TIP3   OH249388   3.468   0.927  12.187  0.2132 -0.4246 -0.0154
 8398TIP3    H149389   3.532   0.903  12.120  0.9104 -0.4256  0.6358
 8398TIP3    H249390   3.441   0.843  12.226  1.6996 -0.3037  1.3948
 8399TIP3   OH249391   7.453   1.520  11.443 -0.2788 -0.2666 -0.1419
 8399TIP3    H149392   7.377   1.468  11.469 -1.0443  1.5986  1.6845
 8399TIP3    H249393   7.521   1.499  11.508 -0.2810  0.2609  0.0431
 8400TIP3   OH249394   6.099   5.705  11.147  0.0295  0.1727 -0.7774
 8400TIP3    H149395   6.188   5.672  11.140  0.1625 -0.2066  1.8060
 8400TIP3    H249396   6.056   5.645  11.209 -1.4303  1.5241 -0.4165
 8401TIP3   OH249397   5.403   0.638  11.839  0.3466  0.0610 -0.8539
 8401TIP3    H149398   5.325   0.688  11.863  0.4587  0.6599 -1.6551
 8401TIP3    H249399   5.472   0.704  11.833  0.7594 -0.3658 -0.8013
 8402TIP3   OH249400   7.001   0.400  11.440 -0.2016  0.0132  0.3107
 8402TIP3    H149401   6.975   0.439  11.523 -0.2708 -1.2611  0.9066
 8402TIP3    H249402   7.096   0.405  11.440 -0.2207  0.3855  0.2794
 8403TIP3   OH249403   0.029   7.023  10.793 -0.2652 -0.5121 -0.1099
 8403TIP3    H149404   0.078   7.069  10.725  0.4026  0.1065  0.7763
 8403TIP3    H249405  -0.018   6.954  10.745 -0.1784  0.1924 -1.2609
 8404TIP3   OH249406   4.695   1.226  11.436 -0.8122 -0.0935 -0.7323
 8404TIP3    H149407   4.712   1.320  11.424  0.4493 -0.3958 -1.5583
 8404TIP3    H249408   4.625   1.222  11.501 -0.2292  1.3998  0.0268
 8405TIP3   OH249409   1.298   5.706  10.662  0.4557 -0.6038  0.0452
 8405TIP3    H149410   1.211   5.735  10.691  0.4387 -1.0923  0.4842
 8405TIP3    H249411   1.328   5.647  10.730  0.1338 -2.3137 -1.2095
 8406TIP3   OH249412   4.525   1.120  12.657  0.5419  0.8472 -0.0211
 8406TIP3    H149413   4.524   1.028  12.684  0.5736  0.6985 -0.5074
 8406TIP3    H249414   4.611   1.152  12.683  0.5812  0.7002  0.0296
 8407TIP3   OH249415   7.383   8.259  10.404 -0.1477 -0.0841 -0.0783
 8407TIP3    H149416   7.376   8.350  10.374  1.0622  0.0801  0.0698
 8407TIP3    H249417   7.313   8.213  10.359 -1.4092  1.1136  0.5840
 8408TIP3   OH249418   2.518   5.977  12.214 -0.3019  0.1402  0.2079
 8408TIP3    H149419   2.435   5.943  12.248  1.2409 -2.2271  1.9372
 8408TIP3    H249420   2.574   5.985  12.291  1.1674  1.4974 -0.9410
 8409TIP3   OH249421   7.804   7.543  12.442  0.0626  0.6251 -0.5818
 8409TIP3    H149422   7.851   7.579  12.517 -0.9075  0.6890  0.0088
 8409TIP3    H249423   7.868   7.544  12.371  1.3684 -0.5313  0.5157
 8410TIP3   OH249424   0.469   5.535  10.936  0.5355 -0.1282 -0.5357
 8410TIP3    H149425   0.389   5.581  10.912  0.7732 -0.3272 -1.7508
 8410TIP3    H249426   0.444   5.482  11.013 -0.3181  0.3009 -0.5064
 8411TIP3   OH249427   7.674   2.467  12.495  0.2232 -0.1540 -0.4828
 8411TIP3    H149428   7.633   2.390  12.536  0.3315  0.9513  1.8658
 8411TIP3    H249429   7.738   2.497  12.559 -0.1927  2.2118 -1.1010
 8412TIP3   OH249430   4.371   2.042  12.072  0.1614  0.0118  0.3137
 8412TIP3    H149431   4.345   1.956  12.039 -1.4433 -0.7824  3.3041
 8412TIP3    H249432   4.326   2.105  12.015  2.4004 -0.9425 -2.7650
 8413TIP3   OH249433   1.037   7.227  11.427  0.1213 -0.0541 -0.0020
 8413TIP3    H149434   1.103   7.162  11.403  1.0565  1.2639 -1.1826
 8413TIP3    H249435   0.955   7.179  11.431  0.8118 -1.3176 -0.7085
 8414TIP3   OH249436   7.442   0.093  12.201 -0.0207 -0.1504  0.4163
 8414TIP3    H149437   7.393   0.167  12.236  0.1463 -0.4499  1.3068
 8414TIP3    H249438   7.519   0.086  12.259  0.4947 -0.3749 -0.2852
 8415TIP3   OH249439   7.365   0.243  11.472  0.2974 -0.0423  0.0158
 8415TIP3    H149440   7.293   0.192  11.437  0.0021  0.9382 -0.8465
 8415TIP3    H249441   7.336   0.334  11.464  0.7516  0.2869  1.6241
 8416TIP3   OH249442   6.282   0.219  12.447  0.3157 -0.4746 -0.1382
 8416TIP3    H149443   6.353   0.227  12.511  0.1324  0.2163 -0.0155
 8416TIP3    H249444   6.296   0.134  12.406  1.0113 -0.4955  0.1337
 8417TIP3   OH249445   4.776   6.135  12.800  0.6298 -0.4776 -0.1874
 8417TIP3    H149446   4.838   6.066  12.775 -0.7620 -2.1305  0.7845
 8417TIP3    H249447   4.830   6.214  12.802  2.3999 -1.5923 -0.8308
 8418TIP3   OH249448   0.750   0.282  10.628  0.3773 -0.3927 -0.0009
 8418TIP3    H149449   0.703   0.360  10.657 -1.4502 -1.8477  1.1909
 8418TIP3    H249450   0.831   0.315  10.588 -0.0920  2.0410  0.9439
 8419TIP3   OH249451   6.692   2.245  12.551  0.0267  0.0982 -0.7635
 8419TIP3    H149452   6.768   2.194  12.580 -0.3810  0.1080  0.3486
 8419TIP3    H249453   6.629   2.236  12.621 -0.9111  0.3224 -1.5596
 8420TIP3   OH249454   5.113   6.780  12.434 -0.0325 -0.3858  0.1177
 8420TIP3    H149455   5.101   6.686  12.446  1.2085 -0.6586 -0.6403
 8420TIP3    H249456   5.093   6.795  12.342  0.8181 -0.1003 -0.0313
 8421TIP3   OH249457   0.641   1.697  11.843  0.0928 -0.3101 -0.7106
 8421TIP3    H149458   0.651   1.645  11.922  0.2268 -0.4214 -0.8011
 8421TIP3    H249459   0.658   1.636  11.771 -2.2753 -0.8083 -0.9326
 8422TIP3   OH249460   8.214   0.638  11.279 -0.6884 -0.0993  0.0272
 8422TIP3    H149461   8.156   0.713  11.261  0.2379  0.7780  0.5879
 8422TIP3    H249462   8.290   0.654  11.224 -0.2777 -0.3789  0.5084
 8423TIP3   OH249463   7.901   1.971  11.366 -0.3054 -0.4402 -0.0031
 8423TIP3    H149464   7.855   2.026  11.429 -2.7976  0.8801 -2.7086
 8423TIP3    H249465   7.990   1.965  11.400 -1.2095  1.0791  2.9969
 8424TIP3   OH249466   0.938   5.617  11.298 -0.0710 -0.5557  0.0938
 8424TIP3    H149467   0.878   5.552  11.335 -0.5776 -0.7294 -1.0020
 8424TIP3    H249468   0.898   5.701  11.320 -0.2756 -0.6516  0.0931
 8425TIP3   OH249469   0.586   3.331  11.289  0.1953 -0.3766 -0.1324
 8425TIP3    H149470   0.559   3.413  11.247 -2.9472 -0.5462  1.3347
 8425TIP3    H249471   0.649   3.358  11.356  2.4506  0.2719 -2.3437
 8426TIP3   OH249472   1.743   0.001  10.999 -0.2009  0.0947 -0.0842
 8426TIP3    H149473   1.811   0.063  10.975  0.7226 -0.5880  0.7016
 8426TIP3    H249474   1.665   0.031  10.951 -0.0678  2.4115  1.0138
 8427TIP3   OH249475   1.509   1.151  11.468 -0.1700 -0.0946 -0.1149
 8427TIP3    H149476   1.432   1.199  11.499 -0.3487 -1.1774  1.2129
 8427TIP3    H249477   1.483   1.059  11.471  0.2943 -0.3537 -2.2452
 8428TIP3   OH249478   0.561   8.332  12.280 -0.2607 -0.3684 -0.0763
 8428TIP3    H149479   0.576   8.402  12.344 -1.1362  0.2947 -0.5620
 8428TIP3    H249480   0.466   8.323  12.277 -0.2016 -0.8166 -0.8241
 8429TIP3   OH249481   5.540   1.774  12.168  0.2118  0.1355  0.3494
 8429TIP3    H149482   5.460   1.786  12.219 -1.2888  0.5414 -1.9514
 8429TIP3    H249483   5.535   1.684  12.135 -0.2666  0.7278 -1.2886
 8430TIP3   OH249484   2.116   1.290  11.285 -0.0620 -0.0895 -0.3074
 8430TIP3    H149485   2.036   1.293  11.233  0.4521  0.3831 -1.0947
 8430TIP3    H249486   2.131   1.381  11.311  1.3385  0.1828 -1.9373
 8431TIP3   OH249487   7.518   6.078  11.894  0.1972 -0.4680 -0.1693
 8431TIP3    H149488   7.438   6.076  11.947  0.2336 -0.3186 -0.1088
 8431TIP3    H249489   7.557   6.164  11.911 -0.4168  0.0760 -1.3762
 8432TIP3   OH249490   5.788   7.906  12.744 -0.2703 -0.0806 -0.3344
 8432TIP3    H149491   5.737   7.901  12.663 -1.5272 -0.7356  0.4701
 8432TIP3    H249492   5.761   7.829  12.794 -0.4960  1.0009  1.2683
 8433TIP3   OH249493   6.672   2.894  12.518  0.1766 -0.0020  0.1328
 8433TIP3    H149494   6.639   2.804  12.521  0.3137 -0.0838 -0.6099
 8433TIP3    H249495   6.767   2.884  12.513  0.1823  0.1796 -0.1351
 8434TIP3   OH249496   6.815   2.034  11.351 -0.6776 -0.7250  0.8096
 8434TIP3    H149497   6.860   2.118  11.341 -2.8314  0.4327  0.2257
 8434TIP3    H249498   6.839   1.984  11.273 -1.3204  0.3595 -0.1233
 8435TIP3   OH249499   5.742   0.067  11.175 -0.5286 -0.0436 -0.3742
 8435TIP3    H149500   5.795   0.129  11.226 -0.6056 -0.7395  0.5627
 8435TIP3    H249501   5.768   0.083  11.084  0.4519  0.4184 -0.0229
 8436TIP3   OH249502   6.728   1.727  11.854 -0.1649  0.4767  0.5167
 8436TIP3    H149503   6.665   1.748  11.785 -0.8015  0.1193  0.9786
 8436TIP3    H249504   6.704   1.638  11.881  0.3285  0.4691  0.9274
 8437TIP3   OH249505   2.322   7.844  11.717 -1.0291  0.0134 -0.0607
 8437TIP3    H149506   2.372   7.826  11.638  3.6839  1.5386  2.1991
 8437TIP3    H249507   2.311   7.758  11.758  1.1003 -0.2902 -0.0193
 8438TIP3   OH249508   7.328   0.840  11.156  0.2390 -0.1334  0.4711
 8438TIP3    H149509   7.368   0.817  11.241  1.1025  0.9994  0.3844
 8438TIP3    H249510   7.282   0.760  11.130  0.7560 -0.8179  1.5555
 8439TIP3   OH249511   6.554   1.308  12.194 -0.0735  0.3181 -0.6554
 8439TIP3    H149512   6.469   1.276  12.163 -1.1533  2.8211 -0.5299
 8439TIP3    H249513   6.537   1.339  12.283  0.3129  2.9833 -1.4295
 8440TIP3   OH249514   4.521   6.089  12.727  0.3151  0.0963 -0.2386
 8440TIP3    H149515   4.595   6.122  12.777  0.2658 -1.2370  0.7441
 8440TIP3    H249516   4.558   6.019  12.673 -0.1631 -0.3640  0.0252
 8441TIP3   OH249517   1.152   6.446  11.997  0.1196  0.8776  0.8972
 8441TIP3    H149518   1.196   6.395  11.929 -0.0772  0.1571  1.3023
 8441TIP3    H249519   1.215   6.452  12.068 -0.2662  0.1993  1.3119
 8442TIP3   OH249520   0.484   4.530  12.940 -0.1664 -0.5096 -0.0088
 8442TIP3    H149521   0.512   4.557  13.028 -1.2490 -0.8753  0.4743
 8442TIP3    H249522   0.520   4.596  12.882 -1.5175  1.1831  0.9766
 8443TIP3   OH249523   2.522   8.102  11.943 -0.3317  0.6597 -0.2513
 8443TIP3    H149524   2.568   8.018  11.939  0.8100  1.2824 -0.5860
 8443TIP3    H249525   2.590   8.166  11.966 -1.2660  1.4343  0.4738
 8444TIP3   OH249526   6.064   6.426  11.115  0.0985  0.1125  0.1623
 8444TIP3    H149527   6.146   6.403  11.071 -0.5518 -0.4463 -0.7833
 8444TIP3    H249528   6.050   6.356  11.178 -1.2372 -1.5491 -1.8553
 8445TIP3   OH249529   7.707   7.862  12.093  0.0824 -0.3990 -0.3801
 8445TIP3    H149530   7.614   7.840  12.087  0.1323 -0.5068 -0.8271
 8445TIP3    H249531   7.747   7.815  12.020  0.3457  0.4139 -0.7692
 8446TIP3   OH249532   0.861   5.818  12.333 -0.2496 -0.8085  0.7146
 8446TIP3    H149533   0.916   5.753  12.375 -0.4729  0.0442  2.4041
 8446TIP3    H249534   0.836   5.878  12.403 -3.1773 -1.0347 -0.0057
 8447TIP3   OH249535   2.141   0.075  10.577  0.3443 -0.2475 -0.0691
 8447TIP3    H149536   2.083   0.001  10.594  0.0686 -0.3823 -1.5410
 8447TIP3    H249537   2.105   0.146  10.630  1.3784 -1.4497  2.4233
 8448TIP3   OH249538   0.406   2.308  12.267 -0.5665 -0.1269  0.3142
 8448TIP3    H149539   0.313   2.326  12.283 -0.2770  0.5070  1.3688
 8448TIP3    H249540   0.409   2.214  12.250 -1.5346  0.0253 -0.8196
 8449TIP3   OH249541   0.263   2.227  11.397 -0.1808  0.6681  0.3453
 8449TIP3    H149542   0.266   2.131  11.408  1.0751  0.6900  0.3394
 8449TIP3    H249543   0.185   2.242  11.344 -1.3361 -0.2084  1.7248
 8450TIP3   OH249544   1.385   3.774  10.627  0.3342  0.0477 -0.5333
 8450TIP3    H149545   1.479   3.794  10.631  0.4989 -0.8413  0.5365
 8450TIP3    H249546   1.374   3.730  10.542  0.9091  0.0526 -0.6181
 8451TIP3   OH249547   8.259   3.569  11.007 -0.0330  0.1480  0.1420
 8451TIP3    H149548   8.230   3.483  10.977 -0.7039  0.3045  0.3026
 8451TIP3    H249549   8.249   3.566  11.103  1.2810 -0.0660  0.2813
 8452TIP3   OH249550   0.078   6.499  10.879  0.0428  0.1967  0.3892
 8452TIP3    H149551   0.031   6.579  10.903 -1.9771 -1.0369  0.8363
 8452TIP3    H249552   0.026   6.461  10.808  2.2397  0.3898 -1.4315
 8453TIP3   OH249553   4.761   6.036  11.042 -0.5711  0.0345 -0.4806
 8453TIP3    H149554   4.793   6.077  11.122  0.1926 -1.0735 -0.1874
 8453TIP3    H249555   4.794   6.092  10.971  2.3917 -1.1890 -0.2149
 8454TIP3   OH249556   7.778   6.018  12.450 -0.1688 -0.5642  0.2929
 8454TIP3    H149557   7.854   5.980  12.408  0.0948 -0.3873  0.6080
 8454TIP3    H249558   7.784   6.112  12.432 -1.8921 -0.8460 -2.2359
 8455TIP3   OH249559   1.331   2.095  10.549 -0.4267 -0.3843 -0.2745
 8455TIP3    H149560   1.326   2.085  10.644 -1.1824  1.6827 -0.0492
 8455TIP3    H249561   1.299   2.184  10.532 -0.7840 -0.8726 -2.5097
 8456TIP3   OH249562   0.139   2.591  12.682  0.0776 -0.0327 -0.8059
 8456TIP3    H149563   0.098   2.678  12.675 -0.2240 -0.0354  0.6482
 8456TIP3    H249564   0.075   2.538  12.728  1.1419 -0.4178  0.2817
 8457TIP3   OH249565   5.644   4.438  10.935 -0.2058 -0.0612  0.5015
 8457TIP3    H149566   5.689   4.354  10.943  1.4498  0.7799  0.4950
 8457TIP3    H249567   5.569   4.432  10.994  0.5990 -1.0885  1.4484
 8458TIP3   OH249568   3.158   5.384  10.812 -0.0587 -0.1049  0.7785
 8458TIP3    H149569   3.205   5.425  10.884  0.5311 -0.7619  0.7686
 8458TIP3    H249570   3.199   5.420  10.733 -1.6896  1.8075  0.6915
 8459TIP3   OH249571   3.873   5.490  10.606 -0.3564 -0.0565  0.8853
 8459TIP3    H149572   3.900   5.486  10.514  1.8931 -2.2528  1.5424
 8459TIP3    H249573   3.814   5.565  10.610  0.2666  0.7309 -2.1370
 8460TIP3   OH249574   2.061   0.628  12.549  0.5002  0.0132 -0.7341
 8460TIP3    H149575   2.027   0.707  12.506 -0.1400 -0.3370 -0.8782
 8460TIP3    H249576   1.985   0.571  12.560  0.6289  0.1142  0.9522
 8461TIP3   OH249577   2.944   5.645  11.910  0.1273 -0.1203 -0.0327
 8461TIP3    H149578   2.896   5.655  11.827  1.3780  0.2933 -0.7446
 8461TIP3    H249579   3.018   5.705  11.901  0.4334 -0.2849  1.2831
 8462TIP3   OH249580   5.640   1.302  11.280  0.0190 -0.1339  0.0552
 8462TIP3    H149581   5.715   1.292  11.223 -0.6485  1.9909 -1.2979
 8462TIP3    H249582   5.581   1.361  11.233 -2.0660 -0.9291  1.4990
 8463TIP3   OH249583   2.591   8.146  11.091  0.0597 -0.1959  0.0676
 8463TIP3    H149584   2.605   8.136  10.997  0.5618 -0.6927  0.1925
 8463TIP3    H249585   2.559   8.061  11.120  0.9995 -0.3967  0.5400
 8464TIP3   OH249586   7.249   1.727  10.403 -0.1901 -0.1281 -0.3132
 8464TIP3    H149587   7.173   1.669  10.409 -0.4481 -0.2869 -3.4362
 8464TIP3    H249588   7.211   1.815  10.404 -0.4528 -0.2014 -1.4897
 8465TIP3   OH249589   3.605   6.791  12.395 -0.3994  0.3162  0.2363
 8465TIP3    H149590   3.639   6.797  12.484  0.3104  1.1576 -0.0815
 8465TIP3    H249591   3.548   6.714  12.397 -0.5467  0.4299  1.4649
 8466TIP3   OH249592   7.531   5.788  12.260 -0.7392 -0.2828  0.2055
 8466TIP3    H149593   7.469   5.790  12.187 -1.9998  0.9074  1.2290
 8466TIP3    H249594   7.601   5.848  12.234 -0.5427 -0.8097 -0.5134
 8467TIP3   OH249595   2.321   4.547  11.406  0.3231 -0.1157  0.4024
 8467TIP3    H149596   2.303   4.604  11.332  0.1400 -0.5775  0.0929
 8467TIP3    H249597   2.351   4.465  11.367  1.9363  0.2146  0.8646
 8468TIP3   OH249598   3.933   8.403  10.681  0.0830 -0.2124  0.0328
 8468TIP3    H149599   3.849   8.383  10.723  0.0039 -0.2093 -0.1239
 8468TIP3    H249600   3.914   8.475  10.621 -0.0166 -0.8656 -0.7324
 8469TIP3   OH249601   5.442   3.254  12.630  0.2720  0.9232 -0.7971
 8469TIP3    H149602   5.441   3.180  12.568 -0.9027  1.3466 -1.3017
 8469TIP3    H249603   5.495   3.222  12.703 -0.1361 -0.4038 -1.0400
 8470TIP3   OH249604   2.955   4.948  11.393  0.4433  0.3208 -0.3872
 8470TIP3    H149605   2.870   4.913  11.420  0.2836 -0.0730 -1.3693
 8470TIP3    H249606   2.934   5.012  11.325  0.9460  0.0471 -0.8090
 8471TIP3   OH249607   6.008   1.703  11.374  0.3067  0.3875 -0.8001
 8471TIP3    H149608   6.030   1.634  11.311  0.7066  0.3885 -0.6657
 8471TIP3    H249609   6.014   1.784  11.325  0.4538  0.3747 -0.8043
 8472TIP3   OH249610   0.919   4.112  10.906  0.0939  0.3449  0.0306
 8472TIP3    H149611   0.866   4.059  10.847 -0.3172  2.4057 -1.5759
 8472TIP3    H249612   0.857   4.145  10.971  0.4397 -1.4417  1.3422
 8473TIP3   OH249613   5.456   1.506  11.964  0.0460 -0.1203  0.0263
 8473TIP3    H149614   5.391   1.507  12.035  1.5011  1.5324  1.4376
 8473TIP3    H249615   5.539   1.493  12.009  1.2267  2.7423 -1.0957
 8474TIP3   OH249616   5.663   7.110  12.940  0.5002  0.6590  0.2592
 8474TIP3    H149617   5.648   7.030  12.989 -2.9848  0.7825 -0.3152
 8474TIP3    H249618   5.738   7.091  12.884  0.1485 -1.9723  0.5752
 8475TIP3   OH249619   6.576   6.431  11.521  0.7421 -0.4563 -0.2078
 8475TIP3    H149620   6.547   6.449  11.432  1.0126  0.7225 -0.0713
 8475TIP3    H249621   6.610   6.341  11.518 -0.7090 -1.0106 -0.9075
 8476TIP3   OH249622   7.737   1.515  11.505  0.0254  0.2163  0.2402
 8476TIP3    H149623   7.740   1.430  11.549  0.8233  0.8453  1.4613
 8476TIP3    H249624   7.784   1.502  11.423  0.1008 -0.5415  0.3988
 8477TIP3   OH249625   2.422   6.149  11.226 -0.3555  0.4454 -0.1889
 8477TIP3    H149626   2.448   6.060  11.251  0.8810  1.0039  0.5987
 8477TIP3    H249627   2.430   6.151  11.130 -1.4878 -0.6104 -0.3245
 8478TIP3   OH249628   3.598   8.287  10.724 -0.0944 -0.0751 -0.8332
 8478TIP3    H149629   3.510   8.297  10.689 -0.7292  1.8760  1.0810
 8478TIP3    H249630   3.628   8.202  10.691 -3.1202 -1.3589 -0.6091
 8479TIP3   OH249631   5.867   0.554  11.288 -0.4641 -0.1596  0.0356
 8479TIP3    H149632   5.862   0.605  11.207 -1.3851  0.1991  0.3027
 8479TIP3    H249633   5.929   0.602  11.343 -0.6641  0.2050 -0.0501
 8480TIP3   OH249634   5.335   0.355  12.389 -0.2292  0.1617  0.8540
 8480TIP3    H149635   5.411   0.350  12.448 -0.9230 -2.5210  1.6891
 8480TIP3    H249636   5.267   0.304  12.434 -1.5168 -0.1244 -1.2875
 8481TIP3   OH249637   3.561   5.686  11.215  0.6521  0.3469  0.4807
 8481TIP3    H149638   3.621   5.670  11.288 -0.1043  0.5776  1.1723
 8481TIP3    H249639   3.583   5.620  11.150  1.4120  0.2060  0.8718
 8482TIP3   OH249640   7.161   2.534  11.075 -0.1788  0.2172 -0.1424
 8482TIP3    H149641   7.202   2.451  11.100 -0.9901 -0.0173  0.4526
 8482TIP3    H249642   7.123   2.568  11.156 -0.2331  0.9622 -0.4687
 8483TIP3   OH249643   0.641   1.395  11.391  0.3433 -0.2153 -0.4172
 8483TIP3    H149644   0.618   1.303  11.379 -0.5498  0.0447 -0.7973
 8483TIP3    H249645   0.713   1.410  11.330  0.0569 -0.5017 -0.8308
 8484TIP3   OH249646   7.315   0.202  11.745 -0.0136  0.4292  0.4833
 8484TIP3    H149647   7.361   0.225  11.664  0.1663 -2.0767 -0.2096
 8484TIP3    H249648   7.384   0.180  11.807 -0.1882 -0.5739  0.3381
 8485TIP3   OH249649   7.046   7.334  11.479  0.4084 -0.3974 -0.1298
 8485TIP3    H149650   7.051   7.239  11.483  0.4270 -0.3432  1.9277
 8485TIP3    H249651   7.073   7.364  11.566  0.5992  1.5039 -0.7915
 8486TIP3   OH249652   3.171   7.330  11.303 -0.4183  0.1277  0.2825
 8486TIP3    H149653   3.255   7.287  11.290 -0.0307  1.5219 -2.7270
 8486TIP3    H249654   3.107   7.259  11.305  0.7048 -0.8878  1.6409
 8487TIP3   OH249655   1.389   5.944  11.067 -0.6197  0.2823 -0.2870
 8487TIP3    H149656   1.326   5.882  11.031  1.5301 -1.6445 -1.0014
 8487TIP3    H249657   1.412   6.001  10.993 -0.4669  0.0623 -0.4086
 8488TIP3   OH249658   0.775   4.275  11.396 -0.3089  0.1154  0.4533
 8488TIP3    H149659   0.721   4.273  11.317  1.1897 -0.1010 -0.5915
 8488TIP3    H249660   0.796   4.367  11.409 -1.0585  0.2253  0.9814
 8489TIP3   OH249661   3.051   6.742  11.647  0.2090 -0.4149 -0.7210
 8489TIP3    H149662   3.056   6.715  11.555 -1.6328  0.1867 -1.0351
 8489TIP3    H249663   3.140   6.771  11.668  0.0870  2.3437 -3.2619
 8490TIP3   OH249664   6.468   7.777  11.395 -0.4065  0.1650  0.2299
 8490TIP3    H149665   6.439   7.710  11.333  1.2380  0.7253 -1.1885
 8490TIP3    H249666   6.478   7.729  11.478 -0.1541 -1.1408 -0.5291
 8491TIP3   OH249667   1.356   6.425  10.545  0.0530  0.0420  0.6124
 8491TIP3    H149668   1.408   6.345  10.541 -0.1549 -0.0724  0.1433
 8491TIP3    H249669   1.417   6.492  10.576  1.2839  0.5426 -2.5281
 8492TIP3   OH249670   7.327   8.233  12.099 -0.2844 -0.1469 -0.1530
 8492TIP3    H149671   7.403   8.287  12.121 -0.1633  0.3471 -1.6287
 8492TIP3    H249672   7.364   8.155  12.057 -0.5315 -0.6289  0.5131
 8493TIP3   OH249673   5.007   4.662  12.459 -0.2404 -0.5653  0.2689
 8493TIP3    H149674   5.035   4.665  12.551  1.8454  0.7194 -0.3203
 8493TIP3    H249675   5.052   4.586  12.423  0.9147  0.3125 -0.2066
 8494TIP3   OH249676   1.638   5.256  12.071 -0.0627  0.4301  0.3432
 8494TIP3    H149677   1.609   5.253  12.162 -1.4386 -1.0311 -0.0855
 8494TIP3    H249678   1.718   5.204  12.068 -0.2244  0.1570  0.6816
 8495TIP3   OH249679   7.380   4.606  11.924  0.0454 -0.5801 -0.2217
 8495TIP3    H149680   7.302   4.551  11.926 -0.4453  0.1101  0.4236
 8495TIP3    H249681   7.411   4.607  12.015  1.0280 -1.1498 -0.5444
 8496TIP3   OH249682   1.821   0.060  10.715  0.2780  0.4459  1.2713
 8496TIP3    H149683   1.741   0.071  10.664  0.2056 -0.5233  1.1698
 8496TIP3    H249684   1.837   0.147  10.752 -0.7629  0.6798  1.2121
 8497TIP3   OH249685   5.159   5.017  12.166  0.0558 -0.5899  0.1168
 8497TIP3    H149686   5.161   5.112  12.176 -0.7719 -0.7577  2.8378
 8497TIP3    H249687   5.066   4.996  12.153 -0.3796 -1.1570  3.2097
 8498TIP3   OH249688   4.066   5.439  10.994 -0.2106 -0.3683 -0.0836
 8498TIP3    H149689   4.114   5.443  10.912 -1.3747  1.3275 -0.7351
 8498TIP3    H249690   4.120   5.486  11.057 -1.1140  1.9505 -0.9255
 8499TIP3   OH249691   5.216   3.721  11.785  0.0030  0.1646  0.1696
 8499TIP3    H149692   5.295   3.674  11.812 -1.1089 -1.5160  0.6865
 8499TIP3    H249693   5.189   3.679  11.703 -0.6132  0.3782  0.2560
 8500TIP3   OH249694   3.987   4.836  12.362  0.2414  0.3263  0.2654
 8500TIP3    H149695   4.053   4.767  12.363  1.2505  1.2643  0.0755
 8500TIP3    H249696   3.924   4.811  12.430  0.6794 -0.6807  0.3089
 8501TIP3   OH249697   2.609   0.194  12.265 -0.4866 -0.1756 -0.2493
 8501TIP3    H149698   2.531   0.142  12.282 -1.0159  0.2641 -1.2247
 8501TIP3    H249699   2.683   0.136  12.287 -1.0751 -0.7313  0.2940
 8502TIP3   OH249700   8.159   8.193  10.990  0.0276 -0.1087  0.0797
 8502TIP3    H149701   8.205   8.272  10.962 -0.2018  0.4498  1.2117
 8502TIP3    H249702   8.123   8.216  11.075 -1.6110 -0.8236 -0.3886
 8503TIP3   OH249703   2.975   1.752  10.665  0.1493  0.4115 -0.0412
 8503TIP3    H149704   2.921   1.772  10.742 -1.5661 -0.0477 -1.0558
 8503TIP3    H249705   3.047   1.814  10.669  0.9920 -0.6216  2.7530
 8504TIP3   OH249706   2.472   2.555  12.969 -0.1504 -0.0946  0.5531
 8504TIP3    H149707   2.427   2.517  12.893 -1.0082  3.7818 -1.1276
 8504TIP3    H249708   2.403   2.605  13.013  1.1082  0.5142  1.8684
 8505TIP3   OH249709   1.814   0.134  11.716  0.2605  0.3928  0.0393
 8505TIP3    H149710   1.895   0.131  11.767 -0.3066 -1.2272  0.9349
 8505TIP3    H249711   1.772   0.050  11.734 -2.5692  1.9332  1.1801
 8506TIP3   OH249712   2.527   4.130  11.976  0.4578  0.5554  0.0464
 8506TIP3    H149713   2.478   4.181  11.911  0.2749  0.0206 -0.2455
 8506TIP3    H249714   2.612   4.116  11.936  0.1762 -0.2023 -0.3006
 8507TIP3   OH249715   6.635   0.367  12.143  0.6697 -0.2056 -0.2083
 8507TIP3    H149716   6.607   0.401  12.229  2.9128 -0.0007  0.5109
 8507TIP3    H249717   6.633   0.272  12.153  3.5113 -0.2487  1.1233
 8508TIP3   OH249718   7.613   7.465  11.343  0.0530 -0.4734  0.3071
 8508TIP3    H149719   7.571   7.385  11.376 -0.4130  0.2506  1.5090
 8508TIP3    H249720   7.540   7.520  11.315  0.3012  0.0737  0.7345
 8509TIP3   OH249721   3.366   7.355  11.683  0.2148 -0.0817 -0.3774
 8509TIP3    H149722   3.319   7.272  11.671 -0.3751 -0.7031  4.3716
 8509TIP3    H249723   3.340   7.385  11.770  3.7775  2.8978 -0.1111
 8510TIP3   OH249724   1.685   0.704  11.064 -0.1681 -0.0428 -0.2123
 8510TIP3    H149725   1.600   0.731  11.028  0.5191  2.9275  0.1308
 8510TIP3    H249726   1.695   0.756  11.143  1.0772 -1.9566  0.9645
 8511TIP3   OH249727   2.176   3.592  11.384 -0.3547 -0.1367  0.4191
 8511TIP3    H149728   2.232   3.627  11.314 -1.9816  0.1059 -0.8335
 8511TIP3    H249729   2.190   3.498  11.381 -1.5851 -0.3272 -1.4148
 8512TIP3   OH249730   5.993   1.050  11.356 -0.7023 -0.5019 -0.0051
 8512TIP3    H149731   6.076   1.008  11.335 -0.0409  0.4956  0.5354
 8512TIP3    H249732   5.927   0.995  11.315  0.2873 -0.7052 -1.3857
 8513TIP3   OH249733   5.179   3.049  12.741 -0.2229  0.8835  0.7090
 8513TIP3    H149734   5.263   3.005  12.733 -0.6151  0.3599 -0.9645
 8513TIP3    H249735   5.194   3.117  12.807  1.4383  0.6550  0.6180
 8514TIP3   OH249736   6.316   3.919  11.325  0.5201  0.4067 -0.1333
 8514TIP3    H149737   6.230   3.909  11.284  1.0517  2.8395 -2.0903
 8514TIP3    H249738   6.296   3.943  11.416 -1.2323  5.1388 -1.4651
 8515TIP3   OH249739   5.385   5.860  11.770 -0.7666  0.5715 -0.7882
 8515TIP3    H149740   5.340   5.933  11.813 -1.9131  0.4263 -1.6885
 8515TIP3    H249741   5.347   5.782  11.810  0.2385  0.4405 -0.0467
 8516TIP3   OH249742   7.018   6.876  10.489 -0.3872 -0.5476  0.0703
 8516TIP3    H149743   7.093   6.930  10.512  0.9580 -1.8362 -1.0645
 8516TIP3    H249744   7.031   6.794  10.537 -0.4450 -1.2024 -0.9814
 8517TIP3   OH249745   2.763   7.778  10.159 -0.1821  0.1260  0.1779
 8517TIP3    H149746   2.689   7.820  10.202  0.6712  2.5117 -0.5045
 8517TIP3    H249747   2.742   7.782  10.065  0.7957  0.9167 -0.0351
 8518TIP3   OH249748   2.555   4.253  12.529 -0.2522  0.4178  0.4876
 8518TIP3    H149749   2.532   4.328  12.475  1.2116 -0.7076 -1.9233
 8518TIP3    H249750   2.630   4.282  12.581  2.0490  0.0758 -2.3455
 8519TIP3   OH249751   5.800   6.252  10.920 -0.0662 -0.8022 -0.2978
 8519TIP3    H149752   5.890   6.227  10.942  0.2493 -0.2738 -0.9518
 8519TIP3    H249753   5.758   6.270  11.004  1.2050  1.5415 -0.1054
 8520TIP3   OH249754   3.236   2.198  12.127  0.2440  0.0966  0.6076
 8520TIP3    H149755   3.211   2.254  12.200 -1.3386  0.4744 -0.1667
 8520TIP3    H249756   3.212   2.248  12.049 -0.2402 -1.2164 -0.1192
 8521TIP3   OH249757   4.499   0.647  10.911 -0.4007 -0.2055  0.1630
 8521TIP3    H149758   4.501   0.597  10.992  0.4834  2.2864  1.7940
 8521TIP3    H249759   4.452   0.591  10.849  0.6040 -3.0201  1.7792
 8522TIP3   OH249760   1.710   6.600  11.911  0.2485 -0.4965  0.3562
 8522TIP3    H149761   1.674   6.598  11.822  0.9806 -1.3987  0.0544
 8522TIP3    H249762   1.666   6.528  11.956 -1.7706  1.3121  1.4472
 8523TIP3   OH249763   4.860   2.396  13.201  0.0607 -0.0417 -0.4399
 8523TIP3    H149764   4.911   2.476  13.210 -0.4462  0.1098  1.6412
 8523TIP3    H249765   4.785   2.422  13.146  0.6804  0.4989 -1.0455
 8524TIP3   OH249766   4.984   5.031  11.078  0.0077 -0.8665 -0.3363
 8524TIP3    H149767   4.948   5.092  11.014 -0.2609  0.0235  0.6244
 8524TIP3    H249768   5.063   5.074  11.111  1.2528 -2.2123 -1.4685
 8525TIP3   OH249769   4.555   2.815  12.169 -0.0093  0.3686  0.1537
 8525TIP3    H149770   4.552   2.840  12.077  3.5007 -1.9173 -0.7727
 8525TIP3    H249771   4.639   2.848  12.201 -0.3023 -0.5008  2.0021
 8526TIP3   OH249772   6.545   0.796  12.706  0.0032 -0.5362  0.5331
 8526TIP3    H149773   6.466   0.797  12.652 -0.3040 -0.9006  0.9617
 8526TIP3    H249774   6.605   0.737  12.660  0.7297  1.1179 -0.7357
 8527TIP3   OH249775   2.812   7.596  10.633  0.3305  0.0636  0.2219
 8527TIP3    H149776   2.850   7.548  10.560  1.7409  0.2028  0.8377
 8527TIP3    H249777   2.765   7.529  10.683 -2.7027  0.3282 -1.9968
 8528TIP3   OH249778   0.332   3.217  11.185 -0.0531  0.0880 -0.7233
 8528TIP3    H149779   0.276   3.179  11.252 -1.2319 -1.5313 -2.5002
 8528TIP3    H249780   0.385   3.282  11.231 -0.4113 -1.3143  1.8290
 8529TIP3   OH249781   8.419   0.589  10.684  0.7936  0.6857 -0.0152
 8529TIP3    H149782   8.468   0.608  10.764  0.3478 -0.1321  0.4657
 8529TIP3    H249783   8.356   0.522  10.710  1.0515 -0.0471 -1.1958
 8530TIP3   OH249784   3.270   5.632  12.158 -0.1871 -0.1440  0.5860
 8530TIP3    H149785   3.304   5.549  12.126 -1.9169 -1.2378  1.4003
 8530TIP3    H249786   3.227   5.609  12.241  0.8640  1.8932  1.7605
 8531TIP3   OH249787   6.595   2.651  12.256 -0.0310 -0.0728  0.4977
 8531TIP3    H149788   6.644   2.732  12.256 -0.3052  0.1847 -2.2509
 8531TIP3    H249789   6.581   2.631  12.349 -0.1020  3.0741  1.2685
 8532TIP3   OH249790   1.355   0.498  10.914  0.1774 -0.0023 -0.2962
 8532TIP3    H149791   1.275   0.497  10.860  1.4476  4.5070 -2.7341
 8532TIP3    H249792   1.420   0.453  10.860  0.8420  2.3915 -1.6327
 8533TIP3   OH249793   5.965   5.319  11.872  0.4293  0.2421  0.0448
 8533TIP3    H149794   5.917   5.383  11.924 -0.1837 -0.7196  0.6955
 8533TIP3    H249795   5.899   5.256  11.844  0.5932  1.1819 -2.6629
 8534TIP3   OH249796   5.532   7.049  10.469 -0.3935 -0.0951  0.1112
 8534TIP3    H149797   5.497   6.994  10.399 -0.6857  0.4703 -0.1906
 8534TIP3    H249798   5.484   7.132  10.461 -0.1822  0.0980  0.7571
 8535TIP3   OH249799   6.337   1.225  11.739 -0.1498 -0.5263  0.6130
 8535TIP3    H149800   6.276   1.267  11.678 -1.4700 -1.2301  1.4060
 8535TIP3    H249801   6.424   1.245  11.704 -0.7539  1.7094  0.2220
 8536TIP3   OH249802   1.710   5.255  12.581 -0.1144  0.2801  0.4172
 8536TIP3    H149803   1.794   5.227  12.617  0.7157  2.4534  0.3358
 8536TIP3    H249804   1.717   5.351  12.576 -0.8605  0.3155 -3.7093
 8537TIP3   OH249805   0.310   2.859  11.460  0.3119 -0.4861 -0.1228
 8537TIP3    H149806   0.346   2.850  11.372  0.2339 -0.1783 -0.1899
 8537TIP3    H249807   0.235   2.918  11.449 -0.0224 -0.8747  0.0650
 8538TIP3   OH249808   1.129   7.890  12.050  0.0474  0.4377 -0.2187
 8538TIP3    H149809   1.069   7.965  12.051  0.5350  0.8487  1.5858
 8538TIP3    H249810   1.141   7.868  12.142  0.4263 -1.4764 -0.6924
 8539TIP3   OH249811   5.723   2.452  11.856  0.1841 -0.7506 -0.5376
 8539TIP3    H149812   5.754   2.378  11.803  1.6495  0.3071 -1.2267
 8539TIP3    H249813   5.795   2.469  11.918  0.6199  1.0948 -1.4752
 8540TIP3   OH249814   5.768   3.468  10.990  0.0566 -0.2762  0.5651
 8540TIP3    H149815   5.740   3.395  11.046  0.8914 -0.0200  1.3532
 8540TIP3    H249816   5.748   3.439  10.901 -1.4678 -0.6307  0.9799
 8541TIP3   OH249817   1.245   0.516  12.104 -0.3996 -0.1910  0.2232
 8541TIP3    H149818   1.207   0.473  12.027 -1.4013  0.4860  0.3310
 8541TIP3    H249819   1.317   0.458  12.130  0.9591  0.3181 -2.1060
 8542TIP3   OH249820   1.615   3.452  11.107 -0.1224  0.1527  0.1449
 8542TIP3    H149821   1.687   3.492  11.059 -1.1151  1.6875 -0.1301
 8542TIP3    H249822   1.657   3.395  11.171  1.2620 -1.5126 -2.0998
 8543TIP3   OH249823   2.217   5.406  11.665  0.0046  0.0150 -0.9032
 8543TIP3    H149824   2.271   5.327  11.665  2.4101  1.4836 -3.7631
 8543TIP3    H249825   2.221   5.439  11.576 -3.6429  1.6895 -0.6447
 8544TIP3   OH249826   6.389   6.796  10.795  0.4847 -0.3797  0.0790
 8544TIP3    H149827   6.420   6.709  10.822  0.7316 -0.0706  0.8313
 8544TIP3    H249828   6.421   6.806  10.705 -0.3611 -1.4449 -0.3583
 8545TIP3   OH249829   7.536   0.100  10.920 -0.6256 -0.5395 -0.1505
 8545TIP3    H149830   7.481   0.156  10.865  0.4464 -0.0649 -0.7951
 8545TIP3    H249831   7.614   0.154  10.937  0.7138 -2.0023 -1.2822
 8546TIP3   OH249832   1.336   6.242  11.705  0.0075  0.5592  0.4430
 8546TIP3    H149833   1.367   6.219  11.617 -0.3291 -0.1716  0.5051
 8546TIP3    H249834   1.256   6.293  11.690  0.6784  1.5969  0.3057
 8547TIP3   OH249835   8.151   2.856  11.856  0.4633 -0.0655  0.0423
 8547TIP3    H149836   8.173   2.879  11.766  1.0050 -1.9647 -0.3547
 8547TIP3    H249837   8.193   2.923  11.909  1.2507  0.3458 -1.0688
 8548TIP3   OH249838   2.701   1.508  13.016  0.5855 -0.6932 -0.3059
 8548TIP3    H149839   2.756   1.587  13.022 -0.4346  0.0311 -0.1401
 8548TIP3    H249840   2.726   1.456  13.092  1.2217 -0.4906 -0.3737
 8549TIP3   OH249841   0.272   1.393  11.471 -0.1319  0.1679 -0.2898
 8549TIP3    H149842   0.344   1.360  11.525 -0.0851 -0.0627 -0.4887
 8549TIP3    H249843   0.305   1.386  11.381 -0.7903 -0.9176 -0.4558
 8550TIP3   OH249844   1.038   5.455  18.202 -0.3955 -0.0501 -0.5256
 8550TIP3    H149845   1.114   5.436  18.148 -0.3213 -1.4689  0.0362
 8550TIP3    H249846   1.065   5.432  18.291 -1.3051 -0.0718 -0.2397
 8551TIP3   OH249847   0.106   0.424  12.332 -0.0159  0.1100 -0.0566
 8551TIP3    H149848   0.097   0.381  12.247 -0.3383 -0.7537  0.4055
 8551TIP3    H249849   0.195   0.403  12.360 -0.4069 -0.8527  0.4839
 8552TIP3   OH249850   5.669   5.983  11.677 -0.3535 -0.6344  0.3474
 8552TIP3    H149851   5.677   5.915  11.610  1.0004  1.0519 -1.3106
 8552TIP3    H249852   5.630   6.058  11.631  2.9173  1.4306  0.6507
 8553TIP3   OH249853   3.221   5.271  12.458  0.1309  0.0166 -0.6587
 8553TIP3    H149854   3.189   5.263  12.368  2.9464 -0.6073 -1.6915
 8553TIP3    H249855   3.271   5.352  12.459 -0.8632  0.6566  0.7422
 8554TIP3   OH249856   7.200   3.835  11.280  0.4777 -0.2927 -0.6784
 8554TIP3    H149857   7.200   3.907  11.217 -4.3185  2.2903  1.7711
 8554TIP3    H249858   7.138   3.771  11.244 -1.0606  0.4593  0.5058
 8555TIP3   OH249859   2.873   6.037  11.666 -0.1823  0.0887  0.3815
 8555TIP3    H149860   2.945   6.075  11.615  0.4278 -1.2721  0.1724
 8555TIP3    H249861   2.796   6.088  11.641  0.4876  0.7642 -0.3537
 8556TIP3   OH249862   5.360   8.137  11.608 -0.2133  0.0933  0.4146
 8556TIP3    H149863   5.369   8.232  11.610  0.5903  0.0371  0.0092
 8556TIP3    H249864   5.360   8.114  11.515  2.6407 -0.5327  0.4795
 8557TIP3   OH249865   1.398   7.506  11.855 -0.2492  0.1004  0.1371
 8557TIP3    H149866   1.356   7.456  11.925 -0.5506  1.3766  0.8967
 8557TIP3    H249867   1.490   7.479  11.859 -0.4344 -0.5123  0.4208
 8558TIP3   OH249868   2.755   0.096  12.013 -0.2326 -0.0624  0.4244
 8558TIP3    H149869   2.714   0.115  12.097 -1.1159  0.3670 -0.0805
 8558TIP3    H249870   2.682   0.095  11.951  0.6726  3.0360 -0.9126
 8559TIP3   OH249871   3.976   4.760  11.630 -0.8798 -0.2143  0.0075
 8559TIP3    H149872   3.894   4.785  11.585 -0.6584 -0.7918 -0.7408
 8559TIP3    H249873   4.033   4.731  11.559 -0.2150 -0.3327  0.5917
 8560TIP3   OH249874   2.545   1.042  11.885 -0.1271  0.2402 -0.1486
 8560TIP3    H149875   2.566   1.120  11.937 -2.0485  0.7018  0.0392
 8560TIP3    H249876   2.505   1.077  11.805 -0.4613 -0.5402 -0.3306
 8561TIP3   OH249877   6.691   8.366  11.750  0.2665 -0.0258 -0.5102
 8561TIP3    H149878   6.652   8.283  11.777  0.2284 -0.7047 -2.4506
 8561TIP3    H249879   6.622   8.408  11.698  1.5413 -0.5635 -2.7475
 8562TIP3   OH249880   8.355   4.988  15.886  0.5505  0.2126 -0.0712
 8562TIP3    H149881   8.262   5.002  15.867  0.5173 -0.2012 -0.2136
 8562TIP3    H249882   8.383   5.070  15.926  0.0180  0.1804  0.3767
 8563TIP3   OH249883   5.699   6.067  12.008  0.1127  0.1753 -0.4941
 8563TIP3    H149884   5.652   6.125  11.948 -0.3709  1.4645  1.0600
 8563TIP3    H249885   5.630   6.014  12.048  0.1829  0.7434  0.3964
 8564TIP3   OH249886   1.011   2.017  10.827 -0.2942  0.3809 -0.5048
 8564TIP3    H149887   1.082   2.018  10.892 -0.0418 -1.1761 -0.7168
 8564TIP3    H249888   0.938   1.974  10.873 -0.6104  0.6165 -0.7825
 8565TIP3   OH249889   4.203   7.967  10.968  0.1598  0.0061 -0.1564
 8565TIP3    H149890   4.292   7.936  10.952  0.4144  0.9173 -0.6098
 8565TIP3    H249891   4.148   7.910  10.915  0.6439  0.5161 -1.2387
 8566TIP3   OH249892   1.085   1.338  10.517 -0.1435 -0.5826  0.2773
 8566TIP3    H149893   1.035   1.418  10.503 -1.5726 -1.3299  0.8591
 8566TIP3    H249894   1.172   1.369  10.544  0.0108  0.7529 -1.5596
 8567TIP3   OH249895   3.686   3.562  12.386 -0.0275  0.3375  0.0101
 8567TIP3    H149896   3.615   3.511  12.347 -1.3350  1.9274  0.1742
 8567TIP3    H249897   3.755   3.498  12.405  0.0189 -0.7459 -3.3141
 8568TIP3   OH249898   0.675   4.261  10.948 -0.2432  0.4385 -0.5336
 8568TIP3    H149899   0.671   4.286  10.855 -0.4246 -0.5301 -0.7914
 8568TIP3    H249900   0.601   4.202  10.960  0.5358 -0.4778 -0.0923
 8569TIP3   OH249901   3.062   7.347  11.572 -0.0848  0.0448 -0.0731
 8569TIP3    H149902   3.063   7.430  11.619 -0.1314  0.7947 -1.3425
 8569TIP3    H249903   3.103   7.367  11.488  2.9329 -1.9534  0.7528
 8570TIP3   OH249904   3.367   5.452  11.023 -0.1667  0.2365  0.0478
 8570TIP3    H149905   3.362   5.396  11.100 -0.2498  2.5523  1.8275
 8570TIP3    H249906   3.460   5.457  11.002  0.0137  0.7671  0.9420
 8571TIP3   OH249907   6.561   1.908  11.337 -0.3989  0.1337  0.4160
 8571TIP3    H149908   6.646   1.948  11.356 -1.0214  2.0159 -0.5723
 8571TIP3    H249909   6.497   1.968  11.373 -1.3850  0.4511 -1.7060
 8572TIP3   OH249910   8.058   6.834  12.147  0.2339  0.0153 -0.6933
 8572TIP3    H149911   7.970   6.854  12.180  0.4692  0.8674 -0.5749
 8572TIP3    H249912   8.073   6.744  12.175 -1.2652 -0.7398 -2.1455
 8573TIP3   OH249913   6.701   4.174  11.099  0.5126 -0.3930  0.2543
 8573TIP3    H149914   6.730   4.100  11.153  0.1410 -0.1075  0.8578
 8573TIP3    H249915   6.759   4.246  11.124 -0.6310  0.1654  1.4217
 8574TIP3   OH249916   5.299   2.768  10.782  0.5354 -0.5446 -0.0523
 8574TIP3    H149917   5.251   2.829  10.837  1.1303 -0.3395  0.2498
 8574TIP3    H249918   5.355   2.825  10.728  2.0096 -0.8539  1.0906
 8575TIP3   OH249919   0.614   3.102  12.196  0.2346  0.2778 -0.3999
 8575TIP3    H149920   0.631   3.164  12.268 -1.2093  0.2292  0.0111
 8575TIP3    H249921   0.544   3.046  12.229 -2.2784  1.8317 -2.7288
 8576TIP3   OH249922   4.300   4.080  11.037  0.8078  0.3074  0.0408
 8576TIP3    H149923   4.371   4.111  10.980  1.0965  0.1893  0.3297
 8576TIP3    H249924   4.256   4.160  11.066 -0.3493  0.3047 -1.6027
 8577TIP3   OH249925   3.483   2.415  10.986  0.3587  0.4554  0.2881
 8577TIP3    H149926   3.470   2.510  10.977 -0.4039  0.4207  0.9181
 8577TIP3    H249927   3.468   2.380  10.898 -1.1935  0.7272  0.4237
 8578TIP3   OH249928   0.998   4.581  10.727 -0.2356  0.1214  0.8755
 8578TIP3    H149929   1.036   4.528  10.657  1.4013 -0.0813  1.8497
 8578TIP3    H249930   1.064   4.578  10.797 -0.2652  3.1244  1.1307
 8579TIP3   OH249931   5.296   4.792  12.640  0.7240  0.3609 -0.1683
 8579TIP3    H149932   5.237   4.722  12.670  0.4528  1.3055  1.6420
 8579TIP3    H249933   5.238   4.866  12.621  1.1126  0.4757 -0.9681
 8580TIP3   OH249934   7.599   1.222  12.670  0.0006 -0.4727  0.4371
 8580TIP3    H149935   7.594   1.300  12.615  2.3848 -0.1081  0.6366
 8580TIP3    H249936   7.556   1.154  12.619 -0.0577  0.4243 -0.7664
 8581TIP3   OH249937   1.620   6.895  11.457  0.4797 -0.6343  0.2886
 8581TIP3    H149938   1.564   6.915  11.532  0.1954  1.7802 -0.4738
 8581TIP3    H249939   1.678   6.826  11.488 -0.4513 -0.5780  2.3145
 8582TIP3   OH249940   8.379   7.077  11.918  0.0330  0.4532  0.1236
 8582TIP3    H149941   8.301   7.122  11.886 -0.1564 -0.2180 -0.3883
 8582TIP3    H249942   8.402   7.124  11.998 -1.3128  0.2237  0.6754
 8583TIP3   OH249943   2.957   6.110  11.033  0.1101 -0.1356  0.0640
 8583TIP3    H149944   2.919   6.144  10.952 -2.2869  1.5029  1.7304
 8583TIP3    H249945   2.912   6.027  11.048 -0.3827  0.1759  0.3337
 8584TIP3   OH249946   6.536   8.308  11.102 -0.0582 -0.2476  0.0286
 8584TIP3    H149947   6.602   8.260  11.053  0.0623  1.0622 -1.1695
 8584TIP3    H249948   6.583   8.341  11.179  0.0337 -1.3905  0.4841
 8585TIP3   OH249949   5.783   6.980  10.539 -0.5415  0.6111 -0.3431
 8585TIP3    H149950   5.697   7.006  10.506 -1.7867 -2.9156 -0.3566
 8585TIP3    H249951   5.790   6.887  10.518  1.2225 -0.4435  3.7757
 8586TIP3   OH249952   0.266   0.932  11.368  0.1088 -0.6028 -0.0793
 8586TIP3    H149953   0.353   0.924  11.407  0.3309 -2.3187 -0.8585
 8586TIP3    H249954   0.215   0.861  11.406 -0.3127 -0.9519 -1.2492
 8587TIP3   OH249955   1.241   8.195  10.448  0.0203 -0.0891  0.2858
 8587TIP3    H149956   1.225   8.290  10.449  1.7141  0.2265  1.4053
 8587TIP3    H249957   1.185   8.161  10.517  1.3139  0.5002  1.6930
 8588TIP3   OH249958   0.990   1.332  12.057 -0.3381  0.0058  0.3146
 8588TIP3    H149959   0.999   1.270  12.129  0.0028 -2.1470 -1.4593
 8588TIP3    H249960   1.047   1.405  12.081 -2.4788  0.7949  3.5238
 8589TIP3   OH249961   4.191   1.028  10.682 -0.1811 -0.0889  0.8277
 8589TIP3    H149962   4.155   1.116  10.671 -0.4011 -0.2132  0.5499
 8589TIP3    H249963   4.263   1.039  10.744 -0.9596  0.1041  1.7165
 8590TIP3   OH249964   8.065   5.699  10.829  0.0947  0.7762  0.1041
 8590TIP3    H149965   8.099   5.613  10.804 -1.6021 -0.3303  1.3608
 8590TIP3    H249966   8.111   5.719  10.911 -1.0112  0.0566  0.9223
 8591TIP3   OH249967   3.732   2.719  10.431 -0.4412 -0.7722 -0.5913
 8591TIP3    H149968   3.783   2.752  10.358  1.8534 -2.2390  0.2161
 8591TIP3    H249969   3.684   2.795  10.464  3.3395  1.5063  0.2549
 8592TIP3   OH249970   2.384   1.661  10.746 -0.2024 -0.2873  0.1241
 8592TIP3    H149971   2.470   1.636  10.714  0.2157  0.2490  0.8020
 8592TIP3    H249972   2.395   1.751  10.778 -1.2699  0.1805 -0.7472
 8593TIP3   OH249973   0.051   4.748  11.583 -0.3446  0.7184 -1.1701
 8593TIP3    H149974   0.046   4.760  11.488 -0.0061  0.5784 -1.2081
 8593TIP3    H249975   0.137   4.709  11.598 -0.1188  1.3505 -0.7416
 8594TIP3   OH249976   4.527   4.758  12.498  0.5509 -0.2636  0.5255
 8594TIP3    H149977   4.560   4.839  12.459  1.0712 -0.0024  1.4875
 8594TIP3    H249978   4.605   4.709  12.523  0.2913 -1.9228 -1.6944
 8595TIP3   OH249979   5.376   4.876  11.620  0.7011 -0.2418  0.5835
 8595TIP3    H149980   5.437   4.871  11.694  0.8110 -1.8398  0.4253
 8595TIP3    H249981   5.315   4.804  11.635 -0.9908  1.1290  0.5613
 8596TIP3   OH249982   7.309   3.319  11.473  0.1943  0.3360  0.2747
 8596TIP3    H149983   7.267   3.236  11.497  1.9087  0.0624  2.6216
 8596TIP3    H249984   7.248   3.387  11.504 -1.9513  0.1604 -2.9568
 8597TIP3   OH249985   1.687   3.310  11.953  0.1001 -0.5398 -0.3722
 8597TIP3    H149986   1.776   3.287  11.979 -0.2325 -1.1521  0.2621
 8597TIP3    H249987   1.631   3.258  12.011 -0.6933  1.5552  0.8254
 8598TIP3   OH249988   6.176   1.372  11.555  0.3376  0.0079 -0.0929
 8598TIP3    H149989   6.087   1.386  11.589  1.6555  1.3020  3.2027
 8598TIP3    H249990   6.169   1.393  11.462 -2.8881 -0.4413 -0.0751
 8599TIP3   OH249991   6.351   5.802  10.949 -0.2997 -0.5902 -0.0317
 8599TIP3    H149992   6.357   5.765  10.861 -1.3061 -1.8418  0.3946
 8599TIP3    H249993   6.362   5.728  11.008  0.8371  0.2996  0.9331
 8600TIP3   OH249994   7.183   5.918  11.639  0.5170 -0.2226 -0.1277
 8600TIP3    H149995   7.229   5.838  11.664  0.5418 -0.1580  0.0350
 8600TIP3    H249996   7.173   5.911  11.544  2.0062  0.3523 -0.3615
 8601TIP3   OH249997   6.967   8.331  11.848 -0.5481  0.2181  0.0664
 8601TIP3    H149998   6.887   8.371  11.815  0.8684  2.9310 -0.3455
 8601TIP3    H249999   7.033   8.352  11.782  1.5098  2.3064  2.5701
 8602TIP3   OH250000   8.401   8.195  10.493  0.1109  0.3306  0.3593
 8602TIP3    H150001   8.463   8.145  10.547 -0.4250 -0.8791 -0.1113
 8602TIP3    H250002   8.454   8.263  10.452  0.8165  0.3094  1.1928
 8603TIP3   OH250003   7.981   4.685  10.914  0.4918 -0.1441 -0.0165
 8603TIP3    H150004   7.969   4.765  10.965  1.8048 -1.0740  1.8811
 8603TIP3    H250005   7.908   4.685  10.852 -2.2131  0.2789  2.9067
 8604TIP3   OH250006   4.167   2.200  10.957 -0.7332 -0.1612 -0.1940
 8604TIP3    H150007   4.124   2.251  11.026 -2.6098 -0.0216 -1.3962
 8604TIP3    H250008   4.117   2.118  10.953 -0.7146 -0.1347 -1.4227
 8605TIP3   OH250009   6.532   1.627  11.219 -0.2342  0.5051  0.8913
 8605TIP3    H150010   6.451   1.631  11.168  1.1453  0.7242 -1.4295
 8605TIP3    H250011   6.543   1.715  11.254 -1.1466  0.3823  1.5205
 8606TIP3   OH250012   3.688   7.080  11.388 -0.1383  0.4417  0.9974
 8606TIP3    H150013   3.641   7.073  11.471  1.1586 -1.5693  1.6345
 8606TIP3    H250014   3.636   7.027  11.327 -0.4157  0.8791  0.8518
 8607TIP3   OH250015   0.233   5.348  11.668  0.3832 -0.2195  0.4960
 8607TIP3    H150016   0.167   5.342  11.600 -1.9071 -0.3396  2.5976
 8607TIP3    H250017   0.259   5.257  11.685 -0.3749 -0.3421  1.0060
 8608TIP3   OH250018   4.695   3.730  10.856 -0.1593  0.2117  0.3668
 8608TIP3    H150019   4.733   3.793  10.916  1.2190 -0.7924  0.5742
 8608TIP3    H250020   4.705   3.770  10.769  2.2831 -0.4114  0.2998
 8609TIP3   OH250021   3.762   6.021  11.504 -0.0813 -0.3061  0.1134
 8609TIP3    H150022   3.780   6.064  11.421 -0.8410 -0.3825 -0.0983
 8609TIP3    H250023   3.825   5.950  11.509  0.6753  0.3550  0.1052
 8610TIP3   OH250024   7.076   2.483  11.532 -0.0769  0.2332  0.2564
 8610TIP3    H150025   7.040   2.469  11.619 -0.2764 -3.8651 -0.2955
 8610TIP3    H250026   7.166   2.451  11.538 -0.9743 -3.1438 -1.5651
 8611TIP3   OH250027   1.824   7.220  11.142 -0.1422 -0.5951  0.1153
 8611TIP3    H150028   1.760   7.288  11.121 -0.5850 -1.2210 -0.6069
 8611TIP3    H250029   1.786   7.173  11.217  0.1307 -0.1033  0.5682
 8612TIP3   OH250030   3.617   3.486  10.573  0.3323 -0.0446 -0.4058
 8612TIP3    H150031   3.632   3.522  10.660  0.4637 -2.0156  0.4577
 8612TIP3    H250032   3.704   3.480  10.534  1.1012 -3.8480  1.4019
 8613TIP3   OH250033   2.917   1.048  12.970  0.1471  0.1768  0.1575
 8613TIP3    H150034   2.923   0.979  12.904 -0.0468 -0.8193  1.1473
 8613TIP3    H250035   3.008   1.074  12.985  0.0950  1.6330 -1.7001
 8614TIP3   OH250036   7.258   0.487  11.429  0.2584 -0.5812  0.2845
 8614TIP3    H150037   7.253   0.546  11.354  1.3513 -1.3097 -0.3747
 8614TIP3    H250038   7.290   0.543  11.501 -2.6489  0.6136  0.8174
 8615TIP3   OH250039   3.761   6.123  11.262  0.8571  0.7144 -0.1985
 8615TIP3    H150040   3.731   6.213  11.273  0.5428  0.3275  3.1931
 8615TIP3    H250041   3.856   6.130  11.254  0.6846  1.4015 -2.4001
 8616TIP3   OH250042   2.458   7.675  10.503  0.0540  0.0357  0.1936
 8616TIP3    H150043   2.501   7.590  10.514 -0.6757 -0.2162  1.3647
 8616TIP3    H250044   2.368   7.652  10.479  0.5261  0.5507 -2.3262
 8617TIP3   OH250045   5.047   6.347  10.591 -0.2351 -0.2137 -0.1153
 8617TIP3    H150046   5.034   6.438  10.562 -1.3746 -1.0120 -2.3972
 8617TIP3    H250047   5.134   6.324  10.560  0.3508  0.2843  1.1021
 8618TIP3   OH250048   4.122   7.640  10.941 -0.5626 -0.5284 -0.4336
 8618TIP3    H150049   4.067   7.706  10.898  1.7869  2.9949  1.4588
 8618TIP3    H250050   4.190   7.621  10.876  0.0527  0.7847 -0.2101
 8619TIP3   OH250051   7.942   7.955  12.541  0.1363  0.1639  0.3427
 8619TIP3    H150052   7.934   7.957  12.446 -0.8244 -0.2896  0.4037
 8619TIP3    H250053   7.855   7.980  12.573  0.4007  0.1374  1.1024
 8620TIP3   OH250054   0.203   5.715  10.647 -0.1190 -0.4801 -0.8425
 8620TIP3    H150055   0.163   5.642  10.600 -3.1379 -0.1364  0.9163
 8620TIP3    H250056   0.213   5.683  10.737 -0.7331  0.9292 -0.2301
 8621TIP3   OH250057   1.390   1.374  12.081 -0.0544  0.3077 -0.1871
 8621TIP3    H150058   1.325   1.439  12.055  1.1256  1.3869 -0.5574
 8621TIP3    H250059   1.441   1.417  12.149  0.4511 -0.4086 -0.0991
 8622TIP3   OH250060   2.552   2.868  12.123 -0.2944 -0.6053  0.2442
 8622TIP3    H150061   2.539   2.942  12.063  1.5419  0.4408  1.0587
 8622TIP3    H250062   2.470   2.863  12.171 -0.3835  1.0964  0.3439
 8623TIP3   OH250063   2.093   3.389  11.145  0.5755 -0.0472  0.3745
 8623TIP3    H150064   2.057   3.311  11.102  2.1908 -0.9184  0.5243
 8623TIP3    H250065   2.044   3.462  11.107 -2.0100 -1.1675  1.2615
 8624TIP3   OH250066   2.719   0.006  10.839  0.0976 -0.2187  0.0832
 8624TIP3    H150067   2.642   0.035  10.888 -1.2200 -0.3652 -1.8018
 8624TIP3    H250068   2.758   0.087  10.806 -0.0853 -0.2300 -0.1616
 8625TIP3   OH250069   2.570   4.022  10.760  0.4433 -0.2573  0.3150
 8625TIP3    H150070   2.629   4.080  10.711 -0.1914 -1.1081 -1.5378
 8625TIP3    H250071   2.492   4.074  10.775  0.5229 -0.0882  0.1500
 8626TIP3   OH250072   1.048   4.112  12.764  0.4803 -0.4177 -0.5499
 8626TIP3    H150073   0.988   4.123  12.838  0.3166  0.8191 -0.8477
 8626TIP3    H250074   0.992   4.078  12.694 -0.0338  1.2732 -1.0008
 8627TIP3   OH250075   7.944   3.070  11.198 -0.3948 -0.0433  0.7169
 8627TIP3    H150076   7.870   3.011  11.216 -2.8032  2.3485 -0.5719
 8627TIP3    H250077   7.928   3.146  11.255  1.0109  0.6047  0.2904
 8628TIP3   OH250078   2.292   4.592  10.747 -0.1007 -0.6373 -0.1044
 8628TIP3    H150079   2.326   4.520  10.800  0.3347  1.0984  2.0695
 8628TIP3    H250080   2.199   4.570  10.735 -0.3875 -0.7919  1.9838
 8629TIP3   OH250081   2.874   1.376  11.395 -0.0265 -0.1797  0.6326
 8629TIP3    H150082   2.859   1.284  11.374  0.7949 -0.0716 -0.5653
 8629TIP3    H250083   2.797   1.403  11.444 -1.3079 -0.9651 -0.8576
 8630TIP3   OH250084   3.624   0.002  11.270 -0.4369  0.7023 -0.1403
 8630TIP3    H150085   3.530  -0.002  11.290  0.0441 -0.7252  2.2853
 8630TIP3    H250086   3.666  -0.033  11.348  2.0799  0.1060 -1.6554
 8631TIP3   OH250087   1.919   7.320  11.878 -0.9144 -0.2861 -0.4436
 8631TIP3    H150088   1.890   7.342  11.790 -1.9175 -0.3103 -0.1293
 8631TIP3    H250089   1.969   7.240  11.867  0.8582  0.8774 -1.2822
 8632TIP3   OH250090   6.000   5.345  11.063 -0.1194 -0.1791 -0.3412
 8632TIP3    H150091   5.976   5.286  10.992  0.4248 -1.2384  0.3216
 8632TIP3    H250092   6.071   5.299  11.109  0.5407  1.1341  0.0134
 8633TIP3   OH250093   5.109   3.622  12.582  0.0594  0.9042 -0.6530
 8633TIP3    H150094   5.193   3.585  12.553  0.3478  0.8868  0.1912
 8633TIP3    H250095   5.061   3.547  12.616  0.5241  1.2272  0.7793
 8634TIP3   OH250096   2.820   4.169  10.649 -0.0296  0.0240  0.5796
 8634TIP3    H150097   2.884   4.194  10.584 -0.8458  1.2938  0.2287
 8634TIP3    H250098   2.870   4.121  10.715  0.6791 -2.0793 -1.3520
 8635TIP3   OH250099   0.488   8.190  11.314  0.7414  0.0534  0.1644
 8635TIP3    H150100   0.479   8.097  11.334  2.2777 -0.1525 -0.0049
 8635TIP3    H250101   0.490   8.233  11.399 -0.3807  0.0023  0.2388
 8636TIP3   OH250102   4.709   5.565  11.731  0.2441 -0.2625 -0.1147
 8636TIP3    H150103   4.630   5.582  11.679 -0.2762  0.7514  0.9480
 8636TIP3    H250104   4.714   5.470  11.735  0.3681 -0.3856 -2.0664
 8637TIP3   OH250105   2.766   6.226  11.368  0.6044  0.1002 -0.0124
 8637TIP3    H150106   2.728   6.293  11.424  0.6441  0.0196  0.1091
 8637TIP3    H250107   2.691   6.170  11.343  0.7837 -0.6051  0.9701
 8638TIP3   OH250108   1.447   6.393  11.123  0.0197  0.0152 -0.6775
 8638TIP3    H150109   1.460   6.482  11.091 -1.4351  0.8911  0.9783
 8638TIP3    H250110   1.492   6.391  11.207 -1.1361 -0.3338 -0.0437
 8639TIP3   OH250111   0.056   2.829  11.961  0.2299 -0.0687  0.0605
 8639TIP3    H150112   0.033   2.779  11.883 -0.8616  0.4343  0.0263
 8639TIP3    H250113   0.151   2.834  11.960  0.4909 -3.0375  0.6569
 8640TIP3   OH250114   5.181   0.873  12.710 -0.0475 -0.2487 -0.3130
 8640TIP3    H150115   5.201   0.818  12.634  1.2183 -0.2430 -0.0035
 8640TIP3    H250116   5.237   0.950  12.700 -0.1393 -0.0783  0.4312
 8641TIP3   OH250117   3.408   1.835  11.593  0.2310  0.5491 -0.3094
 8641TIP3    H150118   3.370   1.911  11.549 -1.3657  1.2281  2.0594
 8641TIP3    H250119   3.333   1.785  11.624  1.1197  1.3852  3.6725
 8642TIP3   OH250120   5.496   4.008  11.630 -0.2549 -0.2516 -0.2540
 8642TIP3    H150121   5.432   3.957  11.581 -0.1859  0.1210 -0.7446
 8642TIP3    H250122   5.525   4.075  11.568  0.1294 -0.0203  0.1725
 8643TIP3   OH250123   8.376   3.436  11.705 -0.0585  0.0568  0.3179
 8643TIP3    H150124   8.387   3.348  11.667  2.0456  0.7281 -0.8028
 8643TIP3    H250125   8.293   3.467  11.671 -0.2393 -1.0227 -0.2827
 8644TIP3   OH250126   7.024   0.705  11.393  0.4349 -0.3224 -0.8081
 8644TIP3    H150127   7.058   0.689  11.305  2.0348 -2.3090  0.1074
 8644TIP3    H250128   6.947   0.648  11.399 -0.1459  0.4101 -1.1686
 8645TIP3   OH250129   5.032   6.032  10.753  0.3646  0.0501  0.6474
 8645TIP3    H150130   5.102   6.008  10.814 -0.4659 -0.5482  1.3970
 8645TIP3    H250131   4.987   5.949  10.735 -0.0102  0.3917  0.0049
 8646TIP3   OH250132   4.853   2.668  10.546  0.0172 -0.4984 -0.0478
 8646TIP3    H150133   4.904   2.734  10.499  0.0340 -0.8960 -0.5979
 8646TIP3    H250134   4.907   2.588  10.541 -0.2269 -0.6805  0.1824
 8647TIP3   OH250135   7.435   6.144  12.177  0.3333  0.3070 -0.4564
 8647TIP3    H150136   7.398   6.117  12.260 -1.3398  0.4871 -1.1146
 8647TIP3    H250137   7.459   6.236  12.191  0.6657  0.1553  0.0074
 8648TIP3   OH250138   2.714   1.852  12.925  0.0853 -0.4675  0.7056
 8648TIP3    H150139   2.797   1.830  12.967 -0.9155 -0.6667  2.7214
 8648TIP3    H250140   2.720   1.946  12.907  1.4666 -0.8346 -1.0077
 8649TIP3   OH250141   5.777   2.440  11.302 -0.6671  0.1382 -0.0773
 8649TIP3    H150142   5.749   2.528  11.277  0.8916  1.1982  1.6873
 8649TIP3    H250143   5.793   2.396  11.218 -2.4737  1.1336 -1.0177
 8650TIP3   OH250144   5.462   7.867  11.174 -0.4656  0.4731  0.0146
 8650TIP3    H150145   5.465   7.813  11.253 -0.3374  1.7400  0.8974
 8650TIP3    H250146   5.456   7.803  11.103  1.5232 -0.7974  0.8836
 8651TIP3   OH250147   4.731   0.993  12.835  1.1426  0.5903  0.1939
 8651TIP3    H150148   4.801   0.942  12.796  0.7852 -0.2241  0.6008
 8651TIP3    H250149   4.680   0.930  12.886  0.7404  1.3597  0.7738
 8652TIP3   OH250150   7.385   6.189  11.018  0.1973  0.3096 -0.8152
 8652TIP3    H150151   7.381   6.232  10.933 -2.5443  0.1197 -0.8447
 8652TIP3    H250152   7.391   6.261  11.081 -0.2053  0.5472 -1.0496
 8653TIP3   OH250153   2.868   3.110  11.107  0.1280  0.1001  0.4386
 8653TIP3    H150154   2.881   3.204  11.122 -0.1833  0.8392 -2.9676
 8653TIP3    H250155   2.946   3.084  11.057  0.3725 -1.5820  1.6311
 8654TIP3   OH250156   3.199   2.875  11.091  0.1333  0.3855  0.0081
 8654TIP3    H150157   3.228   2.867  11.000  2.5815 -0.5389  0.7841
 8654TIP3    H250158   3.108   2.847  11.089  0.0275  0.6860 -2.1971
 8655TIP3   OH250159   7.312   4.610  11.397 -0.1690  0.0081 -0.5091
 8655TIP3    H150160   7.242   4.585  11.336  0.4243  1.0664 -1.6610
 8655TIP3    H250161   7.297   4.556  11.474 -2.6096  0.6029 -0.4941
 8656TIP3   OH250162   2.814   0.451  11.427 -0.8408  0.2038  0.3542
 8656TIP3    H150163   2.727   0.490  11.441 -1.0788 -0.4190  0.6430
 8656TIP3    H250164   2.873   0.526  11.423 -1.3946  0.6392  0.1269
 8657TIP3   OH250165   6.545   6.808  11.894 -0.9947  0.0510 -0.1270
 8657TIP3    H150166   6.621   6.823  11.950 -1.0229 -0.0355 -0.0654
 8657TIP3    H250167   6.582   6.791  11.808 -0.8941 -1.0354  0.1194
 8658TIP3   OH250168   8.261   7.936  12.381 -0.8414 -0.2258 -0.2582
 8658TIP3    H150169   8.287   7.958  12.471  0.7912  0.5157 -0.8804
 8658TIP3    H250170   8.175   7.977  12.371 -1.0731 -0.3511  0.9703
 8659TIP3   OH250171   3.802   6.774  10.844 -0.4462  0.0814 -0.2412
 8659TIP3    H150172   3.788   6.736  10.757  1.6897 -1.1920 -0.0992
 8659TIP3    H250173   3.826   6.865  10.826 -1.2180  0.1722 -0.8908
 8660TIP3   OH250174   5.875   6.247  12.554  0.4937  0.0660 -0.1771
 8660TIP3    H150175   5.826   6.179  12.508 -0.6125 -0.3025  1.4410
 8660TIP3    H250176   5.812   6.317  12.568  0.5025 -0.2417  1.5918
 8661TIP3   OH250177   4.545   7.797  12.286 -0.2316  0.1907  0.5400
 8661TIP3    H150178   4.616   7.796  12.350 -0.3158  0.8582  0.6557
 8661TIP3    H250179   4.470   7.832  12.334 -0.0792  1.5010 -0.1246
 8662TIP3   OH250180   3.000   1.036  12.294 -0.0185  0.2903 -0.1817
 8662TIP3    H150181   3.077   1.055  12.240  0.6764 -1.6735  0.0603
 8662TIP3    H250182   3.029   0.969  12.355 -1.8072 -0.1535  0.2340
 8663TIP3   OH250183   7.018   7.830  11.390 -0.1109  0.1880 -0.2949
 8663TIP3    H150184   6.943   7.873  11.349  0.4698  1.7015  0.1475
 8663TIP3    H250185   6.982   7.784  11.465 -0.6661  0.5251 -0.3510
 8664TIP3   OH250186   7.081   7.257  10.772 -0.4080 -0.3731 -0.3064
 8664TIP3    H150187   7.077   7.338  10.823  0.3457  0.1402 -1.0252
 8664TIP3    H250188   7.165   7.263  10.725 -0.4217 -1.4946 -0.4912
 8665TIP3   OH250189   4.466   6.289  12.544 -0.2866  0.1311  0.4227
 8665TIP3    H150190   4.381   6.257  12.513 -1.1073 -0.6771  3.2522
 8665TIP3    H250191   4.499   6.220  12.601  2.5802  0.2081 -0.9551
 8666TIP3   OH250192   5.394   7.275  10.469  0.3987  0.4396  0.3304
 8666TIP3    H150193   5.318   7.270  10.527 -0.9600  0.8559 -1.3278
 8666TIP3    H250194   5.376   7.350  10.412  2.0252  0.5004 -0.1644
 8667TIP3   OH250195   8.092   8.317  10.483 -0.0182  0.0681 -0.8964
 8667TIP3    H150196   8.074   8.386  10.546 -0.0494 -0.4992 -0.2663
 8667TIP3    H250197   8.171   8.274  10.516 -1.5236 -1.9481  0.2935
 8668TIP3   OH250198   8.423   7.327  10.616  0.0997 -0.1512  0.3831
 8668TIP3    H150199   8.365   7.252  10.598  0.0046  0.2509 -1.1097
 8668TIP3    H250200   8.364   7.396  10.645  0.2836 -0.8933  2.7779
 8669TIP3   OH250201   3.373   7.901  11.169  0.0876  0.6808  0.0234
 8669TIP3    H150202   3.440   7.947  11.118  1.7229  1.4841  2.7075
 8669TIP3    H250203   3.319   7.971  11.206 -1.1472  0.0991 -0.5935
 8670TIP3   OH250204   7.500   4.581  10.939  0.4200  0.1425  0.0367
 8670TIP3    H150205   7.413   4.548  10.916  1.1352 -1.0235 -1.1330
 8670TIP3    H250206   7.483   4.655  10.998 -1.3063 -0.9852  1.0333
 8671TIP3   OH250207   1.086   1.382  10.926  0.4687 -0.0407  0.1434
 8671TIP3    H150208   1.023   1.398  10.995  2.4287 -1.0902  2.3127
 8671TIP3    H250209   1.043   1.320  10.868 -0.2321 -1.4112  2.0418
 8672TIP3   OH250210   6.135   6.923  12.748 -0.2394 -0.1436 -0.0328
 8672TIP3    H150211   6.059   6.904  12.693 -0.8654  2.1987 -0.0951
 8672TIP3    H250212   6.101   6.978  12.818  1.3656  1.0151 -0.0821
 8673TIP3   OH250213   6.032   8.110  11.869  0.0195 -0.4943  0.6262
 8673TIP3    H150214   5.987   8.026  11.864 -0.5422 -0.1418 -0.3798
 8673TIP3    H250215   5.963   8.175  11.862  0.4746  0.0644  1.1584
 8674TIP3   OH250216   4.713   0.144  10.754  0.2465 -0.0081 -0.0962
 8674TIP3    H150217   4.805   0.150  10.777  0.0390 -0.8179  1.0339
 8674TIP3    H250218   4.696   0.221  10.699  1.8434 -0.4555 -1.2721
 8675TIP3   OH250219   5.174   6.643  10.924  0.7027 -0.2016  0.2772
 8675TIP3    H150220   5.135   6.601  11.000 -0.0618 -0.0517 -0.0203
 8675TIP3    H250221   5.244   6.583  10.897  0.5024 -0.6159  0.6587
 8676TIP3   OH250222   4.256   0.024  11.356 -0.5408 -0.2416  0.0005
 8676TIP3    H150223   4.305   0.018  11.274  0.9856 -2.5677  0.9587
 8676TIP3    H250224   4.241  -0.067  11.381 -2.0663  0.4181  1.6862
 8677TIP3   OH250225   7.257   2.184  11.860 -0.3468  0.3628 -0.7285
 8677TIP3    H150226   7.177   2.135  11.845 -0.0596  0.0525 -1.3166
 8677TIP3    H250227   7.258   2.202  11.954  0.1818 -1.9029 -0.2413
 8678TIP3   OH250228   2.499   7.572  11.993 -0.4432  0.4979 -0.1170
 8678TIP3    H150229   2.515   7.560  12.086 -0.4471  2.0787  0.1221
 8678TIP3    H250230   2.584   7.597  11.957 -0.9539  2.6384  0.0076
 8679TIP3   OH250231   7.775   4.837  10.495  0.2313 -0.1611 -0.2720
 8679TIP3    H150232   7.710   4.901  10.466 -1.0690 -1.0267  0.5951
 8679TIP3    H250233   7.740   4.803  10.577  1.0796 -1.6849 -0.4967
 8680TIP3   OH250234   7.835   4.298  10.870  0.1625 -0.1436  0.3516
 8680TIP3    H150235   7.762   4.329  10.923 -0.3966  1.6620 -1.3709
 8680TIP3    H250236   7.816   4.205  10.856 -1.8966  0.3072 -0.1584
 8681TIP3   OH250237   6.709   7.065  10.891  0.1923 -0.1601  0.3121
 8681TIP3    H150238   6.669   7.002  10.952 -0.9307  0.7369  0.5307
 8681TIP3    H250239   6.680   7.036  10.805 -0.7219  0.3418  0.4518
 8682TIP3   OH250240   3.382   5.969  11.677  0.7275 -0.8659 -0.5623
 8682TIP3    H150241   3.469   5.990  11.643  0.2463  1.5828 -0.4629
 8682TIP3    H250242   3.369   6.030  11.750 -1.1396 -1.0650 -0.6781
 8683TIP3   OH250243   1.315   2.810  11.047  0.0275 -0.1827 -0.3156
 8683TIP3    H150244   1.359   2.869  10.986  0.0780  1.7188  1.4503
 8683TIP3    H250245   1.229   2.794  11.008  0.2993  0.4356 -1.2038
 8684TIP3   OH250246   4.299   5.731  11.819  0.0118  0.2335  0.0171
 8684TIP3    H150247   4.221   5.676  11.810 -1.5838  2.4923 -0.5440
 8684TIP3    H250248   4.328   5.717  11.909 -0.8009 -0.8941  0.1277
 8685TIP3   OH250249   6.022   2.807  12.012 -0.4376 -0.1860 -0.2828
 8685TIP3    H150250   6.013   2.719  12.049  0.3467  0.4049  1.4616
 8685TIP3    H250251   6.107   2.838  12.043 -0.3752  0.9273 -1.4672
 8686TIP3   OH250252   0.769   5.224  10.858  0.7938 -0.1718 -0.3224
 8686TIP3    H150253   0.763   5.308  10.813  0.4048 -1.1010 -2.1343
 8686TIP3    H250254   0.828   5.172  10.803  0.4315 -1.3233  0.3371
 8687TIP3   OH250255   6.405   5.738  11.379  0.5519 -0.4586 -0.3738
 8687TIP3    H150256   6.347   5.750  11.454  1.3562 -0.1528  0.2029
 8687TIP3    H250257   6.456   5.819  11.373  0.9564 -0.7354 -0.8493
 8688TIP3   OH250258   3.479   3.790  11.260 -0.2533  0.0339  0.2004
 8688TIP3    H150259   3.547   3.816  11.197 -0.4456  0.1535  0.0381
 8688TIP3    H250260   3.524   3.786  11.344  0.2896 -1.3523 -0.1381
 8689TIP3   OH250261   1.918   3.119  12.281 -0.6996 -0.3579  0.4617
 8689TIP3    H150262   2.007   3.082  12.276 -0.5724 -0.0125  0.1064
 8689TIP3    H250263   1.870   3.074  12.212 -0.3488  0.6495 -0.4650
 8690TIP3   OH250264   4.065   0.822  10.876 -0.1298 -0.3853  0.3013
 8690TIP3    H150265   4.009   0.894  10.904  1.0146 -0.1045  1.9983
 8690TIP3    H250266   4.091   0.845  10.787  0.3951  1.4478  0.8881
 8691TIP3   OH250267   3.587   7.151  12.128 -0.0487  0.0868 -0.4483
 8691TIP3    H150268   3.674   7.142  12.089 -0.4712 -1.7590 -1.0603
 8691TIP3    H250269   3.547   7.224  12.080  1.4474  1.5909  0.4770
 8692TIP3   OH250270   5.301   7.438  11.065  0.5958  0.0957 -0.1223
 8692TIP3    H150271   5.231   7.393  11.111  2.7761 -1.2886  2.1045
 8692TIP3    H250272   5.334   7.502  11.128  1.7124  0.2893 -0.8652
 8693TIP3   OH250273   2.628   2.395  11.032 -0.5663 -0.0500 -0.1819
 8693TIP3    H150274   2.646   2.469  10.973  0.6753 -0.0344  0.1786
 8693TIP3    H250275   2.541   2.366  11.008 -0.6720  0.8978 -1.0241
 8694TIP3   OH250276   7.514   1.078  11.865 -0.2645 -0.0542 -0.3018
 8694TIP3    H150277   7.457   1.145  11.900 -0.2766  0.0585 -0.5342
 8694TIP3    H250278   7.600   1.097  11.902 -0.4091 -0.3186  0.1729
 8695TIP3   OH250279   1.560   4.144  11.074  0.3149 -0.3718 -0.1638
 8695TIP3    H150280   1.577   4.224  11.124  1.5866 -0.4697 -0.4271
 8695TIP3    H250281   1.466   4.128  11.087  0.4830 -0.0923  1.7593
 8696TIP3   OH250282   7.807   0.067  10.512 -0.2435  0.1048  0.1435
 8696TIP3    H150283   7.830   0.014  10.436 -0.2371 -0.0159  0.2288
 8696TIP3    H250284   7.740   0.128  10.480 -1.8022 -1.3316  0.5269
 8697TIP3   OH250285   3.894   6.110  10.708 -0.1128 -0.4551  0.2622
 8697TIP3    H150286   3.810   6.121  10.664  0.0064 -1.9744 -0.3916
 8697TIP3    H250287   3.893   6.020  10.741  0.6487 -0.0144  1.5842
 8698TIP3   OH250288   5.947   7.472  11.386 -0.5739 -0.3667  0.0609
 8698TIP3    H150289   5.973   7.531  11.315  0.0822 -1.0047 -0.2401
 8698TIP3    H250290   5.902   7.400  11.342  0.4178 -1.1004  0.2023
 8699TIP3   OH250291   2.599   5.904  11.237 -0.0445  0.2501  0.1871
 8699TIP3    H150292   2.575   5.867  11.322 -0.9012 -0.5671 -0.3866
 8699TIP3    H250293   2.557   5.846  11.173  1.8519 -0.0520 -0.8404
 8700TIP3   OH250294   8.234   8.013  12.640  0.4243 -0.4071  0.3135
 8700TIP3    H150295   8.139   8.012  12.633  0.3457 -0.4433  1.1838
 8700TIP3    H250296   8.252   8.083  12.703  1.1270  1.2956 -1.6473
 8701TIP3   OH250297   4.469   1.563  11.856 -0.4101  0.0531  0.7567
 8701TIP3    H150298   4.409   1.591  11.925  1.1683  1.1144  1.7646
 8701TIP3    H250299   4.510   1.484  11.891  0.6832  0.8124  1.2734
 8702TIP3   OH250300   3.060   2.438  12.138 -0.0482  0.3416  0.2265
 8702TIP3    H150301   2.998   2.386  12.189 -1.0013  1.5567  0.3424
 8702TIP3    H250302   3.124   2.468  12.203 -1.6112  2.4165  0.9207
 8703TIP3   OH250303   0.945   2.359  12.397 -0.0489  0.3320 -1.0307
 8703TIP3    H150304   0.851   2.352  12.381 -0.3608  0.4349  0.5806
 8703TIP3    H250305   0.982   2.279  12.358 -1.0853 -0.7548  0.1049
 8704TIP3   OH250306   5.585   0.601  11.492  0.3095  0.6724  0.0769
 8704TIP3    H150307   5.635   0.543  11.435 -0.7420 -0.3281  0.1425
 8704TIP3    H250308   5.543   0.663  11.432  0.4255  0.5703 -0.1087
 8705TIP3   OH250309   3.178   2.308  12.368  0.5653 -0.0745  0.6644
 8705TIP3    H150310   3.094   2.350  12.387  0.0762 -0.3917 -0.6787
 8705TIP3    H250311   3.243   2.371  12.396 -0.1229  0.2160  1.6447
 8706TIP3   OH250312   0.077   0.829  11.759  0.2094  0.4210 -0.6137
 8706TIP3    H150313   0.058   0.771  11.833  0.9829 -0.2711 -0.9473
 8706TIP3    H250314  -0.009   0.852  11.724 -0.1014 -1.4097 -1.1556
 8707TIP3   OH250315   7.347   5.755  10.751  0.2412 -0.5719 -0.0719
 8707TIP3    H150316   7.442   5.752  10.760  0.2721  1.0294  0.4249
 8707TIP3    H250317   7.332   5.772  10.657  0.4849 -0.0368 -0.0182
 8708TIP3   OH250318   1.855   3.603  12.515  0.1372 -0.1867 -0.2502
 8708TIP3    H150319   1.821   3.637  12.433  0.7987 -0.6987 -0.7450
 8708TIP3    H250320   1.944   3.638  12.521 -0.1341  0.4014  0.5844
 8709TIP3   OH250321   1.095   7.394  11.943 -0.5196  0.0018 -1.0284
 8709TIP3    H150322   1.118   7.360  11.856  0.2061 -0.2568 -0.7409
 8709TIP3    H250323   1.080   7.316  11.996 -0.4446  0.1520 -0.7863
 8710TIP3   OH250324   0.592   4.279  10.666  0.5115  0.3090 -0.0316
 8710TIP3    H150325   0.543   4.360  10.652 -0.0386 -0.0122 -0.0135
 8710TIP3    H250326   0.666   4.285  10.605  1.7084  1.7890  1.4516
 8711TIP3   OH250327   5.094   7.360  11.218 -0.5027  0.3215  0.5262
 8711TIP3    H150328   5.007   7.382  11.252 -1.6086 -2.2976 -0.3354
 8711TIP3    H250329   5.096   7.265  11.218  1.9691  0.3074 -0.5388
 8712TIP3   OH250330   8.071   5.680  11.602 -0.5093  0.5201 -0.2153
 8712TIP3    H150331   8.084   5.655  11.693 -4.4143 -3.5122 -0.3922
 8712TIP3    H250332   8.055   5.774  11.605 -1.3711  0.4034  3.4647
 8713TIP3   OH250333   4.841   4.857  10.821 -0.4348  0.1214  0.3689
 8713TIP3    H150334   4.756   4.894  10.799 -0.6022 -0.0829  0.6659
 8713TIP3    H250335   4.821   4.775  10.866 -0.0574 -0.4349 -0.4673
 8714TIP3   OH250336   1.621   6.406  12.098 -0.7488 -0.1490 -0.1794
 8714TIP3    H150337   1.712   6.399  12.129 -1.3602  3.4357  3.2343
 8714TIP3    H250338   1.572   6.347  12.156 -0.7578 -1.6451 -1.6472
 8715TIP3   OH250339   7.567   7.419  10.866  0.0985 -0.3257 -0.0976
 8715TIP3    H150340   7.587   7.476  10.792 -0.8039  0.3192  0.1379
 8715TIP3    H250341   7.652   7.399  10.905  0.5110 -0.0268 -0.8362
 8716TIP3   OH250342   4.947   8.341  10.708  0.1193 -0.5099  0.2523
 8716TIP3    H150343   4.877   8.297  10.660 -0.9029  0.2951  0.9750
 8716TIP3    H250344   4.951   8.428  10.670 -0.1782 -0.1203  1.0954
 8717TIP3   OH250345   5.219   4.412  12.431  0.0352  0.2339  0.3112
 8717TIP3    H150346   5.290   4.452  12.380 -1.2677  0.8383 -1.1015
 8717TIP3    H250347   5.262   4.343  12.482  1.5882  0.4269 -0.6763
 8718TIP3   OH250348   6.772   1.513  11.162 -0.7741 -0.0551 -0.4914
 8718TIP3    H150349   6.757   1.420  11.145 -1.4038 -1.0049  3.8898
 8718TIP3    H250350   6.685   1.552  11.160 -0.6821  0.1368 -0.8441
 8719TIP3   OH250351   1.153   1.893  10.499 -0.2472 -0.3544 -0.4005
 8719TIP3    H150352   1.067   1.933  10.505  0.3880  2.0061 -3.8293
 8719TIP3    H250353   1.214   1.967  10.506  1.3642 -1.6185 -0.5114
 8720TIP3   OH250354   5.778   0.569  11.700  0.1424  0.3666 -0.5222
 8720TIP3    H150355   5.721   0.512  11.752  0.1128 -0.3550 -1.3320
 8720TIP3    H250356   5.725   0.593  11.624  1.5144 -1.8902 -2.3050
 8721TIP3   OH250357   3.120   4.532  10.568  0.0093 -0.0345 -0.0619
 8721TIP3    H150358   3.165   4.546  10.485  0.7451 -0.1937  0.2964
 8721TIP3    H250359   3.174   4.579  10.632 -0.2779 -0.3190  0.3888
 8722TIP3   OH250360   4.363   2.520  12.632  0.3165 -0.1950  0.3551
 8722TIP3    H150361   4.395   2.542  12.545  0.2418 -1.2089  0.0625
 8722TIP3    H250362   4.286   2.466  12.617 -1.3342  1.8373  1.0508
 8723TIP3   OH250363   1.562   7.357  11.122 -0.4991 -0.2853 -0.0796
 8723TIP3    H150364   1.546   7.290  11.188  0.5495  0.2021  0.7078
 8723TIP3    H250365   1.490   7.419  11.133 -1.0858 -0.9134 -0.3378
 8724TIP3   OH250366   3.894   7.351  11.793  0.2898 -0.7283 -0.4979
 8724TIP3    H150367   3.968   7.331  11.735 -0.0745 -1.2807 -0.7813
 8724TIP3    H250368   3.918   7.434  11.834  0.7091 -0.4892 -1.1952
 8725TIP3   OH250369   2.313   7.963  12.063 -0.3647 -0.1234 -0.1411
 8725TIP3    H150370   2.310   7.998  12.152 -1.1717  0.8356 -0.5309
 8725TIP3    H250371   2.385   8.009  12.021 -1.6482  1.4066 -0.7614
 8726TIP3   OH250372   3.190   7.273  10.392 -0.4405 -0.4090 -0.1445
 8726TIP3    H150373   3.175   7.222  10.472 -0.7746 -0.0076  0.0601
 8726TIP3    H250374   3.255   7.338  10.417 -1.3399  0.4220  0.1368
 8727TIP3   OH250375   1.355   7.986  11.402  0.0723  0.2498  0.0640
 8727TIP3    H150376   1.447   7.983  11.429  0.3687  0.0579 -0.9071
 8727TIP3    H250377   1.358   8.024  11.314 -0.8188  0.5882  0.1702
 8728TIP3   OH250378   3.579   1.159  11.004 -0.4146 -0.2379 -0.1402
 8728TIP3    H150379   3.520   1.161  10.929 -1.0698  3.2809  0.3038
 8728TIP3    H250380   3.542   1.094  11.063 -0.2152 -2.6559 -2.4996
 8729TIP3   OH250381   6.079   0.605  10.469 -0.2816  0.0819 -0.5478
 8729TIP3    H150382   6.002   0.561  10.504 -0.7324 -0.0051 -1.6185
 8729TIP3    H250383   6.088   0.684  10.522  0.6598 -1.3364  1.5519
 8730TIP3   OH250384   6.128   0.010  11.171 -0.9634 -0.2368  0.7099
 8730TIP3    H150385   6.135   0.106  11.168  0.6768 -0.3513 -1.7640
 8730TIP3    H250386   6.208  -0.018  11.214  0.9907 -0.5501 -2.7610
 8731TIP3   OH250387   4.992   5.301  12.792 -0.7755  0.4884 -0.1884
 8731TIP3    H150388   5.036   5.294  12.707 -1.7254 -2.3069 -0.5751
 8731TIP3    H250389   4.945   5.384  12.788  0.1294  0.9688 -1.9199
 8732TIP3   OH250390   3.861   6.559  11.533  0.1087  0.3281  0.0885
 8732TIP3    H150391   3.891   6.619  11.465  0.7997 -0.0542  0.0472
 8732TIP3    H250392   3.793   6.507  11.490  0.1641  0.4508 -0.1506
 8733TIP3   OH250393   5.992   7.981  11.263 -0.3773  0.3203  0.3373
 8733TIP3    H150394   5.991   7.914  11.332  0.9384 -0.4736 -0.3884
 8733TIP3    H250395   6.008   8.063  11.310  0.7370 -0.2398  0.9757
 8734TIP3   OH250396   7.183   6.306  12.325 -0.1413  0.8521  0.1085
 8734TIP3    H150397   7.243   6.257  12.381  3.3847  0.0389 -3.8965
 8734TIP3    H250398   7.105   6.251  12.320  1.2229 -1.2599  0.6867
 8735TIP3   OH250399   5.010   3.667  11.971  0.0075  0.0319 -0.8933
 8735TIP3    H150400   5.062   3.726  11.917 -0.0714 -0.7423 -1.8613
 8735TIP3    H250401   5.074   3.624  12.028 -0.0447  1.6645  0.4525
 8736TIP3   OH250402   6.090   3.415  11.727 -0.3966 -0.0136 -0.2538
 8736TIP3    H150403   6.039   3.406  11.807 -0.4632 -2.1296 -0.4622
 8736TIP3    H250404   6.027   3.395  11.657  0.1201 -0.1716 -0.6811
 8737TIP3   OH250405   5.757   1.305  10.965 -0.1637  0.7269 -0.0730
 8737TIP3    H150406   5.710   1.371  11.017  1.8111  0.2372  2.5374
 8737TIP3    H250407   5.804   1.356  10.898 -0.3928  1.7316  0.5079
 8738TIP3   OH250408   4.217   6.465  12.383 -0.1541  0.1369  0.0195
 8738TIP3    H150409   4.201   6.375  12.413  2.5899 -0.4714 -0.1242
 8738TIP3    H250410   4.309   6.481  12.403 -0.2329  2.4548 -1.1998
 8739TIP3   OH250411   4.237   6.382  11.413 -0.8477 -0.3482 -0.0540
 8739TIP3    H150412   4.152   6.383  11.455  0.1153 -0.1326  1.9965
 8739TIP3    H250413   4.256   6.474  11.394 -1.2012 -0.4286 -0.8538
 8740TIP3   OH250414   3.437   1.218  10.691  0.3913  0.4425 -0.6129
 8740TIP3    H150415   3.366   1.177  10.739  0.2601 -1.1657 -2.0886
 8740TIP3    H250416   3.463   1.292  10.745 -0.1546 -0.8972  1.6078
 8741TIP3   OH250417   7.822   3.265  10.892 -0.3381 -0.1814 -0.7200
 8741TIP3    H150418   7.834   3.321  10.969  1.4507 -0.6694 -0.5884
 8741TIP3    H250419   7.828   3.326  10.818 -2.2639  0.3170 -0.5067
 8742TIP3   OH250420   6.785   3.049  11.173  0.0050  0.1352  0.2145
 8742TIP3    H150421   6.690   3.035  11.174  0.1332 -0.7821  0.6837
 8742TIP3    H250422   6.803   3.092  11.257  0.1366 -0.6945  0.6194
 8743TIP3   OH250423   7.743   6.765  12.545 -0.7229  0.5101 -0.5021
 8743TIP3    H150424   7.685   6.809  12.607 -0.6288  1.0244 -0.7669
 8743TIP3    H250425   7.701   6.779  12.460  0.0704  1.3818 -0.7678
 8744TIP3   OH250426   0.828   7.469  10.516 -0.1204 -0.0889 -0.3581
 8744TIP3    H150427   0.824   7.495  10.608 -2.1110  2.4411 -1.0614
 8744TIP3    H250428   0.906   7.512  10.482 -1.2417  1.9088 -0.5721
 8745TIP3   OH250429   3.817   1.315  10.476  0.5957 -0.7004 -0.6519
 8745TIP3    H150430   3.755   1.247  10.501  0.8936 -0.8361 -0.2628
 8745TIP3    H250431   3.860   1.280  10.398  1.4800 -1.4456  0.1260
 8746TIP3   OH250432   2.007   4.573  11.753 -0.2831  0.6705  0.3371
 8746TIP3    H150433   1.936   4.519  11.719  1.0421 -1.4484  0.7370
 8746TIP3    H250434   1.998   4.569  11.848 -0.2833  1.3430  0.3722
 8747TIP3   OH250435   4.287   3.459  11.843 -0.3704 -0.3825 -0.1013
 8747TIP3    H150436   4.229   3.458  11.767  0.6774  1.6127 -1.0171
 8747TIP3    H250437   4.251   3.527  11.901 -0.0929 -0.5503  0.2770
 8748TIP3   OH250438   2.167   5.813  12.058 -0.2826 -0.7529  0.2284
 8748TIP3    H150439   2.085   5.824  12.106  0.2806  0.0877  1.0417
 8748TIP3    H250440   2.175   5.893  12.005 -0.5610 -1.3672 -0.7582
 8749TIP3   OH250441   6.860   4.511  12.270  0.2611 -0.6339  0.0349
 8749TIP3    H150442   6.899   4.533  12.355 -0.2400  0.9541 -0.1172
 8749TIP3    H250443   6.777   4.470  12.292  0.4297 -0.8197  0.3267
 8750TIP3   OH250444   7.631   1.279  11.625 -0.2752  0.1368 -0.1968
 8750TIP3    H150445   7.549   1.288  11.673  0.6459 -0.1390  1.5251
 8750TIP3    H250446   7.634   1.186  11.602  0.0546 -0.1002  0.7450
 8751TIP3   OH250447   2.014   1.303  11.672  0.1262 -0.3917 -0.5440
 8751TIP3    H150448   2.001   1.246  11.748 -0.0756  0.4651  0.0799
 8751TIP3    H250449   1.935   1.291  11.619 -1.3300  1.4853  1.0494
 8752TIP3   OH250450   7.766   0.207  11.772 -0.2527  0.2600  0.3340
 8752TIP3    H150451   7.815   0.267  11.716  0.0503 -0.1109  0.1904
 8752TIP3    H250452   7.737   0.137  11.712  0.0218 -0.1091  0.6251
 8753TIP3   OH250453   5.875   3.462  11.921  0.5373 -0.0445 -0.3571
 8753TIP3    H150454   5.799   3.417  11.883  0.5628  0.0069 -0.4699
 8753TIP3    H250455   5.845   3.552  11.934  1.0716  0.3927 -1.9001
 8754TIP3   OH250456   3.883   8.240  11.432 -0.8867  0.0386 -0.4402
 8754TIP3    H150457   3.838   8.318  11.464  0.9332  0.6595  0.8296
 8754TIP3    H250458   3.972   8.271  11.411 -0.9195 -1.1673 -2.5510
 8755TIP3   OH250459   0.137   5.964  11.313  0.0409  0.9858 -0.3161
 8755TIP3    H150460   0.186   6.046  11.301  0.1048  1.0164  0.1263
 8755TIP3    H250461   0.199   5.905  11.356  0.0664  0.6274 -0.8372
 8756TIP3   OH250462   6.268   4.367  12.241  0.1388 -0.2260  0.0307
 8756TIP3    H150463   6.280   4.407  12.327 -0.3641 -1.0531  0.4997
 8756TIP3    H250464   6.174   4.349  12.237  0.1481 -0.1244 -0.7272
 8757TIP3   OH250465   5.512   6.826  11.420  0.5123  0.0308 -0.1735
 8757TIP3    H150466   5.582   6.767  11.447 -0.4716 -1.3876 -0.6559
 8757TIP3    H250467   5.446   6.819  11.488  0.0347 -0.0362 -0.6388
 8758TIP3   OH250468   5.334   3.826  11.495 -0.1056 -0.0048 -0.0673
 8758TIP3    H150469   5.342   3.818  11.400  1.6550 -0.4318  0.0740
 8758TIP3    H250470   5.260   3.770  11.518 -0.3035 -0.2107 -1.1406
 8759TIP3   OH250471   6.903   5.336  11.771 -0.5526  0.4293  0.3841
 8759TIP3    H150472   6.944   5.252  11.791  0.6687  0.5662 -1.2963
 8759TIP3    H250473   6.865   5.365  11.854 -0.4462 -1.4648  1.1387
 8760TIP3   OH250474   3.329   7.050  11.527  0.3838  0.7117  0.1673
 8760TIP3    H150475   3.358   7.073  11.615  0.0973 -0.2321  0.5185
 8760TIP3    H250476   3.235   7.035  11.536  0.5841 -0.7645  0.0054
 8761TIP3   OH250477   7.917   2.242  11.737  0.1958  0.3935  0.5758
 8761TIP3    H150478   7.930   2.239  11.642  1.0097  0.6681  0.6731
 8761TIP3    H250479   7.889   2.332  11.755  2.0768  0.9659  0.8265
 8762TIP3   OH250480   3.279   6.469  11.852 -0.4743  0.3670  0.0106
 8762TIP3    H150481   3.313   6.495  11.937  1.0750 -2.1363  0.2530
 8762TIP3    H250482   3.198   6.422  11.872 -0.3308  0.1461  0.0780
 8763TIP3   OH250483   3.895   0.132  10.982  0.1035 -0.2774 -0.3070
 8763TIP3    H150484   3.912   0.058  10.924  0.7829  0.8317 -1.5883
 8763TIP3    H250485   3.981   0.173  10.995 -0.3649  0.7040 -0.2255
 8764TIP3   OH250486   6.136   7.859  16.428 -0.1388  0.0334  0.4091
 8764TIP3    H150487   6.081   7.934  16.409 -1.2236 -0.8958 -0.2029
 8764TIP3    H250488   6.132   7.849  16.524  0.7645  1.2806  0.6034
 8765TIP3   OH250489   8.135   0.989  12.520  0.2492 -0.0700 -0.0128
 8765TIP3    H150490   8.090   0.907  12.542 -0.9799  0.8965  1.3131
 8765TIP3    H250491   8.090   1.021  12.442  0.6985 -0.6180 -0.5027
 8766TIP3   OH250492   3.463   3.777  12.004 -0.0091 -0.4522  0.4538
 8766TIP3    H150493   3.414   3.857  12.024 -0.1015  0.0095 -1.4248
 8766TIP3    H250494   3.396   3.709  11.998 -0.1435 -0.3025  0.2555
 8767TIP3   OH250495   2.103   1.448  12.338  0.4245  0.0057 -0.6098
 8767TIP3    H150496   2.182   1.466  12.286  0.6861 -1.1267 -0.6409
 8767TIP3    H250497   2.112   1.502  12.416  0.8542  0.4593 -0.9692
 8768TIP3   OH250498   3.657   7.078  12.604  0.1347  0.2117  0.5512
 8768TIP3    H150499   3.710   7.123  12.669  0.0681 -0.6704  1.2350
 8768TIP3    H250500   3.697   6.991  12.596  1.0694  0.7701 -1.6986
 8769TIP3   OH250501   5.099   2.003  12.198 -0.6720 -0.0902 -0.0494
 8769TIP3    H150502   5.156   2.080  12.207  0.7221 -1.1162  0.3815
 8769TIP3    H250503   5.065   2.009  12.109  0.5519  0.2974 -0.5245
 8770TIP3   OH250504   2.135   1.380  10.375  0.0530  0.0727  0.2698
 8770TIP3    H150505   2.132   1.469  10.340 -2.4703 -0.2757 -0.5769
 8770TIP3    H250506   2.125   1.391  10.470 -0.4629  0.6985  0.1519
 8771TIP3   OH250507   5.402   2.388  11.713 -0.0429  0.0073 -0.9465
 8771TIP3    H150508   5.374   2.348  11.630  1.0092  1.4822 -2.0663
 8771TIP3    H250509   5.459   2.460  11.686 -1.1904  1.7246  1.0109
 8772TIP3   OH250510   5.985   4.402  11.823 -0.6569  0.2070 -0.0371
 8772TIP3    H150511   5.942   4.487  11.813 -0.2046  1.0183  3.5506
 8772TIP3    H250512   6.078   4.422  11.821 -0.5220 -0.4836 -0.8979
 8773TIP3   OH250513   1.198   4.787  11.706  0.0522 -0.4832 -0.9570
 8773TIP3    H150514   1.115   4.800  11.753 -0.3091  1.1159 -1.9594
 8773TIP3    H250515   1.202   4.693  11.689 -1.2160 -0.6820 -0.2761
 8774TIP3   OH250516   2.673   4.990  11.840 -0.2330 -0.1554  0.2605
 8774TIP3    H150517   2.717   5.008  11.923 -1.3730  0.0091  0.8448
 8774TIP3    H250518   2.608   4.922  11.861 -0.0344 -0.6407 -0.6536
 8775TIP3   OH250519   5.263   3.166  11.068  0.6027  0.2799 -0.2594
 8775TIP3    H150520   5.291   3.213  10.989  1.6888 -1.2354 -0.8111
 8775TIP3    H250521   5.212   3.092  11.035 -0.2794  0.4984  0.5629
 8776TIP3   OH250522   8.369   7.643  17.722 -0.1025 -0.5644  0.2197
 8776TIP3    H150523   8.346   7.565  17.671 -0.4563  0.0004 -0.5024
 8776TIP3    H250524   8.465   7.644  17.722 -0.0975 -0.3228 -0.8350
 8777TIP3   OH250525   0.960   1.582  10.471 -0.3595 -0.1259  0.1980
 8777TIP3    H150526   0.981   1.663  10.425  0.6652 -0.4145  0.1348
 8777TIP3    H250527   0.884   1.604  10.524  1.0529  1.4885  1.7178
 8778TIP3   OH250528   1.630   2.093  10.490  0.1442 -0.5466  0.0147
 8778TIP3    H150529   1.659   2.004  10.512  0.3522 -0.6814 -0.7895
 8778TIP3    H250530   1.534   2.089  10.498 -0.1260 -1.6512 -2.7901
 8779TIP3   OH250531   6.233   5.666  11.602  0.2073 -0.1340  0.3811
 8779TIP3    H150532   6.138   5.673  11.588  0.4210  2.3972 -0.3019
 8779TIP3    H250533   6.243   5.587  11.654 -2.0287 -1.8905 -1.6312
 8780TIP3   OH250534   2.410   6.980  11.117  0.4710 -0.2796  0.1685
 8780TIP3    H150535   2.382   6.930  11.193 -0.4286  0.5142  0.3736
 8780TIP3    H250536   2.377   6.931  11.042 -0.9972  0.3337  0.3879
 8781TIP3   OH250537   1.601   0.681  12.469  0.4576  0.4495 -0.5750
 8781TIP3    H150538   1.601   0.663  12.375  1.3678 -0.1203 -0.4815
 8781TIP3    H250539   1.549   0.760  12.478 -1.8263 -0.8638 -1.2740
 8782TIP3   OH250540   5.679   7.478  10.728 -0.1016  0.3118 -0.0555
 8782TIP3    H150541   5.682   7.568  10.761 -0.6049  0.7628 -1.1998
 8782TIP3    H250542   5.593   7.446  10.756 -0.1962  0.4194 -0.2190
 8783TIP3   OH250543   6.947   8.164  10.834 -0.9310  0.7251  0.3123
 8783TIP3    H150544   6.955   8.075  10.800 -1.2586  0.9853 -0.4602
 8783TIP3    H250545   6.941   8.219  10.756  0.5858  1.5643  0.7515
 8784TIP3   OH250546   1.011   4.696  11.897 -0.0237 -0.1942  0.1817
 8784TIP3    H150547   1.041   4.727  11.983 -1.2742 -1.5080  1.1176
 8784TIP3    H250548   0.925   4.736  11.885 -1.2274 -2.3897  0.9687
 8785TIP3   OH250549   6.170   5.155  11.170  0.6019  0.0814  0.7945
 8785TIP3    H150550   6.175   5.074  11.119  0.6776  0.1571  0.6795
 8785TIP3    H250551   6.128   5.130  11.252  0.5985 -0.0684  0.7471
 8786TIP3   OH250552   1.015   5.392  12.177 -0.3481 -0.1032  0.2663
 8786TIP3    H150553   1.103   5.371  12.209 -0.0849 -1.0040 -0.9643
 8786TIP3    H250554   0.957   5.362  12.247  0.2990  0.1130  0.9131
 8787TIP3   OH250555   4.718   0.199  12.340 -0.1683 -0.1579  0.2540
 8787TIP3    H150556   4.760   0.224  12.258 -0.4277  0.8287  0.4051
 8787TIP3    H250557   4.699   0.282  12.383  1.6557 -0.6738  2.2038
 8788TIP3   OH250558   1.284   1.566  10.981  0.3656  0.2891 -0.4567
 8788TIP3    H150559   1.208   1.512  10.960  0.5224  0.7317 -2.3795
 8788TIP3    H250560   1.360   1.512  10.956  0.6662  0.1778  0.6495
 8789TIP3   OH250561   1.910   0.804  12.406 -0.5436  0.3259 -0.2376
 8789TIP3    H150562   1.890   0.875  12.345 -2.2810  0.0947 -0.0047
 8789TIP3    H250563   1.827   0.757  12.416  0.8733 -2.7603 -1.6222
 8790TIP3   OH250564   1.700   2.935  12.463 -0.2295 -0.3926 -0.1194
 8790TIP3    H150565   1.650   3.009  12.495 -1.4353 -0.2046 -2.3095
 8790TIP3    H250566   1.786   2.945  12.504 -0.8264  1.3256  0.8026
 8791TIP3   OH250567   3.973   8.318  11.124  0.4857 -0.0367 -0.4103
 8791TIP3    H150568   3.981   8.241  11.179  0.9134  0.6180  0.4685
 8791TIP3    H250569   4.049   8.315  11.066  1.0175  0.2190  0.2657
 8792TIP3   OH250570   2.061   0.061  10.992 -0.1895 -0.2662  0.2513
 8792TIP3    H150571   2.117   0.079  10.916 -0.6239 -0.8067 -0.2089
 8792TIP3    H250572   2.027   0.146  11.019  2.0598  0.3164  1.5083
 8793TIP3   OH250573   3.724   2.550  10.848  0.6938 -0.8501 -0.0767
 8793TIP3    H150574   3.797   2.589  10.799  0.7823 -0.9991 -0.0647
 8793TIP3    H250575   3.665   2.516  10.780  0.0216  0.3661 -0.1212
 8794TIP3   OH250576   7.304   6.903  11.407  0.4048  0.2731  0.0023
 8794TIP3    H150577   7.339   6.905  11.319 -0.0704  2.8492 -0.2100
 8794TIP3    H250578   7.380   6.890  11.464  1.0549  0.9901 -0.6850
 8795TIP3   OH250579   6.445   8.040  11.332 -0.0470  0.3220 -0.1361
 8795TIP3    H150580   6.468   7.947  11.332 -0.0936  0.2954 -1.5424
 8795TIP3    H250581   6.521   8.083  11.371  0.1846 -0.2509  0.0674
 8796TIP3   OH250582   6.444   1.240  12.674 -0.1012  0.3135  0.6903
 8796TIP3    H150583   6.515   1.304  12.680  0.4618 -0.4308  2.5460
 8796TIP3    H250584   6.468   1.171  12.736 -0.5003 -1.9406 -1.5171
 8797TIP3   OH250585   5.861   8.129  10.598  0.0098  0.2878 -0.6652
 8797TIP3    H150586   5.928   8.095  10.657  0.4933 -0.6458 -1.7156
 8797TIP3    H250587   5.876   8.083  10.515 -0.1263  2.1445 -1.7824
 8798TIP3   OH250588   4.611   0.254  11.831  0.4865 -0.0112 -0.1232
 8798TIP3    H150589   4.688   0.302  11.797  0.5074  0.5192  0.6510
 8798TIP3    H250590   4.648   0.179  11.877  0.5056 -0.1398 -0.3468
 8799TIP3   OH250591   6.671   5.122  12.031 -0.3205 -0.3267 -0.2032
 8799TIP3    H150592   6.658   5.212  12.061 -1.2561  0.0197 -1.5545
 8799TIP3    H250593   6.764   5.116  12.013 -0.3202  0.5072 -0.5086
 8800TIP3   OH250594   8.029   4.434  11.007  0.4012 -0.2567 -0.2934
 8800TIP3    H150595   8.020   4.525  10.980 -0.8297 -1.0604 -2.8407
 8800TIP3    H250596   7.975   4.385  10.945  1.4806 -2.7902  0.6593
 8801TIP3   OH250597   4.224   3.103  10.648  0.0567 -0.1213  0.0988
 8801TIP3    H150598   4.202   3.041  10.578 -0.7916 -0.4781  0.6624
 8801TIP3    H250599   4.297   3.062  10.695 -1.2627 -1.3174  1.2097
 8802TIP3   OH250600   1.949   8.286  10.646  0.3042  0.6349  0.0255
 8802TIP3    H150601   1.959   8.230  10.723 -2.2826 -0.0553 -0.0627
 8802TIP3    H250602   1.891   8.356  10.674 -0.7917  0.2980 -1.3122
 8803TIP3   OH250603   6.086   3.598  12.141  0.1630  0.0107  0.2365
 8803TIP3    H150604   6.056   3.545  12.215  0.9375 -0.4615  0.2273
 8803TIP3    H250605   6.089   3.537  12.067  0.9992  0.0670  0.2105
 8804TIP3   OH250606   3.173   0.726  12.065  0.7917  0.1767 -0.3075
 8804TIP3    H150607   3.194   0.633  12.058 -0.5742 -0.3150  1.3718
 8804TIP3    H250608   3.190   0.748  12.157 -2.3616  0.5715  0.3239
 8805TIP3   OH250609   2.121   0.265  10.764 -0.2858  0.6607 -0.2169
 8805TIP3    H150610   2.049   0.327  10.778  0.6257  1.3933  1.5186
 8805TIP3    H250611   2.199   0.320  10.754  0.2039 -0.1511 -1.1013
 8806TIP3   OH250612   5.003   1.534  12.041 -0.6943  0.4102 -0.0651
 8806TIP3    H150613   5.006   1.627  12.017 -1.7218  0.3645 -0.4024
 8806TIP3    H250614   4.997   1.488  11.957 -0.3202  0.0449  0.1084
 8807TIP3   OH250615   1.956   6.336  11.770 -0.1266 -0.0611  0.0970
 8807TIP3    H150616   1.967   6.307  11.860  0.5295 -0.0543  0.0217
 8807TIP3    H250617   1.978   6.429  11.771 -2.8297  0.6598  0.4595
 8808TIP3   OH250618   6.052   2.863  11.462 -0.3672 -0.0852  0.2194
 8808TIP3    H150619   6.127   2.824  11.417 -0.5602  0.9019 -1.0316
 8808TIP3    H250620   5.984   2.796  11.459  0.5576 -1.1690  1.7676
 8809TIP3   OH250621   4.068   2.260  12.078 -0.4890  0.1635 -0.2773
 8809TIP3    H150622   4.122   2.282  12.154 -0.1278  0.6445 -0.6694
 8809TIP3    H250623   4.130   2.229  12.012 -0.5742  1.5034 -1.0234
 8810TIP3   OH250624   4.814   4.369  10.467  0.3960  0.7187  0.2419
 8810TIP3    H150625   4.721   4.392  10.460  0.4734  0.5090 -2.8745
 8810TIP3    H250626   4.848   4.428  10.535 -1.9949  0.7369  1.5288
 8811TIP3   OH250627   3.911   1.103  12.246 -0.6326 -0.2561  0.1242
 8811TIP3    H150628   3.966   1.043  12.296 -1.8399  0.2720  2.1854
 8811TIP3    H250629   3.831   1.111  12.297 -0.5805  3.0221 -0.0986
 8812TIP3   OH250630   5.279   2.027  10.650  0.1555 -0.7218 -0.0909
 8812TIP3    H150631   5.187   2.025  10.675  0.5899 -1.3935  1.6683
 8812TIP3    H250632   5.312   1.940  10.674  1.3765 -0.2882 -0.0961
 8813TIP3   OH250633   0.351   2.446  10.526  0.2101  0.5661 -0.2431
 8813TIP3    H150634   0.442   2.457  10.500  0.2143  1.2102  0.0201
 8813TIP3    H250635   0.317   2.535  10.532 -0.1778  0.3751  0.5794
 8814TIP3   OH250636   6.759   3.094  11.458  0.5292 -0.2469  0.0114
 8814TIP3    H150637   6.781   3.154  11.529  0.8439 -2.3158  1.7788
 8814TIP3    H250638   6.666   3.107  11.442  0.8690  1.6319 -0.6220
 8815TIP3   OH250639   5.542   3.745  10.532 -0.1156  0.2596 -0.0695
 8815TIP3    H150640   5.467   3.720  10.586  1.0606 -1.5699  0.8298
 8815TIP3    H250641   5.588   3.662  10.516 -0.1976  0.7286 -3.6510
 8816TIP3   OH250642   3.982   2.778  11.142 -0.1352  0.1555 -0.6219
 8816TIP3    H150643   4.026   2.779  11.227  2.5511  1.6950 -1.9406
 8816TIP3    H250644   3.952   2.868  11.129 -2.2635 -0.4703 -0.5696
 8817TIP3   OH250645   0.820   0.156  11.169  0.2105  0.1691  0.4538
 8817TIP3    H150646   0.788   0.176  11.081  0.6792 -1.2307 -0.0493
 8817TIP3    H250647   0.916   0.155  11.160  0.2518 -0.2664  0.9053
 8818TIP3   OH250648   1.593   3.868  12.717  0.7973  0.0593  0.0612
 8818TIP3    H150649   1.535   3.944  12.715  1.3442  0.6815  3.2275
 8818TIP3    H250650   1.681   3.904  12.722  1.0519 -0.7047  1.9248
 8819TIP3   OH250651   2.597   0.771  11.797 -0.3073  0.5386  0.1556
 8819TIP3    H150652   2.568   0.858  11.824 -1.0200  0.1243  0.7917
 8819TIP3    H250653   2.517   0.728  11.765 -0.0284  0.0102  0.1452
 8820TIP3   OH250654   3.869   0.021  11.803  0.2394  0.0200 -0.3580
 8820TIP3    H150655   3.869  -0.063  11.849 -1.1268  0.1427 -0.1003
 8820TIP3    H250656   3.953   0.061  11.827  1.3502 -1.6310 -1.2142
 8821TIP3   OH250657   4.641   8.193  11.551  0.3915 -0.3594 -0.1135
 8821TIP3    H150658   4.649   8.213  11.458  0.9753 -0.0690  0.0002
 8821TIP3    H250659   4.689   8.262  11.595  1.7493 -1.5315  0.3180
 8822TIP3   OH250660   5.369   4.991  12.364 -0.1256 -0.1733 -0.2914
 8822TIP3    H150661   5.299   4.980  12.428 -0.2649  0.4254 -0.3390
 8822TIP3    H250662   5.327   5.028  12.287 -0.0685 -1.4464 -0.9684
 8823TIP3   OH250663   1.150   7.563  11.344 -0.2012 -0.2570 -0.4394
 8823TIP3    H150664   1.116   7.476  11.325 -1.2721  0.3654 -1.4564
 8823TIP3    H250665   1.160   7.564  11.439  0.7331 -1.8025 -0.4970
 8824TIP3   OH250666   1.307   4.064  11.102 -0.2227  0.4620 -0.0330
 8824TIP3    H150667   1.226   4.079  11.150  0.1691 -0.3115  0.8909
 8824TIP3    H250668   1.290   3.987  11.049  0.8351 -1.6417  2.4706
 8825TIP3   OH250669   6.097   0.417  10.835  0.2714 -0.7479  0.0082
 8825TIP3    H150670   6.037   0.385  10.902  1.3617 -1.0099  0.9047
 8825TIP3    H250671   6.134   0.338  10.797 -0.0176 -0.5906 -0.6074
 8826TIP3   OH250672   7.504   6.290  10.617 -0.5762  0.1222  0.1351
 8826TIP3    H150673   7.507   6.359  10.552 -0.0355 -0.0230  0.0012
 8826TIP3    H250674   7.450   6.222  10.578 -0.8002  0.3138  0.1131
 8827TIP3   OH250675   5.598   2.481  10.568 -0.2346  0.3306  0.0245
 8827TIP3    H150676   5.677   2.525  10.601 -0.3177 -0.9867  2.1526
 8827TIP3    H250677   5.632   2.410  10.513  0.0725 -0.0038  0.6326
 8828TIP3   OH250678   4.954   4.053  11.838  0.0803 -0.1605  0.1334
 8828TIP3    H150679   5.049   4.051  11.841  0.0662  0.0072  0.6455
 8828TIP3    H250680   4.931   4.146  11.843 -0.1251 -0.2250  0.3916
 8829TIP3   OH250681   2.505   8.235  10.510 -0.0548 -0.1922  0.1358
 8829TIP3    H150682   2.439   8.300  10.486 -0.1488 -0.6555 -0.9028
 8829TIP3    H250683   2.562   8.229  10.432  0.5822 -0.5742  0.6182
 8830TIP3   OH250684   2.676   1.105  13.085 -0.1640 -0.0094 -0.9150
 8830TIP3    H150685   2.653   1.052  13.009  0.4171 -0.4071 -0.8214
 8830TIP3    H250686   2.771   1.110  13.082 -0.1994  0.8691 -0.8073
 8831TIP3   OH250687   2.383   5.180  10.843 -0.0930 -0.1466 -0.1079
 8831TIP3    H150688   2.305   5.225  10.811 -0.4189 -0.2422  0.5273
 8831TIP3    H250689   2.431   5.155  10.764 -0.6063  0.0868 -0.4982
 8832TIP3   OH250690   6.662   2.299  11.208 -0.4346 -0.4911  0.5300
 8832TIP3    H150691   6.714   2.302  11.288  1.3161  1.0837 -0.5619
 8832TIP3    H250692   6.588   2.357  11.224 -1.1946 -1.7134  1.6428
 8833TIP3   OH250693   1.221   3.538  10.713  0.0867  0.2599  0.1318
 8833TIP3    H150694   1.219   3.557  10.620  0.0578  0.1396  0.1071
 8833TIP3    H250695   1.297   3.584  10.747 -1.0046  1.9609  0.4119
 8834TIP3   OH250696   7.612   4.312  11.025  0.5423 -0.6434  0.2448
 8834TIP3    H150697   7.621   4.223  11.060 -0.5729 -1.1989 -0.8310
 8834TIP3    H250698   7.560   4.359  11.091  0.9282 -0.8469  0.6993
 8835TIP3   OH250699   2.303   3.165  12.735 -0.5368 -0.8252  0.0148
 8835TIP3    H150700   2.257   3.109  12.673 -0.1835 -0.6769 -0.3804
 8835TIP3    H250701   2.326   3.243  12.685 -2.5451  0.4749  0.9826
 8836TIP3   OH250702   4.384   0.349  11.710 -0.3606  0.4024 -0.3365
 8836TIP3    H150703   4.466   0.324  11.751  0.8016  2.8230 -0.9810
 8836TIP3    H250704   4.340   0.267  11.691  1.1268 -0.9124  1.5533
 8837TIP3   OH250705   3.417   7.215  12.588  0.0328 -0.0093  0.1442
 8837TIP3    H150706   3.360   7.167  12.648  0.4389  0.2478  0.7510
 8837TIP3    H250707   3.500   7.168  12.592  0.0358 -0.0507 -0.3056
 8838TIP3   OH250708   3.639   5.526  10.436 -0.0765  0.2481  0.3121
 8838TIP3    H150709   3.549   5.542  10.408 -0.4391 -2.7907 -0.6807
 8838TIP3    H250710   3.630   5.472  10.515  0.8817  0.3164  0.4824
 8839TIP3   OH250711   8.243   2.912  11.604  0.7438 -0.4840 -0.3186
 8839TIP3    H150712   8.258   3.006  11.590  0.8917 -0.0124  2.4559
 8839TIP3    H250713   8.331   2.876  11.618  0.5544 -0.7109  0.2981
 8840TIP3   OH250714   1.963   0.343  11.627 -1.0038 -0.2275  0.1451
 8840TIP3    H150715   1.949   0.384  11.541 -2.5837  0.7960  0.8480
 8840TIP3    H250716   1.875   0.319  11.657 -0.7715  1.3592  2.3677
 8841TIP3   OH250717   2.326   0.038  11.214 -0.6275  0.1247 -0.2313
 8841TIP3    H150718   2.357  -0.041  11.169  0.2663  0.9118 -1.0409
 8841TIP3    H250719   2.239   0.014  11.246 -1.5751 -0.3256 -2.8560
 8842TIP3   OH250720   2.107   7.421  11.671  0.6276 -0.7573  0.5464
 8842TIP3    H150721   2.183   7.371  11.702 -0.9722 -2.4863  1.9671
 8842TIP3    H250722   2.046   7.419  11.745 -0.6900  0.8428 -0.4310
 8843TIP3   OH250723   2.596   1.585  11.760 -0.2894  0.3175  0.1584
 8843TIP3    H150724   2.564   1.664  11.803 -0.6496  0.1156  0.2659
 8843TIP3    H250725   2.559   1.513  11.811 -0.9823  0.0717 -0.6594
 8844TIP3   OH250726   6.023   8.309  10.417 -0.3423  0.1185 -0.9031
 8844TIP3    H150727   5.982   8.229  10.385  1.7430 -0.5067 -2.2866
 8844TIP3    H250728   6.099   8.279  10.467  0.6358  1.1889 -1.6796
 8845TIP3   OH250729   8.370   6.804  10.670 -0.5257  0.0624  0.0678
 8845TIP3    H150730   8.421   6.783  10.592  1.1000 -1.1554  1.3921
 8845TIP3    H250731   8.279   6.791  10.644  0.0830 -2.2870 -1.0775
 8846TIP3   OH250732   2.574   3.283  11.790  0.0383  0.0311  0.5390
 8846TIP3    H150733   2.666   3.289  11.763  0.1435 -1.0874  0.6097
 8846TIP3    H250734   2.526   3.324  11.718  0.2995 -3.0151 -1.5600
 8847TIP3   OH250735   3.593   0.915  11.487  0.3189 -0.2055  0.1315
 8847TIP3    H150736   3.579   0.997  11.533 -1.2765  0.1920 -0.9552
 8847TIP3    H250737   3.588   0.848  11.555 -1.6428  0.3821  0.6289
 8848TIP3   OH250738   6.423   0.699  11.419  0.8509 -0.0744  0.4817
 8848TIP3    H150739   6.422   0.617  11.370 -2.3685 -1.2135  2.1370
 8848TIP3    H250740   6.430   0.673  11.511 -2.1002  1.2088  1.2105
 8849TIP3   OH250741   0.148   7.125  12.666  0.1787  0.0025  0.0990
 8849TIP3    H150742   0.222   7.084  12.711 -0.7907  1.9085  3.8532
 8849TIP3    H250743   0.113   7.056  12.609  2.1312 -2.3935  1.6184
 8850TIP3   OH250744   8.050   4.401  12.038  0.0833  0.1796  0.2396
 8850TIP3    H150745   7.980   4.353  12.081 -0.1051  1.3572  1.3216
 8850TIP3    H250746   8.130   4.358  12.068 -0.0929  0.2796  0.8673
 8851TIP3   OH250747   6.398   2.810  10.726  0.1659 -0.4751 -0.1138
 8851TIP3    H150748   6.405   2.714  10.722  2.2110 -0.3552 -0.4459
 8851TIP3    H250749   6.489   2.840  10.726 -0.4167  1.4415  1.0667
 8852TIP3   OH250750   3.497   0.896  12.998  0.6417 -0.7926  0.0952
 8852TIP3    H150751   3.500   0.808  13.034  2.0619 -0.8868 -0.1947
 8852TIP3    H250752   3.405   0.923  13.008  0.0256 -2.5576 -0.4816
 8853TIP3   OH250753   6.028   6.205  11.533  0.1693  0.2774 -0.0041
 8853TIP3    H150754   6.028   6.238  11.443 -1.7452  1.6718  0.4403
 8853TIP3    H250755   6.060   6.278  11.585 -0.7312  0.2133  0.6543
 8854TIP3   OH250756   4.590   2.768  11.477  0.4861 -0.5646  0.1599
 8854TIP3    H150757   4.509   2.739  11.436  0.9453 -2.2581  0.3724
 8854TIP3    H250758   4.561   2.821  11.552 -0.4062 -0.8836  0.0509
 8855TIP3   OH250759   5.595   3.766  12.185 -0.1205 -0.1048 -0.5100
 8855TIP3    H150760   5.617   3.713  12.262  0.8331  0.7719 -0.1539
 8855TIP3    H250761   5.667   3.828  12.177 -0.1333 -0.2627 -2.2063
 8856TIP3   OH250762   7.306   2.640  12.297  0.2530  0.4040  0.9760
 8856TIP3    H150763   7.331   2.570  12.237 -0.6581 -1.2541  2.4636
 8856TIP3    H250764   7.224   2.674  12.262 -0.4530 -0.7846  1.4295
 8857TIP3   OH250765   3.876   8.358  12.273  0.2912 -0.3645 -0.0191
 8857TIP3    H150766   3.891   8.314  12.357 -1.4660 -0.2886  0.3870
 8857TIP3    H250767   3.793   8.404  12.285  0.8186  0.9996 -1.2798
 8858TIP3   OH250768   3.489   6.189  10.463 -0.4219 -0.2590 -0.1208
 8858TIP3    H150769   3.519   6.132  10.534  0.0577  1.8551  1.5098
 8858TIP3    H250770   3.570   6.227  10.428 -0.8242  1.6985  0.9317
 8859TIP3   OH250771   1.637   5.984  12.340  0.0621 -0.7283 -0.1189
 8859TIP3    H150772   1.598   6.039  12.272 -1.3969 -0.1749  1.1245
 8859TIP3    H250773   1.570   5.920  12.361 -0.4600  0.5591  2.4198
 8860TIP3   OH250774   4.504   6.888  12.253  0.4629  0.2411 -0.0598
 8860TIP3    H150775   4.486   6.979  12.232 -0.1439  0.3573  0.8815
 8860TIP3    H250776   4.422   6.857  12.293  1.2949 -0.1486  1.4247
 8861TIP3   OH250777   4.225   1.469  12.046 -0.2776 -0.2525  0.4757
 8861TIP3    H150778   4.176   1.415  11.984  1.3377 -0.6369 -0.5211
 8861TIP3    H250779   4.221   1.420  12.128  1.5629 -2.2433 -0.5122
 8862TIP3   OH250780   8.390   6.714  10.949  0.1504 -0.5144  0.2363
 8862TIP3    H150781   8.308   6.717  10.997  0.4672  2.3803  0.7693
 8862TIP3    H250782   8.371   6.755  10.865  1.1055  0.6783  0.5674
 8863TIP3   OH250783   8.028   0.832  11.769  0.0997 -0.5464 -0.2873
 8863TIP3    H150784   7.936   0.841  11.742  0.6005  0.2758 -1.8211
 8863TIP3    H250785   8.036   0.740  11.794 -0.8761 -0.9024 -1.2162
 8864TIP3   OH250786   3.371   6.388  11.616  0.4000 -0.4360  0.0679
 8864TIP3    H150787   3.304   6.409  11.552  0.6537  0.5268  0.1040
 8864TIP3    H250788   3.334   6.415  11.700  1.0367  0.6436  0.0227
 8865TIP3   OH250789   4.925   8.248  11.604 -0.1714 -0.0671 -0.0689
 8865TIP3    H150790   4.927   8.248  11.700  0.9351 -1.7481 -0.0665
 8865TIP3    H250791   4.977   8.172  11.578 -2.4919 -1.1556 -1.9739
 8866TIP3   OH250792   0.531   7.610  10.518 -0.2064 -0.2287  0.0861
 8866TIP3    H150793   0.615   7.565  10.522  0.0170  0.1407 -0.3560
 8866TIP3    H250794   0.486   7.584  10.599  0.4301 -0.2358  0.4434
 8867TIP3   OH250795   5.616   0.147  11.798  0.2408 -0.6282 -0.0725
 8867TIP3    H150796   5.615   0.151  11.893 -0.9946 -0.7315 -0.0684
 8867TIP3    H250797   5.589   0.235  11.770 -1.7451 -1.2557 -0.2749
 8868TIP3   OH250798   1.534   4.945  11.621  0.2397  0.1417  0.0715
 8868TIP3    H150799   1.542   4.995  11.539  2.3162 -0.0492  0.0897
 8868TIP3    H250800   1.461   4.985  11.667  1.3880  2.7426 -0.2250
 8869TIP3   OH250801   0.971   8.097  12.058 -0.3543  0.5062  0.0385
 8869TIP3    H150802   1.020   8.178  12.073 -2.0109  1.3664  1.1723
 8869TIP3    H250803   0.908   8.094  12.130  1.9869 -3.7195  2.2559
 8870TIP3   OH250804   5.926   7.414  12.394  0.3709  1.0713 -0.0175
 8870TIP3    H150805   5.838   7.453  12.391 -0.2992 -0.2631  1.1724
 8870TIP3    H250806   5.985   7.489  12.401 -0.7875  1.9328  0.8417
 8871TIP3   OH250807   8.079   2.540  11.117  0.4891  0.5769 -0.1512
 8871TIP3    H150808   8.008   2.578  11.168 -0.4122 -1.6420  0.3952
 8871TIP3    H250809   8.052   2.551  11.026  0.2819  1.2558 -0.0112
 8872TIP3   OH250810   7.502   5.520  11.675  0.1004 -0.0873 -0.6002
 8872TIP3    H150811   7.549   5.461  11.735  0.2634  1.3175  0.6936
 8872TIP3    H250812   7.572   5.562  11.624  0.0552 -0.1519 -0.7167
 8873TIP3   OH250813   5.436   2.611  11.151 -0.4830  0.6884 -0.3117
 8873TIP3    H150814   5.418   2.589  11.060  2.0985  0.5727 -0.8749
 8873TIP3    H250815   5.485   2.693  11.147  1.1117 -0.1392  0.7936
 8874TIP3   OH250816   6.082   1.587  11.994 -0.0577 -0.1400  0.4140
 8874TIP3    H150817   6.013   1.522  11.984  0.7492 -0.7554 -1.9044
 8874TIP3    H250818   6.141   1.551  12.060 -1.5503  0.0797  1.9199
 8875TIP3   OH250819   1.627   2.803  10.374 -0.2228 -0.1291  0.7527
 8875TIP3    H150820   1.596   2.723  10.332 -0.6222  0.3627  0.0774
 8875TIP3    H250821   1.721   2.789  10.386 -0.2414 -0.5975  0.3975
 8876TIP3   OH250822   3.291   3.772  10.552  0.3471 -0.5112  0.2191
 8876TIP3    H150823   3.200   3.788  10.576  0.7586  0.2766  1.3595
 8876TIP3    H250824   3.337   3.852  10.576  1.6275 -1.5098  1.2908
 8877TIP3   OH250825   5.388   1.683  11.434  0.0442 -0.6740  0.7637
 8877TIP3    H150826   5.397   1.673  11.529 -0.1957  2.3631  1.2139
 8877TIP3    H250827   5.478   1.687  11.402  0.1871  0.6347  1.2430
 8878TIP3   OH250828   6.326   7.716  10.953  0.4829  0.0055 -0.2824
 8878TIP3    H150829   6.342   7.622  10.960  2.5674  0.3795  0.6626
 8878TIP3    H250830   6.236   7.727  10.984  0.8604 -1.4786  1.5417
 8879TIP3   OH250831   5.322   7.598  11.995  0.2953 -0.7278  0.3393
 8879TIP3    H150832   5.349   7.617  12.085  1.9464 -0.0287 -0.2447
 8879TIP3    H250833   5.390   7.639  11.942 -2.3423  1.8553 -1.3573
 8880TIP3   OH250834   6.952   1.884  11.529 -0.6767 -0.0459  0.2144
 8880TIP3    H150835   6.883   1.940  11.495  0.4595  1.2549 -0.0265
 8880TIP3    H250836   6.971   1.823  11.457  0.3628  1.4349 -0.8159
 8881TIP3   OH250837   2.780   7.884  11.738 -0.0973  0.6052 -0.5182
 8881TIP3    H150838   2.770   7.979  11.739 -0.1001  0.6118 -1.0649
 8881TIP3    H250839   2.712   7.852  11.679 -1.7932  0.0400  1.6421
 8882TIP3   OH250840   5.296   6.825  12.178 -0.2095  0.2519  0.0045
 8882TIP3    H150841   5.312   6.793  12.090  0.9633 -2.1078  0.9945
 8882TIP3    H250842   5.383   6.836  12.217 -0.7100  0.4855  1.1155
 8883TIP3   OH250843   6.610   0.783  10.734  0.4028 -0.3121 -0.2037
 8883TIP3    H150844   6.604   0.717  10.665 -0.8360  0.6889 -1.1024
 8883TIP3    H250845   6.521   0.788  10.770  0.5128  0.7540 -0.0528
 8884TIP3   OH250846   2.089   0.729  11.966 -0.4798  0.2243 -0.3955
 8884TIP3    H150847   2.033   0.745  11.890 -1.0857 -1.7082 -0.4072
 8884TIP3    H250848   2.108   0.817  12.000 -0.6502  1.1016 -2.4234
 8885TIP3   OH250849   1.682   0.128  11.360 -0.1357 -0.0462  0.2155
 8885TIP3    H150850   1.753   0.187  11.335  1.4972 -1.2133  1.8429
 8885TIP3    H250851   1.726   0.047  11.386 -2.1098 -1.0032  0.7983
 8886TIP3   OH250852   5.835   0.839  11.643 -0.2864 -0.7011 -0.3242
 8886TIP3    H150853   5.741   0.859  11.644 -0.6525 -2.3209 -0.0844
 8886TIP3    H250854   5.846   0.774  11.712  0.8890 -1.0949 -0.8670
 8887TIP3   OH250855   6.536   1.401  10.888 -0.3167  0.3767 -0.0254
 8887TIP3    H150856   6.521   1.376  10.797 -2.0013  0.1507  0.2819
 8887TIP3    H250857   6.502   1.490  10.896  0.4134  0.6441  0.2480
 8888TIP3   OH250858   0.196   0.209  11.844 -0.3589  0.1155  0.4041
 8888TIP3    H150859   0.140   0.134  11.826 -0.1260 -0.5043  2.0866
 8888TIP3    H250860   0.273   0.196  11.789  0.5758 -1.9668  2.0857
 8889TIP3   OH250861   6.206   2.284  10.548  0.2809  0.0027 -0.8493
 8889TIP3    H150862   6.163   2.200  10.565 -0.3601  0.6744  1.2261
 8889TIP3    H250863   6.279   2.287  10.610  1.3117  0.3035 -2.0431
 8890TIP3   OH250864   6.697   1.780  11.007 -0.0642  0.9200 -0.4915
 8890TIP3    H150865   6.717   1.765  10.915 -0.3395 -1.1855 -0.2463
 8890TIP3    H250866   6.604   1.759  11.015  0.5114 -1.4816  0.7067
 8891TIP3   OH250867   4.291   4.823  10.600  0.7598  0.3076  0.4597
 8891TIP3    H150868   4.264   4.892  10.661  0.2971  0.5487 -0.0051
 8891TIP3    H250869   4.374   4.854  10.564  0.7015  0.4845  0.4738
 8892TIP3   OH250870   5.923   5.669  11.807  0.1360  0.3300 -0.3497
 8892TIP3    H150871   5.895   5.610  11.876  0.9685 -0.8782 -1.0202
 8892TIP3    H250872   5.989   5.620  11.758  0.4226  1.5953 -1.2836
 8893TIP3   OH250873   3.782   4.964  10.928  0.0769 -0.2954 -0.0403
 8893TIP3    H150874   3.828   5.034  10.974  1.7875 -0.1306 -1.8917
 8893TIP3    H250875   3.811   4.971  10.837 -3.0688 -0.6576 -1.2236
 8894TIP3   OH250876   1.188   1.206  10.275 -0.0951 -0.2693 -0.1261
 8894TIP3    H150877   1.135   1.218  10.354 -0.2461  0.0491 -0.2704
 8894TIP3    H250878   1.123   1.201  10.204 -0.0079 -1.4707 -0.1345
 8895TIP3   OH250879   4.396   5.196  11.987  0.5720 -0.0867  0.1476
 8895TIP3    H150880   4.424   5.277  12.029  0.2794 -1.4512  3.2657
 8895TIP3    H250881   4.391   5.133  12.058 -1.8558 -2.1713 -1.6842
 8896TIP3   OH250882   5.649   7.506  11.679 -0.2023  0.1517  0.0797
 8896TIP3    H150883   5.640   7.508  11.584 -0.5468 -1.4714  0.0351
 8896TIP3    H250884   5.591   7.434  11.707  1.4474 -0.7923  1.2957
 8897TIP3   OH250885   5.280   5.057  10.233  0.0199 -0.2362  0.7595
 8897TIP3    H150886   5.311   5.113  10.162  0.3068 -0.5209  0.6596
 8897TIP3    H250887   5.222   5.113  10.284  0.7646  0.3290  0.9961
 8898TIP3   OH250888   5.378   1.768  10.703  0.3657  0.1038  0.1408
 8898TIP3    H150889   5.322   1.758  10.780 -1.5035  0.3579 -1.1373
 8898TIP3    H250890   5.467   1.768  10.739 -0.4674  1.3457  2.4156
 8899TIP3   OH250891   3.122   7.076  12.344  0.0331  0.5122  0.8677
 8899TIP3    H150892   3.216   7.057  12.340  0.0463  0.2606  2.0240
 8899TIP3    H250893   3.088   7.015  12.410 -0.6867  1.5700  1.4958
 8900TIP3   OH250894   8.411   4.705  12.321  0.1327 -0.5739  0.4365
 8900TIP3    H150895   8.483   4.763  12.345 -0.4166 -0.1911  1.1750
 8900TIP3    H250896   8.449   4.644  12.258  0.6592  0.7397 -0.5482
 8901TIP3   OH250897   6.367   5.574  11.103  0.4604 -0.8665 -0.4683
 8901TIP3    H150898   6.443   5.611  11.147 -0.3471  1.1041 -0.6458
 8901TIP3    H250899   6.390   5.482  11.090  2.3598 -0.5729  0.4288
 8902TIP3   OH250900   0.227   7.061  11.638 -0.1879 -0.2263  0.2538
 8902TIP3    H150901   0.134   7.076  11.619 -0.0621  0.6775  0.2997
 8902TIP3    H250902   0.267   7.045  11.552 -0.0547  1.3922 -0.0315
 8903TIP3   OH250903   1.919   6.462  10.734  0.3396 -0.0541  0.0629
 8903TIP3    H150904   1.929   6.506  10.818 -0.8948 -2.2701  1.4476
 8903TIP3    H250905   1.829   6.430  10.734  0.8137 -1.5163 -1.3960
 8904TIP3   OH250906   6.962   6.989  10.831 -0.5014  0.2860 -0.7375
 8904TIP3    H150907   6.875   7.008  10.867 -0.3439  1.3121 -0.8523
 8904TIP3    H250908   6.991   7.073  10.793  0.4558 -0.0881 -0.8691
 8905TIP3   OH250909   5.420   1.621  11.706 -0.0758  0.3760 -0.0708
 8905TIP3    H150910   5.429   1.580  11.792  1.4589  0.1031 -0.3230
 8905TIP3    H250911   5.400   1.713  11.725 -2.0881 -0.1227  0.5146
 8906TIP3   OH250912   1.984   3.611  10.998 -0.7036  1.0888 -0.5020
 8906TIP3    H150913   1.944   3.697  11.017  0.8677  1.9280 -0.8165
 8906TIP3    H250914   2.074   3.632  10.974  0.0745 -0.7665  0.6035
 8907TIP3   OH250915   1.809   4.389  11.288  0.1899  0.3207  0.0053
 8907TIP3    H150916   1.873   4.461  11.283  1.6451 -0.8017  1.4943
 8907TIP3    H250917   1.729   4.430  11.322  0.3066  1.6115 -1.1739
 8908TIP3   OH250918   6.467   5.037  11.183  0.1595  0.3310  0.2111
 8908TIP3    H150919   6.461   5.035  11.278 -0.8635  0.8297  0.1699
 8908TIP3    H250920   6.561   5.044  11.165  0.6905 -2.8798  1.1016
 8909TIP3   OH250921   5.909   4.183  11.947 -0.2382  0.0722  0.0467
 8909TIP3    H150922   5.886   4.196  12.039 -0.8745  0.0980 -0.1169
 8909TIP3    H250923   5.943   4.268  11.918  0.2889 -0.0320  0.3478
 8910TIP3   OH250924   5.042   1.970  10.762 -0.0574  0.6200 -0.2797
 8910TIP3    H150925   5.020   1.935  10.848  0.7726 -1.5254 -0.8726
 8910TIP3    H250926   5.038   2.065  10.772 -0.7459  0.3971  1.8994
 8911TIP3   OH250927   2.377   2.727  12.683  0.1081  0.0168  0.7113
 8911TIP3    H150928   2.287   2.737  12.712  0.0957  0.2848  0.5756
 8911TIP3    H250929   2.430   2.751  12.759  0.0902  1.5543  0.2661
 8912TIP3   OH250930   6.787   4.588  11.451  0.5061  0.6668 -0.1006
 8912TIP3    H150931   6.704   4.551  11.420  0.7213 -0.4926  0.6428
 8912TIP3    H250932   6.792   4.562  11.543  2.0293  0.0687 -0.3201
 8913TIP3   OH250933   1.825   6.707  11.522 -0.2956  0.1021  0.4812
 8913TIP3    H150934   1.811   6.617  11.494 -0.5543  0.3040 -0.0469
 8913TIP3    H250935   1.853   6.700  11.614 -0.2826 -0.5114  0.4316
 8914TIP3   OH250936   4.286   1.180  11.139 -0.1919 -0.1384 -0.5759
 8914TIP3    H150937   4.282   1.108  11.076 -0.1587 -1.3512  0.7660
 8914TIP3    H250938   4.355   1.238  11.104 -1.1817  0.0153 -2.4133
 8915TIP3   OH250939   6.087   5.398  10.345  0.3124 -0.1877  0.1494
 8915TIP3    H150940   6.149   5.394  10.418 -1.2063 -1.7208  1.4075
 8915TIP3    H250941   6.062   5.307  10.330 -0.8524  0.3065 -1.0396
 8916TIP3   OH250942   4.831   6.804  11.809  0.3409 -0.2301  0.3724
 8916TIP3    H150943   4.831   6.708  11.808  0.1112 -0.2642  1.8078
 8916TIP3    H250944   4.919   6.828  11.835  1.0058  0.0313 -1.9108
 8917TIP3   OH250945   3.587   8.143  10.344  0.2923 -0.4909  0.3718
 8917TIP3    H150946   3.572   8.105  10.258  0.3089 -0.8376  0.5186
 8917TIP3    H250947   3.587   8.068  10.404 -0.2713 -0.2005  0.7438
 8918TIP3   OH250948   2.228   5.782  10.516  0.2907 -0.1192 -0.2518
 8918TIP3    H150949   2.207   5.874  10.535  0.5581 -0.4403  1.7262
 8918TIP3    H250950   2.175   5.732  10.577  0.3488 -1.3050 -1.1331
 8919TIP3   OH250951   4.160   3.613  11.067 -0.0927 -0.0999  0.3044
 8919TIP3    H150952   4.066   3.597  11.072 -0.0299 -0.1644  3.1633
 8919TIP3    H250953   4.184   3.592  10.977 -2.6956 -0.6316 -0.3369
 8920TIP3   OH250954   6.806   6.196  11.810 -0.2498 -0.0494  0.1632
 8920TIP3    H150955   6.807   6.110  11.768 -0.7163 -0.6183  1.2582
 8920TIP3    H250956   6.865   6.249  11.758  2.0193 -1.7172  0.8666
 8921TIP3   OH250957   4.848   6.061  12.473 -0.2711  0.1873 -0.8174
 8921TIP3    H150958   4.864   6.155  12.473  0.2081  0.1089 -1.0209
 8921TIP3    H250959   4.914   6.025  12.533  0.2119 -0.1190 -1.5179
 8922TIP3   OH250960   0.423   4.798  12.029  0.6785  0.2838 -0.4958
 8922TIP3    H150961   0.484   4.862  12.065  0.3294  0.3036  0.0850
 8922TIP3    H250962   0.343   4.848  12.011  0.2925 -0.0323  0.2667
 8923TIP3   OH250963   3.354   8.281  10.637 -0.1427  0.0251  0.0705
 8923TIP3    H150964   3.295   8.346  10.676  0.2462  0.9686 -0.8497
 8923TIP3    H250965   3.322   8.197  10.669 -2.1104  0.4888 -0.5665
 8924TIP3   OH250966   2.278   3.777  12.245 -0.5220 -0.0554  0.1127
 8924TIP3    H150967   2.262   3.801  12.154  0.7261 -1.2665 -0.4627
 8924TIP3    H250968   2.355   3.828  12.270  0.3438 -1.1910 -0.1699
 8925TIP3   OH250969   1.583   3.216  10.867  0.2428  0.3721 -0.2860
 8925TIP3    H150970   1.581   3.151  10.797 -0.2297  0.0018  0.0649
 8925TIP3    H250971   1.581   3.165  10.948 -1.2644  0.8444  0.0008
 8926TIP3   OH250972   2.363   7.287  11.415  0.1099  0.0006  0.0133
 8926TIP3    H150973   2.373   7.271  11.509 -0.2445 -0.2346  0.0145
 8926TIP3    H250974   2.311   7.366  11.409  0.0568 -0.0340  0.0152
 8927TIP3   OH250975   0.287   8.311  11.924 -0.0949 -0.1108 -0.2067
 8927TIP3    H150976   0.285   8.357  12.008 -2.7802  1.4045 -0.9872
 8927TIP3    H250977   0.209   8.342  11.878  0.4566 -2.0674 -2.6588
 8928TIP3   OH250978   0.482   6.619  10.816  0.2499 -0.5947 -0.1233
 8928TIP3    H150979   0.416   6.550  10.818 -0.7218  0.3324  0.5432
 8928TIP3    H250980   0.437   6.695  10.779  0.7216  0.2613  1.0111
 8929TIP3   OH250981   1.530   4.213  11.412 -0.2639 -0.2094  0.3890
 8929TIP3    H150982   1.472   4.188  11.340 -0.2353  0.0942  0.2583
 8929TIP3    H250983   1.486   4.182  11.490 -1.3116  1.2344  0.4189
 8930TIP3   OH250984   4.471   1.893  12.784 -0.0523 -0.0969  0.0068
 8930TIP3    H150985   4.540   1.910  12.848  1.3468 -1.5200 -1.0585
 8930TIP3    H250986   4.428   1.814  12.816  1.1374 -1.2458 -1.1574
 8931TIP3   OH250987   4.690   2.478  12.156  0.2719  0.3692  0.3436
 8931TIP3    H150988   4.721   2.516  12.238  0.0189  0.0977  0.5685
 8931TIP3    H250989   4.615   2.424  12.181 -1.3586  2.1957 -0.3858
 8932TIP3   OH250990   2.914   2.652  11.638  0.3314 -0.0407 -0.0413
 8932TIP3    H150991   2.902   2.614  11.725 -2.4054  1.1349  0.2002
 8932TIP3    H250992   2.955   2.582  11.587  0.8527 -1.2003  1.8560
 8933TIP3   OH250993   7.182   6.158  11.328  0.5797  0.2755  0.3811
 8933TIP3    H150994   7.216   6.071  11.310  0.2414  0.6848 -2.8334
 8933TIP3    H250995   7.099   6.143  11.374  1.3703 -0.9738  1.4704
 8934TIP3   OH250996   1.309   2.600  10.787 -0.5286 -0.5314 -0.5521
 8934TIP3    H150997   1.232   2.654  10.807  0.9891  1.0772  1.4624
 8934TIP3    H250998   1.358   2.652  10.724  0.1881 -0.2574  0.2182
 8935TIP3   OH250999   2.465   2.972  10.457  0.2520  0.3660 -0.0184
 8935TIP3    H151000   2.468   2.883  10.421  1.6811  1.0682 -1.8204
 8935TIP3    H251001   2.374   2.999  10.444 -1.1605 -1.8640  3.5827
 8936TIP3   OH251002   7.588   0.674  11.672 -0.0123  0.1860 -0.0517
 8936TIP3    H151003   7.636   0.615  11.615  0.2396  0.4240 -0.0888
 8936TIP3    H251004   7.497   0.646  11.664  0.1102 -0.2200 -0.0355
 8937TIP3   OH251005   3.909   6.665  11.281  0.3528  0.5287 -0.0398
 8937TIP3    H151006   3.870   6.707  11.205  0.1411  0.5328  0.0698
 8937TIP3    H251007   3.902   6.571  11.263  0.5946  0.5351 -0.1696
 8938TIP3   OH251008   3.757   7.581  10.924 -0.1379 -0.2575  0.8954
 8938TIP3    H151009   3.774   7.616  11.012  1.2805  1.7156 -0.0963
 8938TIP3    H251010   3.844   7.562  10.888 -0.6413 -0.2471 -0.3792
 8939TIP3   OH251011   5.362   1.070  12.739 -0.2214  0.4006  0.6486
 8939TIP3    H151012   5.317   1.113  12.812 -1.0957  2.0130 -0.7738
 8939TIP3    H251013   5.450   1.107  12.738  0.3750 -0.8829  1.8733
 8940TIP3   OH251014   4.369   6.227  12.207  0.3164 -0.6145 -0.1781
 8940TIP3    H151015   4.451   6.179  12.204  0.0744 -1.0180 -0.4890
 8940TIP3    H251016   4.333   6.208  12.294  1.5821  1.3373  0.8476
 8941TIP3   OH251017   4.208   8.141  12.187 -0.1045  0.0657 -0.1481
 8941TIP3    H151018   4.183   8.078  12.120 -1.3539  0.8772 -0.4835
 8941TIP3    H251019   4.214   8.090  12.267 -0.3203 -0.6076 -0.5558
 8942TIP3   OH251020   0.130   3.670  11.440 -0.0160 -0.4338  0.0881
 8942TIP3    H151021   0.118   3.651  11.533  1.0284 -0.6476  0.1892
 8942TIP3    H251022   0.052   3.719  11.416  0.0581  0.3046  1.2711
 8943TIP3   OH251023   2.548   0.363  12.855 -0.3469  0.0243  0.5191
 8943TIP3    H151024   2.609   0.428  12.889 -2.0419  1.6670  0.5672
 8943TIP3    H251025   2.469   0.412  12.835 -2.1065 -2.1810  1.5839
 8944TIP3   OH251026   3.633   2.917  11.429 -0.8780 -1.1333 -0.0560
 8944TIP3    H151027   3.655   2.824  11.429  0.0679 -0.9188 -0.0410
 8944TIP3    H251028   3.596   2.933  11.341 -0.4449 -1.3924 -0.2871
 8945TIP3   OH251029   0.857   0.043  11.501  0.1523 -0.3568  0.1818
 8945TIP3    H151030   0.773   0.024  11.459  0.1643  0.6799 -0.3390
 8945TIP3    H251031   0.889   0.121  11.455  0.8523 -0.0601  1.1558
 8946TIP3   OH251032   2.407   0.661  10.535 -0.2002 -0.3320  0.3763
 8946TIP3    H151033   2.312   0.655  10.548 -0.2321  0.0765  0.3409
 8946TIP3    H251034   2.418   0.726  10.466  0.1336  0.0421  0.7791
 8947TIP3   OH251035   8.220   6.481  12.026  0.0869  0.1375  0.1732
 8947TIP3    H151036   8.135   6.517  12.051 -1.4249 -0.7397 -3.1500
 8947TIP3    H251037   8.227   6.399  12.076 -0.5997  0.5968  1.0565
 8948TIP3   OH251038   1.113   8.015  11.523 -0.2769  0.4492  0.5107
 8948TIP3    H151039   1.090   8.097  11.481  0.0883  0.1915 -0.2060
 8948TIP3    H251040   1.195   7.988  11.481 -1.4536 -1.3320 -0.8180
 8949TIP3   OH251041   4.022   4.814  10.814  0.0858  0.3518 -0.1541
 8949TIP3    H151042   3.954   4.747  10.806  0.0536  0.4040 -0.3109
 8949TIP3    H251043   4.004   4.875  10.743 -0.3347  0.9276  0.4360
 8950TIP3   OH251044   5.206   5.125  11.261  0.5810  0.1574 -0.5719
 8950TIP3    H151045   5.161   5.107  11.343  0.7437  0.1168 -0.4902
 8950TIP3    H251046   5.254   5.044  11.242  0.3922  0.0996 -0.8071
 8951TIP3   OH251047   0.816   0.685  11.193  0.0086 -0.2368  0.1078
 8951TIP3    H151048   0.831   0.776  11.217  1.2460 -0.2440 -0.5718
 8951TIP3    H251049   0.864   0.673  11.111 -0.3667 -1.4227  0.0354
 8952TIP3   OH251050   7.680   6.033  12.192  1.0438  0.0718 -0.3915
 8952TIP3    H151051   7.720   6.100  12.247  0.5082 -0.3759  0.5749
 8952TIP3    H251052   7.595   6.068  12.168  1.2885  0.2778 -0.9629
 8953TIP3   OH251053   1.610   8.111  10.410 -0.3433  0.2072  0.3666
 8953TIP3    H151054   1.695   8.074  10.389 -0.7269 -0.9145  0.7526
 8953TIP3    H251055   1.574   8.054  10.478 -1.2226  0.9122  0.5184
 8954TIP3   OH251056   3.572   1.168  12.237 -0.8144  0.2547 -0.7633
 8954TIP3    H151057   3.517   1.093  12.261  1.0932 -0.7386  0.8558
 8954TIP3    H251058   3.630   1.180  12.313  1.5306  0.8876 -2.5524
 8955TIP3   OH251059   7.527   6.837  11.565 -0.5640  0.1576 -0.5462
 8955TIP3    H151060   7.574   6.755  11.579  0.0932  0.6367  0.1071
 8955TIP3    H251061   7.512   6.872  11.653 -0.9544  0.6749 -0.8106
 8956TIP3   OH251062   2.235   1.823  11.418  0.4470 -0.6067  0.3773
 8956TIP3    H151063   2.205   1.913  11.429  0.2853 -0.4990 -0.8232
 8956TIP3    H251064   2.274   1.800  11.502  2.0315  1.1641  0.1989
 8957TIP3   OH251065   0.994   0.480  10.482 -0.1512  0.4932  0.2463
 8957TIP3    H151066   0.942   0.560  10.472  0.9611  1.1962 -0.1094
 8957TIP3    H251067   1.017   0.479  10.575  1.3071  1.5881 -0.0480
 8958TIP3   OH251068   5.873   7.195  12.559 -0.7435 -0.1604  0.1829
 8958TIP3    H151069   5.898   7.272  12.508  0.5135 -0.4905  0.2556
 8958TIP3    H251070   5.794   7.222  12.606 -0.3043  1.0905  0.2450
 8959TIP3   OH251071   5.102   7.400  11.918  0.3240 -0.6947 -0.1961
 8959TIP3    H151072   5.177   7.459  11.924 -1.0264  1.2912 -1.8102
 8959TIP3    H251073   5.048   7.423  11.993  0.4510 -0.8730 -0.0471
 8960TIP3   OH251074   0.643   2.893  10.955  0.5593  0.1442 -0.0797
 8960TIP3    H151075   0.678   2.968  11.003 -0.6249  0.7986 -0.2013
 8960TIP3    H251076   0.690   2.817  10.992  0.5966  0.7635  1.2025
 8961TIP3   OH251077   0.758   6.927  11.991 -0.5543 -0.4196  0.3855
 8961TIP3    H151078   0.783   6.869  12.063 -0.9211  0.3022  1.1105
 8961TIP3    H251079   0.774   7.015  12.025 -2.2200 -0.0045  0.1529
 8962TIP3   OH251080   8.326   3.886  12.278 -0.3723 -0.3701  0.2486
 8962TIP3    H151081   8.331   3.798  12.316  0.2630 -0.0704  0.8663
 8962TIP3    H251082   8.272   3.874  12.199 -0.4777 -1.2689  0.4410
 8963TIP3   OH251083   5.223   8.372  11.405 -0.1672  0.0177  0.1714
 8963TIP3    H151084   5.194   8.433  11.472  1.4143  0.8294  0.1621
 8963TIP3    H251085   5.142   8.331  11.373 -1.2483  1.8222  0.4367
 8964TIP3   OH251086   3.393   7.187  11.046  0.4115  0.4684  0.3489
 8964TIP3    H151087   3.414   7.186  11.139 -2.1013  4.5782  1.2136
 8964TIP3    H251088   3.456   7.249  11.008  1.5132 -1.2786 -0.7991
 8965TIP3   OH251089   1.251   4.266  12.669  0.6828 -0.4819 -0.2119
 8965TIP3    H151090   1.193   4.308  12.604  1.3264 -0.3680 -0.7206
 8965TIP3    H251091   1.195   4.203  12.714  0.7641 -2.3338 -2.5295
 8966TIP3   OH251092   4.276   6.101  10.402  0.4899 -0.6224 -0.3683
 8966TIP3    H151093   4.305   6.177  10.351 -3.3672 -0.6490 -2.9857
 8966TIP3    H251094   4.233   6.139  10.478  0.1691 -0.2622 -0.7249
 8967TIP3   OH251095   2.917   0.315  10.542 -0.2051  0.1450 -0.1756
 8967TIP3    H151096   2.977   0.275  10.480 -1.1303 -2.6684  0.5879
 8967TIP3    H251097   2.835   0.323  10.494 -0.4166 -0.2994  0.0983
 8968TIP3   OH251098   1.148   6.343  10.730 -0.3050 -0.1621 -0.2476
 8968TIP3    H151099   1.133   6.425  10.777 -0.1928 -1.0814  1.4719
 8968TIP3    H251100   1.193   6.370  10.649 -0.2497  1.4610  0.2812
 8969TIP3   OH251101   6.612   4.548  10.535 -0.7010 -0.1719 -0.1578
 8969TIP3    H151102   6.553   4.623  10.533  0.4540  0.7726  0.1493
 8969TIP3    H251103   6.640   4.537  10.444 -0.1136  0.3914 -0.0470
 8970TIP3   OH251104   1.153   1.649  11.220 -0.6114  0.4710  0.3874
 8970TIP3    H151105   1.079   1.593  11.196 -0.5573  0.4467  0.2709
 8970TIP3    H251106   1.230   1.596  11.199 -0.5566  0.6954  0.0040
 8971TIP3   OH251107   0.091   0.031  11.125  0.6752  0.2544 -0.2062
 8971TIP3    H151108   0.057  -0.001  11.041  2.2429 -0.3823 -0.6356
 8971TIP3    H251109   0.034  -0.009  11.190  0.0838 -0.1031 -0.9219
 8972TIP3   OH251110   1.402   2.558  11.745 -0.3275  0.4042 -0.3710
 8972TIP3    H151111   1.424   2.522  11.659  2.0500 -0.8176  0.6682
 8972TIP3    H251112   1.333   2.501  11.777  0.5681 -0.7459 -0.4370
 8973TIP3   OH251113   7.469   8.082  10.609  0.1340 -0.3550  0.5440
 8973TIP3    H151114   7.536   8.013  10.605  0.2578 -0.2587  0.9079
 8973TIP3    H251115   7.458   8.110  10.519  1.2817  0.2924  0.5937
 8974TIP3   OH251116   6.713   3.157  12.329  0.4565  0.2383 -0.3094
 8974TIP3    H151117   6.663   3.127  12.405 -1.6193 -1.2292 -2.1006
 8974TIP3    H251118   6.776   3.086  12.313  0.3200  0.1435 -0.4333
 8975TIP3   OH251119   6.054   4.782  12.228 -0.2502  0.2343 -0.0442
 8975TIP3    H151120   5.986   4.715  12.219 -0.6018  0.6646 -0.6703
 8975TIP3    H251121   6.009   4.856  12.269  0.0435  0.2356  0.2840
 8976TIP3   OH251122   1.165   8.376  11.206  0.6910 -0.6420  0.2130
 8976TIP3    H151123   1.239   8.362  11.266 -0.0117  0.8026  1.4764
 8976TIP3    H251124   1.087   8.357  11.258  0.1082 -2.0691 -1.0818
 8977TIP3   OH251125   6.043   4.830  12.575  0.1356 -0.6549 -0.1460
 8977TIP3    H151126   6.046   4.926  12.581  0.8813 -0.4129 -2.9076
 8977TIP3    H251127   5.953   4.810  12.550  0.2698 -0.5602 -0.7154
 8978TIP3   OH251128   2.461   6.271  10.955 -0.4640 -0.1209 -0.1429
 8978TIP3    H151129   2.553   6.257  10.976  0.3445  2.6032 -1.4368
 8978TIP3    H251130   2.453   6.247  10.862 -1.0470 -0.2291 -0.0716
 8979TIP3   OH251131   6.035   0.096  12.220 -0.0846  0.1844 -0.0436
 8979TIP3    H151132   6.123   0.061  12.209  0.4774  1.6449 -0.4667
 8979TIP3    H251133   5.980   0.019  12.238  1.6153 -0.5585  2.5618
 8980TIP3   OH251134   3.327   4.458  11.654  0.1346 -0.0947 -0.3337
 8980TIP3    H151135   3.384   4.388  11.686 -0.3102  0.2809  1.4059
 8980TIP3    H251136   3.350   4.534  11.707 -3.0234 -0.3237  1.6972
 8981TIP3   OH251137   6.802   5.670  11.113  0.1164 -0.3025 -0.4906
 8981TIP3    H151138   6.735   5.624  11.164 -0.8329  0.4932 -0.9884
 8981TIP3    H251139   6.788   5.639  11.023  1.3078 -1.1520 -0.3994
 8982TIP3   OH251140   5.504   0.189  11.117  0.4432 -0.4512  0.3932
 8982TIP3    H151141   5.509   0.252  11.044  0.7628  0.5590  1.2554
 8982TIP3    H251142   5.592   0.153  11.123  0.0016 -1.8062 -0.7780
 8983TIP3   OH251143   0.715   8.199  11.555  0.1621 -0.3077 -0.1604
 8983TIP3    H151144   0.694   8.166  11.467  0.2447 -0.4229 -0.1374
 8983TIP3    H251145   0.633   8.237  11.586  0.1889 -0.0703 -0.3740
 8984TIP3   OH251146   3.015   1.290  11.700 -0.3229 -0.5121  0.5437
 8984TIP3    H151147   3.028   1.227  11.771  1.3707 -0.3475  0.4239
 8984TIP3    H251148   2.955   1.246  11.640 -0.3830 -1.3778  1.2102
 8985TIP3   OH251149   1.614   7.315  11.452 -1.1627  0.7750  0.7962
 8985TIP3    H151150   1.557   7.244  11.424 -1.2615  2.0722 -2.7321
 8985TIP3    H251151   1.562   7.394  11.442  0.5687  1.8116 -0.6225
 8986TIP3   OH251152   3.856   1.160  11.992  0.2580 -0.4105  0.6779
 8986TIP3    H151153   3.920   1.227  11.967  0.8205 -1.1486  0.1233
 8986TIP3    H251154   3.857   1.160  12.088 -1.1935  1.7493  0.7947
 8987TIP3   OH251155   8.422   3.108  10.962  0.2135 -0.2684 -0.8426
 8987TIP3    H151156   8.339   3.091  11.006  1.1819  2.2815  2.4110
 8987TIP3    H251157   8.485   3.051  11.006  0.5494 -0.6980 -1.8508
 8988TIP3   OH251158   6.348   7.072  11.210  0.5717 -0.3893 -0.3204
 8988TIP3    H151159   6.290   7.008  11.253  1.3396 -2.4532 -2.2237
 8988TIP3    H251160   6.291   7.148  11.195 -0.4325 -0.6282  1.7893
 8989TIP3   OH251161   1.559   0.185  11.673  0.3005  0.2828  0.2373
 8989TIP3    H151162   1.545   0.174  11.767 -0.2008 -1.6004 -0.0248
 8989TIP3    H251163   1.653   0.170  11.662  0.1056 -1.0202  0.2606
 8990TIP3   OH251164   3.805   7.730  11.500 -0.0779  0.6338  0.0540
 8990TIP3    H151165   3.796   7.805  11.441 -1.6857 -0.8245 -1.6844
 8990TIP3    H251166   3.728   7.734  11.556  0.3836  0.8560  0.6822
 8991TIP3   OH251167   6.002   7.156  11.300 -0.0609 -0.2237  0.2981
 8991TIP3    H151168   6.045   7.156  11.214  0.9396 -0.4345  0.7925
 8991TIP3    H251169   5.953   7.074  11.301 -1.0381  0.3165 -0.5241
 8992TIP3   OH251170   7.159   1.016  12.671  0.2363  0.0008 -0.4247
 8992TIP3    H151171   7.145   1.110  12.661  0.4986  0.0121 -0.6769
 8992TIP3    H251172   7.231   1.009  12.734  1.9334  0.0294 -2.2622
 8993TIP3   OH251173   5.715   7.146  11.045  0.2069  0.6644 -0.0988
 8993TIP3    H151174   5.636   7.135  10.991 -0.0691 -1.9522  0.6906
 8993TIP3    H251175   5.787   7.142  10.983 -0.1391 -1.5545 -0.4174
 8994TIP3   OH251176   1.471   0.816  10.966 -0.4631 -0.4796  0.2004
 8994TIP3    H151177   1.389   0.813  10.916 -1.2497  1.0299  1.3310
 8994TIP3    H251178   1.471   0.902  11.008  1.3694 -0.7291  0.8044
 8995TIP3   OH251179   0.002   6.724  10.395  0.3066 -0.2196  0.4364
 8995TIP3    H151180  -0.007   6.786  10.323 -0.8060 -0.2982  0.4961
 8995TIP3    H251181   0.092   6.736  10.426  0.1525  1.2715  0.3631
 8996TIP3   OH251182   7.772   4.047  12.198 -0.1294  0.0272  0.1086
 8996TIP3    H151183   7.787   4.141  12.205  0.6497 -0.1122  0.4805
 8996TIP3    H251184   7.721   4.025  12.277 -1.0865  0.2741 -0.4310
 8997TIP3   OH251185   0.499   1.398  10.764 -0.7619  0.1669  0.2843
 8997TIP3    H151186   0.461   1.346  10.835 -0.9270  0.3611  0.3373
 8997TIP3    H251187   0.594   1.392  10.778 -0.7379 -0.9418 -0.2866
 8998TIP3   OH251188   4.773   4.961  11.488 -0.1867 -0.2487 -0.7562
 8998TIP3    H151189   4.767   5.032  11.424  0.7886 -0.8886 -1.5968
 8998TIP3    H251190   4.800   4.885  11.437  2.3645 -0.4031  0.6093
 8999TIP3   OH251191   2.780   1.104  11.095  1.0550  0.3167  0.1516
 8999TIP3    H151192   2.724   1.030  11.073 -0.2051  1.2805  0.0111
 8999TIP3    H251193   2.796   1.095  11.189  0.8465 -0.0941  0.1480
 9000TIP3   OH251194   1.604   5.205  10.822  0.1542 -0.2064 -0.4301
 9000TIP3    H151195   1.563   5.265  10.759  2.0661  0.3941 -1.1655
 9000TIP3    H251196   1.601   5.253  10.905 -0.4791 -0.1214 -0.4898
 9001TIP3   OH251197   3.165   4.866  10.201  0.3143 -0.4421 -0.3267
 9001TIP3    H151198   3.223   4.794  10.224  0.3406 -0.4996 -0.5677
 9001TIP3    H251199   3.184   4.884  10.109  0.4298 -0.0121 -0.2209
 9002TIP3   OH251200   4.118   2.356  12.598  0.7931 -0.1910 -0.6172
 9002TIP3    H151201   4.079   2.284  12.647  0.0065  0.8415  0.3508
 9002TIP3    H251202   4.140   2.319  12.513  1.5341 -1.8578  0.2714
 9003TIP3   OH251203   1.159   4.635  10.953 -0.1280  0.2669  0.4568
 9003TIP3    H151204   1.116   4.721  10.950 -0.1311  0.2389 -0.7324
 9003TIP3    H251205   1.144   4.604  11.042 -1.1230  1.0002  0.5637
 9004TIP3   OH251206   1.588   6.417  11.349 -0.6705 -0.0918  1.0497
 9004TIP3    H151207   1.681   6.425  11.371 -0.6920 -1.1997  1.6029
 9004TIP3    H251208   1.550   6.367  11.421 -2.0235  1.6542  1.6407
 9005TIP3   OH251209   3.929   7.629  11.833 -0.6023 -0.1161 -0.1487
 9005TIP3    H151210   3.937   7.621  11.928  1.5307 -1.3148 -0.3797
 9005TIP3    H251211   4.018   7.614  11.799 -1.6178 -1.6041 -2.4444
 9006TIP3   OH251212   4.496   3.069  10.483  0.4770  0.4050 -0.0419
 9006TIP3    H151213   4.475   3.035  10.571 -1.1694 -0.3049 -0.6534
 9006TIP3    H251214   4.540   2.995  10.440 -1.1715 -0.2589 -0.6690
 9007TIP3   OH251215   2.939   2.132  11.402 -0.5549  0.0442  0.7316
 9007TIP3    H151216   2.902   2.150  11.316  0.1462 -2.6118 -0.1962
 9007TIP3    H251217   2.871   2.162  11.463 -1.9839  0.0437 -0.7739
 9008TIP3   OH251218   0.557   3.047  11.421  0.2673  0.2440 -0.0481
 9008TIP3    H151219   0.487   3.064  11.357 -0.2348 -0.6665  0.2289
 9008TIP3    H251220   0.538   3.106  11.493 -0.9753 -0.8401  0.5601
 9009TIP3   OH251221   1.180   4.874  11.379  0.8856 -0.2653 -0.1449
 9009TIP3    H151222   1.099   4.881  11.328  0.5964 -1.1042  0.1745
 9009TIP3    H251223   1.156   4.905  11.466  1.0808  0.0951 -0.2189
 9010TIP3   OH251224   1.583   5.203  12.349 -0.4539 -0.7166  0.3398
 9010TIP3    H151225   1.651   5.206  12.416 -0.5658  1.6849  0.4298
 9010TIP3    H251226   1.512   5.153  12.389 -0.5932  0.8165  2.1398
 9011TIP3   OH251227   0.609   5.821  11.518  0.1014  0.5138  0.6118
 9011TIP3    H151228   0.669   5.765  11.568  0.3482  1.1327  1.0185
 9011TIP3    H251229   0.667   5.878  11.467 -0.1407 -0.2901 -0.6086
 9012TIP3   OH251230   3.884   4.713  10.538 -0.0253 -0.1039 -0.0190
 9012TIP3    H151231   3.944   4.689  10.467 -1.0571 -1.2811 -0.5188
 9012TIP3    H251232   3.809   4.655  10.527 -0.5409  0.2091  1.5945
 9013TIP3   OH251233   7.956   6.834  10.801 -0.1287 -0.0582 -0.5191
 9013TIP3    H151234   8.006   6.911  10.826  0.1351 -0.6956  0.9902
 9013TIP3    H251235   7.891   6.824  10.870 -2.2790  0.6407 -2.3252
 9014TIP3   OH251236   2.442   5.757  11.088  0.2583  0.1797  0.1979
 9014TIP3    H151237   2.407   5.689  11.032 -0.0544  0.9085 -0.5018
 9014TIP3    H251238   2.371   5.778  11.149  0.1257  0.3238 -0.0028
 9015TIP3   OH251239   4.796   1.247  12.733 -0.4255 -0.3139 -0.0957
 9015TIP3    H151240   4.850   1.202  12.668  1.9540  0.2193  1.3782
 9015TIP3    H251241   4.769   1.178  12.793 -1.5688 -0.6101 -0.9304
 9016TIP3   OH251242   6.183   5.190  10.671 -0.6918 -0.2490  0.0091
 9016TIP3    H151243   6.105   5.186  10.728 -0.4629  2.1021  0.5858
 9016TIP3    H251244   6.245   5.244  10.720  1.3493 -2.0814 -0.4383
 9017TIP3   OH251245   3.587   7.150  11.662  0.2639 -0.1969 -0.0322
 9017TIP3    H151246   3.606   7.244  11.666 -0.6009 -0.0411  1.0355
 9017TIP3    H251247   3.644   7.112  11.729 -1.2379 -0.0448  1.4253
 9018TIP3   OH251248   2.570   1.105  12.569 -0.1044 -0.3007  0.4210
 9018TIP3    H151249   2.516   1.104  12.648  0.9330  1.7824  1.2269
 9018TIP3    H251250   2.655   1.071  12.598 -0.2802 -1.4705 -0.3323
 9019TIP3   OH251251   3.695   3.273  10.895 -0.0039  0.1123 -0.0820
 9019TIP3    H151252   3.638   3.339  10.855 -1.2004 -0.6484  0.3124
 9019TIP3    H251253   3.784   3.306  10.880 -0.5252  1.2067 -0.9383
 9020TIP3   OH251254   6.978   5.065  11.795  0.5561 -0.3658 -0.3161
 9020TIP3    H151255   7.023   5.003  11.853  0.2530  2.1548  2.9320
 9020TIP3    H251256   7.021   5.055  11.711  2.7912 -2.5393  0.9506
 9021TIP3   OH251257   6.511   5.552  10.830  0.0394  0.8023  0.9577
 9021TIP3    H151258   6.595   5.523  10.865  0.3317  0.8248  0.3039
 9021TIP3    H251259   6.531   5.634  10.784 -0.0809  0.1805 -0.2679
 9022TIP3   OH251260   6.908   1.678  11.355  0.1952 -0.3075  0.0359
 9022TIP3    H151261   6.860   1.638  11.283 -0.7790 -0.4273  0.7388
 9022TIP3    H251262   6.891   1.621  11.430  0.9987 -0.0555  0.4186
 9023TIP3   OH251263   3.131   3.560  11.449 -0.0503 -0.1800 -0.0983
 9023TIP3    H151264   3.151   3.533  11.539  2.0825  0.9959 -0.1416
 9023TIP3    H251265   3.118   3.478  11.402  0.8132 -0.9027  0.8706
 9024TIP3   OH251266   1.484   6.610  10.701  0.2324 -0.5737 -0.4047
 9024TIP3    H151267   1.445   6.683  10.749  0.5933 -0.6588  0.0253
 9024TIP3    H251268   1.512   6.549  10.769  1.1035 -0.5187 -0.7010
 9025TIP3   OH251269   5.766   5.510  11.576 -0.3706 -0.0830 -0.1125
 9025TIP3    H151270   5.825   5.585  11.574  0.2063 -0.5262  0.0819
 9025TIP3    H251271   5.731   5.505  11.487  0.8828 -0.5908 -0.6033
 9026TIP3   OH251272   5.253   3.550  12.844 -0.1489  0.7291 -0.4418
 9026TIP3    H151273   5.299   3.612  12.788  1.5067  1.6434  1.7594
 9026TIP3    H251274   5.175   3.598  12.874 -0.1274  0.8665 -0.6036
 9027TIP3   OH251275   3.987   4.570  11.826 -0.5873  0.1145 -0.1277
 9027TIP3    H151276   3.899   4.594  11.854 -0.2382  0.4543  0.7195
 9027TIP3    H251277   4.006   4.630  11.753 -0.5363  0.9914  0.5898
 9028TIP3   OH251278   0.833   5.764  12.067 -0.1045 -0.5086 -0.0020
 9028TIP3    H151279   0.914   5.802  12.033 -1.2266  2.5485  0.4125
 9028TIP3    H251280   0.837   5.779  12.161 -1.4528  0.4351 -0.0591
 9029TIP3   OH251281   1.417   0.472  12.483  0.5266 -0.0915 -0.1995
 9029TIP3    H151282   1.486   0.537  12.501  0.4974 -0.0515 -0.2307
 9029TIP3    H251283   1.430   0.404  12.548 -0.3538  0.6495  0.7749
 9030TIP3   OH251284   3.507   2.268  11.646  0.1092  0.5791  0.2322
 9030TIP3    H151285   3.475   2.309  11.565  0.4732  0.4205  0.0080
 9030TIP3    H251286   3.597   2.301  11.656  1.0804 -1.5462 -0.9217
 9031TIP3   OH251287   4.537   8.087  10.391  0.3123  0.3231 -0.4170
 9031TIP3    H151288   4.521   7.993  10.384  0.0904 -0.0240  3.1644
 9031TIP3    H251289   4.451   8.127  10.377 -0.2886 -0.2922  1.3180
 9032TIP3   OH251290   5.059   3.139  12.506  0.1360  0.3765  0.3631
 9032TIP3    H151291   5.077   3.084  12.583 -0.3946 -0.1114  0.1489
 9032TIP3    H251292   5.053   3.076  12.434  0.3167  0.8017 -0.0199
 9033TIP3   OH251293   2.329   6.194  10.688  0.5365  0.3442 -0.1556
 9033TIP3    H151294   2.325   6.106  10.723 -1.4408 -0.5591 -2.3356
 9033TIP3    H251295   2.238   6.213  10.662  0.8136  3.2040  0.6270
 9034TIP3   OH251296   5.731   4.743  10.823  0.2975 -0.1351  0.0692
 9034TIP3    H151297   5.780   4.764  10.744  0.5979 -2.5467 -0.4427
 9034TIP3    H251298   5.798   4.719  10.887 -0.0101  0.8038  0.7798
 9035TIP3   OH251299   3.914   7.230  10.414  0.0636  0.3540 -0.2667
 9035TIP3    H151300   3.847   7.298  10.410 -0.8694 -0.5330  0.1464
 9035TIP3    H251301   3.992   7.273  10.378 -1.0277  1.0068 -1.9921
 9036TIP3   OH251302   3.776   2.120  10.628  0.7475  0.5462  0.0708
 9036TIP3    H151303   3.837   2.193  10.630 -0.1093  1.3393 -1.2051
 9036TIP3    H251304   3.690   2.160  10.621  0.2305 -0.5698 -0.2823
 9037TIP3   OH251305   0.909   8.189  12.558  0.0939  0.9797  0.0438
 9037TIP3    H151306   0.984   8.237  12.521  1.0623 -0.6088 -0.1246
 9037TIP3    H251307   0.840   8.255  12.565  1.3195  2.3579 -0.3404
 9038TIP3   OH251308   4.657   4.106  11.800  0.5352  0.0785  0.8760
 9038TIP3    H151309   4.588   4.041  11.811 -1.3641  1.1273 -2.9521
 9038TIP3    H251310   4.718   4.066  11.738  0.2463  1.2581 -0.2070
 9039TIP3   OH251311   3.875   6.802  11.975  0.3995  0.4380  0.3103
 9039TIP3    H151312   3.850   6.849  12.054  1.3452  2.5116 -0.5521
 9039TIP3    H251313   3.869   6.867  11.905 -0.6062 -1.3670 -1.4101
 9040TIP3   OH251314   7.889   1.097  11.613  0.1854  0.2232 -0.2756
 9040TIP3    H151315   7.809   1.049  11.633  0.0661  0.5889  0.1390
 9040TIP3    H251316   7.898   1.090  11.517  0.3573 -0.9053 -0.1934
 9041TIP3   OH251317   2.501   5.062  11.379  0.2813 -0.2541 -0.0522
 9041TIP3    H151318   2.562   4.994  11.409  1.0730  0.5248  0.1409
 9041TIP3    H251319   2.503   5.056  11.283  2.6268  1.3970 -0.1803
 9042TIP3   OH251320   4.330   7.962  11.519  0.2082 -0.2322 -0.0428
 9042TIP3    H151321   4.279   7.895  11.565  1.2876 -1.7209 -0.9169
 9042TIP3    H251322   4.365   8.018  11.588 -2.2683  0.6265  0.5969
 9043TIP3   OH251323   1.550   1.583  11.301  0.6862 -0.1567  0.5008
 9043TIP3    H151324   1.562   1.629  11.385  1.7597  2.2400 -0.8530
 9043TIP3    H251325   1.524   1.652  11.240 -0.4392 -1.9169 -1.0906
 9044TIP3   OH251326   4.501   3.702  11.048 -0.1263  0.3389 -0.4724
 9044TIP3    H151327   4.553   3.658  10.980 -0.4168  1.0379 -1.1761
 9044TIP3    H251328   4.559   3.770  11.082  0.0491 -0.0674  0.0492
 9045TIP3   OH251329   6.904   2.662  10.579  0.0503  0.3773  0.4124
 9045TIP3    H151330   6.969   2.728  10.554  0.5591 -0.2969 -0.0662
 9045TIP3    H251331   6.917   2.591  10.517 -0.9276  0.0885  0.5284
 9046TIP3   OH251332   6.159   1.840  12.054  0.4353 -0.1443  0.4487
 9046TIP3    H151333   6.128   1.763  12.006  0.0732  0.2388  0.0583
 9046TIP3    H251334   6.175   1.906  11.986 -2.5119  1.2708  0.9477
 9047TIP3   OH251335   3.356   8.435  12.911 -0.4882  0.0475 -0.7999
 9047TIP3    H151336   3.348   8.509  12.971 -0.6902  1.1582 -2.1335
 9047TIP3    H251337   3.277   8.382  12.926  0.0648 -0.3851  0.7528
 9048TIP3   OH251338   8.120   5.046  11.659  0.0436 -0.2160  0.1515
 9048TIP3    H151339   8.151   5.048  11.750  0.7367 -0.3869 -0.0755
 9048TIP3    H251340   8.138   5.134  11.626 -2.4555  0.6632  0.8858
 9049TIP3   OH251341   3.531   1.628  11.453 -0.2059  0.5933 -0.9471
 9049TIP3    H151342   3.503   1.689  11.521  1.0285 -0.5961  0.7120
 9049TIP3    H251343   3.616   1.661  11.423  0.4101 -0.1848 -0.1281
 9050TIP3   OH251344   6.568   8.280  12.487 -0.3201  0.8691  0.5737
 9050TIP3    H151345   6.555   8.270  12.582 -0.4158  0.3474  0.5073
 9050TIP3    H251346   6.633   8.350  12.479 -0.7690  1.3455  1.0062
 9051TIP3   OH251347   6.923   4.883  11.076 -0.1055  0.2463  0.4073
 9051TIP3    H151348   6.894   4.955  11.020  0.0974 -0.9249 -1.2576
 9051TIP3    H251349   6.846   4.863  11.130 -0.0612  1.8880  1.1379
 9052TIP3   OH251350   7.400   3.571  11.638  0.3945 -0.9976 -0.0037
 9052TIP3    H151351   7.488   3.557  11.602  1.1146  1.3852  0.6327
 9052TIP3    H251352   7.360   3.635  11.580  0.6302  0.9608  1.8726
 9053TIP3   OH251353   0.089   1.564  11.148 -0.4661  0.4339  0.6528
 9053TIP3    H151354   0.100   1.639  11.207  1.5040 -0.8082  1.9672
 9053TIP3    H251355   0.051   1.496  11.203  0.6141 -0.4813  0.2984
 9054TIP3   OH251356   2.870   6.898  11.739  0.8220  0.3677 -0.1524
 9054TIP3    H151357   2.938   6.849  11.692  0.9015 -1.5462  1.8353
 9054TIP3    H251358   2.806   6.920  11.671  2.1473 -0.0309 -1.6021
 9055TIP3   OH251359   6.658   0.711  12.164 -0.1561 -0.3853 -0.1604
 9055TIP3    H151360   6.644   0.806  12.172  0.4135 -0.1621 -1.6359
 9055TIP3    H251361   6.571   0.675  12.149 -0.2901 -0.0331 -0.2314
 9056TIP3   OH251362   3.506   1.391  11.624  0.2599 -0.9227 -0.0132
 9056TIP3    H151363   3.444   1.447  11.670 -1.1365 -1.3333 -1.3341
 9056TIP3    H251364   3.530   1.440  11.546  1.3506 -0.9277  0.3000
 9057TIP3   OH251365   4.090   1.432  11.164  0.0364 -0.0701  0.0355
 9057TIP3    H151366   4.116   1.508  11.112 -0.1913 -0.3951 -0.5606
 9057TIP3    H251367   4.141   1.359  11.127 -1.2535 -0.6049 -0.7722
 9058TIP3   OH251368   3.918   4.437  11.028 -0.0657  0.7987  0.1925
 9058TIP3    H151369   3.856   4.484  10.972 -1.7129 -0.9330  0.4468
 9058TIP3    H251370   3.909   4.478  11.114 -1.2176  0.3290  0.3242
 9059TIP3   OH251371   2.324   8.410  11.744  0.3904 -0.4833 -0.4604
 9059TIP3    H151372   2.285   8.446  11.664 -0.2030  0.1844  0.1236
 9059TIP3    H251373   2.315   8.315  11.734 -1.5573 -0.3475 -0.2706
 9060TIP3   OH251374   2.046   2.404  12.023  0.0829 -0.0162 -0.2696
 9060TIP3    H151375   2.061   2.388  11.930 -3.5074 -0.7667 -0.8482
 9060TIP3    H251376   1.999   2.326  12.054 -1.9992  1.7006  1.2076
 9061TIP3   OH251377   7.134   5.108  11.586 -0.7242 -0.7372 -0.5659
 9061TIP3    H151378   7.195   5.182  11.597 -0.5316 -0.9303 -0.3087
 9061TIP3    H251379   7.180   5.049  11.526 -0.8126 -0.7181 -0.6515
 9062TIP3   OH251380   6.549   1.039  12.820 -0.2448 -0.2201 -0.0714
 9062TIP3    H151381   6.636   1.078  12.807  0.7935 -1.4835  2.3398
 9062TIP3    H251382   6.556   0.952  12.780 -0.5684 -0.1587 -0.2660
 9063TIP3   OH251383   4.482   7.071  12.036  0.5217  0.1072 -0.1599
 9063TIP3    H151384   4.527   7.001  11.987 -0.9738 -0.9199 -0.1328
 9063TIP3    H251385   4.399   7.082  11.990 -0.4075 -0.0310  1.4099
 9064TIP3   OH251386   5.208   2.015  10.377  0.2196  0.1530  0.2035
 9064TIP3    H151387   5.222   2.052  10.464 -3.3313  1.4316  0.4135
 9064TIP3    H251388   5.245   2.079  10.316 -2.3872  2.3185  0.7089
 9065TIP3   OH251389   2.807   3.975  10.248  0.1176 -0.9168 -0.4158
 9065TIP3    H151390   2.747   3.904  10.226 -0.5840 -0.4273 -0.1083
 9065TIP3    H251391   2.832   3.958  10.339 -0.9500 -0.1593  0.0429
 9066TIP3   OH251392   3.842   3.378  11.327 -0.2101 -0.5838 -0.6547
 9066TIP3    H151393   3.909   3.338  11.272 -0.9165 -3.1154  0.1976
 9066TIP3    H251394   3.791   3.304  11.361 -0.7120  0.9451  2.2403
 9067TIP3   OH251395   0.700   2.356  12.264  0.0206  0.1021  0.1609
 9067TIP3    H151396   0.649   2.357  12.184  0.4223  0.9320 -0.1016
 9067TIP3    H251397   0.647   2.406  12.327 -0.1096 -0.2066  0.3010
 9068TIP3   OH251398   5.150   0.822  10.561 -0.1385  0.0747  0.0477
 9068TIP3    H151399   5.135   0.916  10.573 -0.5944  0.2596 -1.6763
 9068TIP3    H251400   5.074   0.780  10.601 -1.1556  0.5857 -1.2898
 9069TIP3   OH251401   4.961   3.910  10.608  0.3423  0.1503 -0.1829
 9069TIP3    H151402   4.889   3.870  10.560 -0.7244 -0.0331  1.5234
 9069TIP3    H251403   5.022   3.938  10.539 -1.5717  0.7942 -1.7193
 9070TIP3   OH251404   4.567   1.731  10.733  0.1789  0.2861  0.8570
 9070TIP3    H151405   4.594   1.822  10.744  1.8545  0.0931 -0.9878
 9070TIP3    H251406   4.649   1.681  10.743 -0.8935 -1.1577  3.0151
 9071TIP3   OH251407   5.382   3.050  12.438 -0.2673 -1.0022 -0.0055
 9071TIP3    H151408   5.429   2.969  12.417 -0.0513 -0.6118 -1.0911
 9071TIP3    H251409   5.292   3.033  12.411 -0.5281 -1.3368  1.0072
 9072TIP3   OH251410   2.680   7.776  10.818  0.6636  0.3650 -0.0612
 9072TIP3    H151411   2.608   7.801  10.760  0.9339 -0.7129 -0.9116
 9072TIP3    H251412   2.724   7.704  10.771 -0.8508 -2.6368  2.7010
 9073TIP3   OH251413   3.287   6.433  10.732  0.4770 -0.0369 -0.0517
 9073TIP3    H151414   3.330   6.506  10.777  0.5155 -0.6415  0.9235
 9073TIP3    H251415   3.359   6.383  10.693  0.3516  1.7165 -2.8514
 9074TIP3   OH251416   1.808   5.298  11.771  0.2666  0.0688 -0.5597
 9074TIP3    H151417   1.885   5.242  11.764  0.0960 -0.3406  0.6032
 9074TIP3    H251418   1.757   5.259  11.843  0.6508  2.3113  1.0272
 9075TIP3   OH251419   6.573   0.069  10.778  0.1918 -0.3278  0.0226
 9075TIP3    H151420   6.665   0.080  10.799 -0.4651  1.5874  2.5324
 9075TIP3    H251421   6.555   0.133  10.710  0.6896 -0.6456 -0.4065
 9076TIP3   OH251422   4.855   3.415  11.286  0.0259  0.4024 -0.0343
 9076TIP3    H151423   4.806   3.483  11.332 -1.6100 -0.5190 -0.3257
 9076TIP3    H251424   4.790   3.346  11.268  1.8100 -1.7168  1.1608
 9077TIP3   OH251425   3.860   5.599  11.135 -0.1368 -0.5563 -0.3916
 9077TIP3    H151426   3.908   5.521  11.108  1.4917  0.4805 -0.6652
 9077TIP3    H251427   3.859   5.595  11.230  1.9961  0.1800 -0.2786
 9078TIP3   OH251428   4.807   6.421  11.537  0.4515 -0.4406  0.0918
 9078TIP3    H151429   4.747   6.393  11.468  0.2736  0.8060 -0.2693
 9078TIP3    H251430   4.890   6.380  11.515  0.6643  0.7521 -1.4529
 9079TIP3   OH251431   0.488   6.718  11.565 -0.1320 -0.0139 -0.2084
 9079TIP3    H151432   0.463   6.628  11.544 -2.2377 -0.1506  2.4426
 9079TIP3    H251433   0.479   6.725  11.660 -0.9210  3.2539 -0.3979
 9080TIP3   OH251434   5.070   3.985  10.358 -0.8110  0.2788 -0.2987
 9080TIP3    H151435   5.147   3.928  10.350  0.8070  2.3205 -0.2252
 9080TIP3    H251436   5.004   3.946  10.301  0.2427 -1.6031 -0.2893
 9081TIP3   OH251437   3.691   1.415  11.909  0.1663  0.5520  0.7916
 9081TIP3    H151438   3.732   1.345  11.958  0.6236 -0.3533 -0.8240
 9081TIP3    H251439   3.752   1.434  11.837 -0.5867  1.6504  0.4098
 9082TIP3   OH251440   4.585   4.091  11.409 -0.2400  0.6153 -0.1766
 9082TIP3    H151441   4.645   4.073  11.481 -0.0179  1.9246 -0.0121
 9082TIP3    H251442   4.569   4.005  11.368  0.5689  0.0438  0.6819
 9083TIP3   OH251443   7.993   7.230  12.240 -0.5427  0.6297  0.1655
 9083TIP3    H151444   8.022   7.204  12.327  2.0065  0.6759 -0.5761
 9083TIP3    H251445   7.998   7.326  12.241  0.3626  0.5987 -0.2668
 9084TIP3   OH251446   1.345   1.658  10.534 -0.2973  0.5688  0.3321
 9084TIP3    H151447   1.360   1.620  10.447 -0.4433  0.7582  0.2214
 9084TIP3    H251448   1.282   1.728  10.518  1.9320  2.6788  0.0619
 9085TIP3   OH251449   1.996   2.616  11.377  0.2013 -0.0723 -0.5710
 9085TIP3    H151450   1.975   2.531  11.338 -0.2295 -0.7087  0.9848
 9085TIP3    H251451   1.911   2.655  11.396  0.3565 -0.5363  1.2678
 9086TIP3   OH251452   1.072   4.433  11.613 -0.8151 -0.1862 -0.5731
 9086TIP3    H151453   1.104   4.459  11.699  0.0427 -2.1917 -0.2297
 9086TIP3    H251454   0.985   4.396  11.629 -0.7116 -0.4359 -0.5819
 9087TIP3   OH251455   5.877   6.786  12.960 -0.5672  0.2523  0.5739
 9087TIP3    H151456   5.807   6.795  13.026  0.7261  0.8522  1.9384
 9087TIP3    H251457   5.886   6.874  12.924 -0.6105  0.1470  0.3107
 9088TIP3   OH251458   7.768   0.496  11.511  0.6045 -0.3510 -0.2601
 9088TIP3    H151459   7.831   0.551  11.465  0.6155  0.8560  1.1001
 9088TIP3    H251460   7.821   0.444  11.572  0.3315  0.6291  0.8515
 9089TIP3   OH251461   1.487   5.446  12.416 -0.1016  0.0830 -0.5441
 9089TIP3    H151462   1.529   5.360  12.411 -1.4171 -0.5584 -0.9944
 9089TIP3    H251463   1.424   5.438  12.488  0.6270  1.0777  0.2275
 9090TIP3   OH251464   7.526   7.099  11.169 -0.6035 -0.1905 -0.1622
 9090TIP3    H151465   7.571   7.086  11.085 -0.8737  1.6007 -0.6114
 9090TIP3    H251466   7.570   7.039  11.229  0.5663 -0.4431 -1.2334
 9091TIP3   OH251467   4.170   4.310  11.101 -0.3565 -0.6041  0.3538
 9091TIP3    H151468   4.226   4.374  11.146  0.7690 -1.1613 -0.1966
 9091TIP3    H251469   4.094   4.360  11.073  0.4949  0.5192 -0.0490
 9092TIP3   OH251470   5.305   6.050  10.287  0.1654 -0.1890  0.3433
 9092TIP3    H151471   5.350   6.002  10.218  0.5811  1.5015 -0.6174
 9092TIP3    H251472   5.213   6.026  10.276  0.5704 -2.3568  1.2465
 9093TIP3   OH251473   1.658   6.854  11.178  0.6313 -0.4318 -0.7534
 9093TIP3    H151474   1.665   6.876  11.271  0.5067 -0.7527 -0.6671
 9093TIP3    H251475   1.740   6.809  11.158  0.9681  0.2759 -0.9783
 9094TIP3   OH251476   2.707   1.750  12.563  0.1048 -0.7712 -0.0574
 9094TIP3    H151477   2.790   1.738  12.609  0.8420  1.4739 -0.6827
 9094TIP3    H251478   2.657   1.809  12.618 -1.0033 -1.8803  0.1693
 9095TIP3   OH251479   1.193   3.943  10.700  0.2240 -0.4418  0.4412
 9095TIP3    H151480   1.147   3.958  10.617 -0.4235 -0.9317  0.7018
 9095TIP3    H251481   1.266   3.885  10.676  1.0191  0.7215 -0.0566
 9096TIP3   OH251482   7.490   2.977  11.111 -0.1075 -0.2678 -0.4590
 9096TIP3    H151483   7.426   3.035  11.153  1.2160 -1.0347  2.9969
 9096TIP3    H251484   7.446   2.892  11.110  0.2085 -0.4581  0.4265
 9097TIP3   OH251485   3.285   5.506  10.574  0.4308 -0.2635  0.3801
 9097TIP3    H151486   3.248   5.540  10.493  1.7655 -0.9091 -0.5424
 9097TIP3    H251487   3.302   5.583  10.628 -3.0200  0.0189  1.2730
 9098TIP3   OH251488   4.071   6.510  10.605  0.0634 -0.3209  0.1535
 9098TIP3    H151489   4.046   6.500  10.697 -2.6075  0.4955 -0.3793
 9098TIP3    H251490   4.074   6.605  10.591  1.0094 -0.4361 -0.4753
 9099TIP3   OH251491   4.347   7.372  12.662  0.0009  0.6028  0.2766
 9099TIP3    H151492   4.340   7.280  12.686 -3.4659  0.2680 -1.3223
 9099TIP3    H251493   4.373   7.416  12.743 -2.0019 -1.4221  2.1684
 9100TIP3   OH251494   6.306   7.309  11.976 -0.1797  0.4291 -0.1287
 9100TIP3    H151495   6.240   7.306  12.045 -0.4399  0.4026 -0.3773
 9100TIP3    H251496   6.309   7.220  11.942 -0.3538  0.5401 -0.4360
 9101TIP3   OH251497   2.901   4.937  10.275 -0.1951  0.3253  0.1892
 9101TIP3    H151498   2.972   4.916  10.214 -0.1803  0.8629  0.0145
 9101TIP3    H251499   2.861   4.853  10.295  1.2119 -0.1357  1.1887
 9102TIP3   OH251500   7.510   2.159  11.106 -0.1087  0.4925  0.1143
 9102TIP3    H151501   7.544   2.226  11.164  2.1499 -0.4543 -0.0258
 9102TIP3    H251502   7.534   2.076  11.147 -1.3250 -0.2353 -0.5673
 9103TIP3   OH251503   6.686   7.755  10.658  0.2793 -0.1123  0.2206
 9103TIP3    H151504   6.659   7.668  10.685  1.2417 -0.4982 -0.0191
 9103TIP3    H251505   6.687   7.751  10.562 -0.2658  0.3498  0.1927
 9104TIP3   OH251506   3.261   3.312  10.779 -0.3055  0.1523 -0.0317
 9104TIP3    H151507   3.185   3.298  10.722  0.3798  1.6648 -1.4028
 9104TIP3    H251508   3.313   3.377  10.733  1.2303  0.0462  1.4749
 9105TIP3   OH251509   4.540   2.078  10.709 -0.2823  0.6391 -0.3672
 9105TIP3    H151510   4.622   2.049  10.670  0.4291  1.1666  0.6923
 9105TIP3    H251511   4.520   2.013  10.776 -0.2468  0.9917 -0.0104
 9106TIP3   OH251512   1.106   3.744  11.191  0.0651 -0.0064 -0.0026
 9106TIP3    H151513   1.046   3.686  11.145 -1.2779  0.9872  0.4405
 9106TIP3    H251514   1.122   3.816  11.130 -1.1349  0.9396  0.7524
 9107TIP3   OH251515   7.336   0.993  12.426  0.5513  0.0335 -0.0105
 9107TIP3    H151516   7.257   1.000  12.480  0.9551 -1.0920  0.7525
 9107TIP3    H251517   7.408   0.992  12.489  0.9931 -2.0071 -0.4936
 9108TIP3   OH251518   7.150   7.794  12.372 -0.0362  0.3980  0.0134
 9108TIP3    H151519   7.158   7.699  12.382 -1.3939  0.3079  0.4949
 9108TIP3    H251520   7.100   7.822  12.448 -0.1709  1.4181 -0.4361
 9109TIP3   OH251521   0.453   0.945  12.032 -0.1610 -0.2276  0.8174
 9109TIP3    H151522   0.469   0.883  11.961 -1.4541  2.2571 -1.8752
 9109TIP3    H251523   0.363   0.927  12.059  0.3345 -1.1797  1.9015
 9110TIP3   OH251524   4.131   5.271  11.934  0.6216  0.8971  0.2715
 9110TIP3    H151525   4.169   5.185  11.950  2.4546  1.5734 -0.0966
 9110TIP3    H251526   4.083   5.261  11.852  0.3067  0.0899  0.5435
 9111TIP3   OH251527   5.357   6.184  11.666  0.0542 -0.5024  0.0741
 9111TIP3    H151528   5.421   6.226  11.608  2.0117 -1.4262  1.4309
 9111TIP3    H251529   5.357   6.238  11.745 -1.7871  0.1499 -0.3264
 9112TIP3   OH251530   6.151   6.011  11.944 -0.4735 -0.2598  0.2927
 9112TIP3    H151531   6.171   6.105  11.950  2.2760 -0.4947 -2.5690
 9112TIP3    H251532   6.071   6.007  11.891  0.7610  0.5361 -1.7725
 9113TIP3   OH251533   0.847   5.732  10.973  0.4052 -0.0089 -0.0505
 9113TIP3    H151534   0.830   5.817  11.014  0.6383 -0.8242  1.8472
 9113TIP3    H251535   0.820   5.743  10.883 -0.3578  1.8302  0.3574
 9114TIP3   OH251536   6.761   2.874  12.172 -0.4992 -0.1654  0.3591
 9114TIP3    H151537   6.818   2.926  12.116 -0.3432 -0.3065  0.3868
 9114TIP3    H251538   6.803   2.874  12.258  0.1721 -1.3861  0.0568
 9115TIP3   OH251539   6.359   4.467  10.997 -0.3487  0.3501  0.4786
 9115TIP3    H151540   6.384   4.423  10.916  0.1995  2.5049 -0.5941
 9115TIP3    H251541   6.283   4.521  10.974 -0.6965  0.3843  1.6080
 9116TIP3   OH251542   6.864   8.325  12.322  0.3683 -0.3232 -0.4118
 9116TIP3    H151543   6.812   8.404  12.334  1.1017  0.5678 -2.5918
 9116TIP3    H251544   6.851   8.275  12.403 -0.5989  1.7230  0.7744
 9117TIP3   OH251545   5.206   1.824  11.067 -0.1491 -0.5245 -0.1785
 9117TIP3    H151546   5.282   1.833  11.125 -0.4885 -0.3118  0.2314
 9117TIP3    H251547   5.158   1.906  11.077 -0.5243 -0.7260 -0.3160
 9118TIP3   OH251548   2.757   7.621  11.567 -0.7176 -0.7718 -0.1540
 9118TIP3    H151549   2.685   7.568  11.600 -0.9609 -1.4378 -1.6889
 9118TIP3    H251550   2.716   7.684  11.509 -0.4631  1.3490  1.7993
 9119TIP3   OH251551   4.919   2.171  11.355  0.6581  0.2263 -0.2156
 9119TIP3    H151552   4.850   2.213  11.304  1.3112  1.2806 -0.2502
 9119TIP3    H251553   5.000   2.210  11.323  1.1122  0.5626  1.2721
 9120TIP3   OH251554   7.942   6.549  11.220 -0.4935  0.4748  0.3545
 9120TIP3    H151555   8.001   6.486  11.260 -0.2104  1.6085  1.8042
 9120TIP3    H251556   7.860   6.539  11.268 -0.3826  1.3407  0.7406
 9121TIP3   OH251557   5.093   3.439  11.389 -0.6594  0.3117 -1.1592
 9121TIP3    H151558   5.009   3.419  11.348 -0.2424  0.7683 -2.2838
 9121TIP3    H251559   5.158   3.397  11.333 -0.1645 -0.9506  0.2910
 9122TIP3   OH251560   3.027   0.416  10.210 -0.1200  0.2195  0.0321
 9122TIP3    H151561   3.098   0.458  10.161 -0.3172  1.3539  0.6768
 9122TIP3    H251562   3.062   0.332  10.237  0.1507 -0.2409 -1.6508
 9123TIP3   OH251563   3.100   3.735  11.212  0.2052 -0.1449  0.5871
 9123TIP3    H151564   3.122   3.651  11.252  1.1554 -1.0220 -1.6007
 9123TIP3    H251565   3.141   3.801  11.268  2.4011 -1.3573  0.4890
 9124TIP3   OH251566   7.208   7.706  12.849 -0.1976  0.3526  0.1177
 9124TIP3    H151567   7.181   7.628  12.897 -0.3598  1.5590  2.0733
 9124TIP3    H251568   7.241   7.672  12.766 -1.8409 -1.6559  0.1909
 9125TIP3   OH251569   3.601   7.490  11.789  0.4691  0.1501  0.7401
 9125TIP3    H151570   3.574   7.570  11.744  0.6031  0.0235  0.4294
 9125TIP3    H251571   3.697   7.491  11.783  0.4191 -0.9347 -0.8738
 9126TIP3   OH251572   0.042   7.567  11.470 -0.0132  0.5469  0.5462
 9126TIP3    H151573  -0.023   7.575  11.400  1.0551 -1.1455 -0.7398
 9126TIP3    H251574   0.111   7.629  11.445 -0.1648  0.7869  0.7282
 9127TIP3   OH251575   7.800   4.586  11.945 -0.2114 -0.0976 -0.3582
 9127TIP3    H151576   7.884   4.561  11.906  0.2894 -1.3451  1.3775
 9127TIP3    H251577   7.762   4.504  11.977  0.4256  0.8820  3.5206
 9128TIP3   OH251578   4.137   6.404  12.119 -0.2616  0.0669  0.3286
 9128TIP3    H151579   4.090   6.328  12.154 -0.0702  0.4115  1.3625
 9128TIP3    H251580   4.191   6.434  12.192 -1.1622  1.8802  0.2777
 9129TIP3   OH251581   2.077   7.210  12.489 -0.3662  0.1424  0.5503
 9129TIP3    H151582   2.151   7.241  12.437 -0.9555  1.0647  0.2290
 9129TIP3    H251583   2.057   7.123  12.454 -1.0016  0.9043 -1.0653
 9130TIP3   OH251584   7.504   0.383  10.577 -0.0461  0.1568  0.3344
 9130TIP3    H151585   7.573   0.447  10.560  0.2948  0.1907  1.7089
 9130TIP3    H251586   7.523   0.310  10.519 -0.2620  1.1573 -1.0437
 9131TIP3   OH251587   5.932   6.504  12.230  0.5097 -0.3931  0.0643
 9131TIP3    H151588   5.912   6.411  12.235 -1.4942  0.0571  1.8428
 9131TIP3    H251589   5.974   6.525  12.313  0.8928  0.3096 -0.2899
 9132TIP3   OH251590   5.961   7.797  12.123  0.4955 -0.2815 -0.1320
 9132TIP3    H151591   5.897   7.726  12.113 -1.4944  1.3233  0.4749
 9132TIP3    H251592   5.953   7.847  12.042  0.3277  0.4131  0.3037
 9133TIP3   OH251593   4.096   0.461  12.001  0.1718 -0.0503 -0.2558
 9133TIP3    H151594   4.027   0.527  11.992  0.3041  0.0488 -0.5815
 9133TIP3    H251595   4.088   0.408  11.922  1.0662  0.5360 -0.7585
 9134TIP3   OH251596   4.668   5.307  12.036  0.5469 -0.2969  0.2223
 9134TIP3    H151597   4.663   5.279  11.945 -0.6208 -1.7259  0.6905
 9134TIP3    H251598   4.760   5.298  12.059  0.8658  0.1410 -0.8125
 9135TIP3   OH251599   1.837   7.326  11.629  0.1005  0.0201  0.0286
 9135TIP3    H151600   1.910   7.323  11.567  0.5530  2.1116  0.3901
 9135TIP3    H251601   1.760   7.304  11.576  0.5842  0.9569 -1.0930
 9136TIP3   OH251602   5.234   8.022  10.792 -0.0840  0.1096 -0.1900
 9136TIP3    H151603   5.321   8.018  10.831 -1.2510 -1.4540  2.5890
 9136TIP3    H251604   5.191   8.095  10.836 -0.7974 -0.4038 -0.0104
 9137TIP3   OH251605   7.660   5.561  12.354  0.0516  0.0839  0.1150
 9137TIP3    H151606   7.606   5.632  12.320  1.5956  0.8881 -0.7295
 9137TIP3    H251607   7.727   5.604  12.406  0.7270 -0.7895 -0.0032
 9138TIP3   OH251608   0.835   4.674  11.172 -0.5226  0.0872  0.1491
 9138TIP3    H151609   0.848   4.669  11.078 -1.2376  0.0503  0.0466
 9138TIP3    H251610   0.880   4.755  11.198 -0.4369  0.1691 -0.2417
 9139TIP3   OH251611   1.347   4.320  10.466  0.3135  0.3422  0.6937
 9139TIP3    H151612   1.426   4.291  10.510  0.7138  0.2611 -0.0566
 9139TIP3    H251613   1.367   4.408  10.436 -0.0250  0.4720  0.8426
 9140TIP3   OH251614   7.541   3.273  10.626  0.8685 -0.6773 -0.4445
 9140TIP3    H151615   7.460   3.317  10.650 -0.1981 -2.4087 -0.7045
 9140TIP3    H251616   7.551   3.288  10.532  1.3838  0.3333 -0.2426
 9141TIP3   OH251617   1.416   0.010  11.887  0.5281 -0.8055  0.0231
 9141TIP3    H151618   1.431  -0.060  11.951 -0.3669  0.5018  1.7309
 9141TIP3    H251619   1.339  -0.020  11.837  0.1782 -1.0669  0.7046
 9142TIP3   OH251620   6.541   4.463  11.646  0.4800 -0.6713  0.8128
 9142TIP3    H151621   6.507   4.374  11.636  0.4456 -0.5896  0.1390
 9142TIP3    H251622   6.561   4.491  11.557  1.0407 -0.2155  1.0743
 9143TIP3   OH251623   4.233   3.634  12.063 -0.0299  0.7890 -0.0142
 9143TIP3    H151624   4.312   3.687  12.073  0.0737  0.9920 -1.6304
 9143TIP3    H251625   4.225   3.586  12.145  0.0322  3.0667  1.4031
 9144TIP3   OH251626   0.855   8.020  12.774 -0.2682 -0.0678 -0.3533
 9144TIP3    H151627   0.871   8.099  12.723 -0.2511  1.3403  1.6912
 9144TIP3    H251628   0.867   7.948  12.712  1.2107  1.4482 -1.9427
 9145TIP3   OH251629   0.525   2.217  11.532  0.6043  0.1911  0.5858
 9145TIP3    H151630   0.446   2.234  11.482  0.7180 -1.6040 -0.2746
 9145TIP3    H251631   0.572   2.301  11.532 -0.5027  0.8343 -0.2795
 9146TIP3   OH251632   4.461   3.363  10.823  0.2650 -0.1146 -0.0770
 9146TIP3    H151633   4.448   3.290  10.884  0.0801  0.0118  0.0366
 9146TIP3    H251634   4.556   3.368  10.811  0.2113 -1.1135 -0.9980
 9147TIP3   OH251635   3.872   3.563  11.074  0.2174  0.0521  0.2565
 9147TIP3    H151636   3.871   3.496  11.143  2.6111  1.1763  1.5168
 9147TIP3    H251637   3.851   3.516  10.994  0.4261 -1.9402  1.3093
 9148TIP3   OH251638   5.419   8.027  10.520  0.0358  0.3704  0.3225
 9148TIP3    H151639   5.374   8.074  10.450 -1.5230 -0.6593  0.5741
 9148TIP3    H251640   5.457   8.096  10.575  0.4472  1.2128 -0.9832
 9149TIP3   OH251641   2.647   2.665  10.532  0.3875 -0.1700  0.1468
 9149TIP3    H151642   2.602   2.702  10.456  3.2460 -1.5700 -2.4457
 9149TIP3    H251643   2.583   2.606  10.571 -1.4173  1.1567 -0.6720
 9150TIP3   OH251644   2.506   0.918  10.779 -0.2347  0.0928 -0.2143
 9150TIP3    H151645   2.569   0.876  10.721 -0.2861 -0.9166  0.4325
 9150TIP3    H251646   2.537   1.008  10.787  0.4988 -0.1017 -0.7768
 9151TIP3   OH251647   7.663   3.510  12.422 -0.3658  0.6641 -0.0096
 9151TIP3    H151648   7.699   3.449  12.487 -1.1801 -0.0491 -0.2077
 9151TIP3    H251649   7.740   3.553  12.385  0.1496  0.5734  0.9302
 9152TIP3   OH251650   5.871   0.471  12.023 -0.1645 -0.1648 -0.2172
 9152TIP3    H151651   5.844   0.559  12.047 -0.5997 -0.4266  0.2654
 9152TIP3    H251652   5.877   0.423  12.106  0.1589 -0.5671 -0.4636
 9153TIP3   OH251653   6.625   7.624  11.847  0.8157  0.0716 -0.3999
 9153TIP3    H151654   6.645   7.712  11.879  3.2193 -0.2985 -0.6847
 9153TIP3    H251655   6.625   7.569  11.925  1.2125  0.0373 -0.4214
 9154TIP3   OH251656   8.195   1.102  11.470  0.2221  0.1256 -0.2944
 9154TIP3    H151657   8.124   1.108  11.406 -1.0319  0.2846  1.0751
 9154TIP3    H251658   8.227   1.192  11.478  0.4696  0.0858 -0.7584
 9155TIP3   OH251659   8.432   7.160  11.554 -0.1764  0.2272 -0.2185
 9155TIP3    H151660   8.466   7.179  11.467 -0.0833  0.7393 -0.0773
 9155TIP3    H251661   8.355   7.106  11.540  1.6366 -2.4763 -0.5011
 9156TIP3   OH251662   6.669   3.188  10.820  0.1323  0.3051 -0.1765
 9156TIP3    H151663   6.713   3.116  10.774  2.1658  0.2369  1.6415
 9156TIP3    H251664   6.685   3.265  10.766 -0.8512 -0.3546 -1.4496
 9157TIP3   OH251665   5.473   5.030  12.036 -0.3713  0.3659 -0.5331
 9157TIP3    H151666   5.402   5.093  12.042 -0.8187 -0.2215  0.5943
 9157TIP3    H251667   5.529   5.051  12.111 -0.7487 -0.8299  0.0999
 9158TIP3   OH251668   1.886   6.385  12.149 -0.0432  0.3315  0.0551
 9158TIP3    H151669   1.923   6.317  12.206 -0.6187 -0.8139 -0.8799
 9158TIP3    H251670   1.962   6.418  12.100  0.5186  1.6019  1.7081
 9159TIP3   OH251671   6.140   0.778  12.058  0.3485 -0.1809  0.4148
 9159TIP3    H151672   6.205   0.820  12.002  0.6486  1.5710  1.9644
 9159TIP3    H251673   6.158   0.685  12.051 -0.0782 -0.1264 -2.8634
 9160TIP3   OH251674   4.385   7.512  11.947 -0.0655  0.1415 -0.4237
 9160TIP3    H151675   4.355   7.498  12.036 -0.7627 -1.5655 -0.8786
 9160TIP3    H251676   4.449   7.583  11.954 -0.4627  0.3736  1.3390
 9161TIP3   OH251677   7.362   8.000  11.942 -0.2031  0.7802 -0.3282
 9161TIP3    H151678   7.313   8.042  11.872  0.4396 -0.1902 -1.4048
 9161TIP3    H251679   7.296   7.974  12.006 -1.5443 -2.4323 -2.7000
 9162TIP3   OH251680   3.973   5.827  10.809  0.3739 -0.1625  0.5227
 9162TIP3    H151681   3.914   5.836  10.883 -0.1239  1.2969 -0.0150
 9162TIP3    H251682   4.052   5.787  10.845 -0.6565 -1.5289  1.3826
 9163TIP3   OH251683   3.181   2.515  10.729  0.2528 -0.5027 -0.0397
 9163TIP3    H151684   3.120   2.488  10.660 -1.0732 -0.1048  0.9336
 9163TIP3    H251685   3.148   2.473  10.808  0.8168  0.2942  0.6410
 9164TIP3   OH251686   8.217   7.123  10.584 -0.0673  0.2490  0.3524
 9164TIP3    H151687   8.262   7.041  10.605 -1.8103 -0.9447 -0.3151
 9164TIP3    H251688   8.141   7.096  10.532 -1.1462  2.2089  0.8044
 9165TIP3   OH251689   2.668   0.298  12.544  0.0767  0.2901  0.6215
 9165TIP3    H151690   2.683   0.240  12.470 -0.1405  0.6081  0.3219
 9165TIP3    H251691   2.573   0.297  12.556  0.0584  0.6984  0.5187
 9166TIP3   OH251692   4.780   0.193  11.076 -0.5531 -0.3552 -0.0745
 9166TIP3    H151693   4.744   0.195  11.165 -0.3691  2.0937  0.0263
 9166TIP3    H251694   4.758   0.279  11.040  0.7417 -0.7108 -1.8458
 9167TIP3   OH251695   4.803   5.772  12.241 -0.2412 -0.1143 -0.0662
 9167TIP3    H151696   4.742   5.790  12.171 -1.5198  1.5112  1.3642
 9167TIP3    H251697   4.748   5.747  12.316  0.7376  1.5390  1.2989
 9168TIP3   OH251698   3.480   3.953  12.725  0.3318 -0.7025  0.9567
 9168TIP3    H151699   3.488   3.863  12.695 -1.6534 -0.9101  0.9310
 9168TIP3    H251700   3.402   3.954  12.780 -0.9109  1.3607 -0.6326
 9169TIP3   OH251701   5.147   1.004  12.259 -0.5903 -0.3033 -1.0390
 9169TIP3    H151702   5.240   0.990  12.237 -0.5422 -0.9675 -0.4523
 9169TIP3    H251703   5.148   1.048  12.343 -0.7952 -2.4707  0.1705
 9170TIP3   OH251704   6.705   0.080  12.449 -0.3272  0.2140 -0.0740
 9170TIP3    H151705   6.776   0.144  12.463 -0.1215 -0.1305  0.4844
 9170TIP3    H251706   6.671   0.063  12.537 -2.8609  2.3203 -0.5443
 9171TIP3   OH251707   0.569   4.381  11.205 -0.3278 -0.0042  0.1874
 9171TIP3    H151708   0.523   4.464  11.219  1.8875  1.2741  0.4645
 9171TIP3    H251709   0.583   4.378  11.110  1.0165  0.8397  0.3198
 9172TIP3   OH251710   0.604   0.452  10.752  0.5445  0.5534  0.0405
 9172TIP3    H151711   0.639   0.515  10.814 -2.0874  1.0050  1.2248
 9172TIP3    H251712   0.513   0.479  10.739  0.5530 -0.4452 -2.8576
 9173TIP3   OH251713   1.320   3.278  11.278 -0.4503 -0.2595  0.5687
 9173TIP3    H151714   1.326   3.364  11.236 -2.2001  0.7930  2.2758
 9173TIP3    H251715   1.317   3.215  11.206 -0.1880  1.1999 -0.7563
 9174TIP3   OH251716   7.806   5.653  10.948  0.4787  0.0413  0.3125
 9174TIP3    H151717   7.843   5.733  10.983 -0.2337  0.2567  0.5918
 9174TIP3    H251718   7.871   5.622  10.885  0.5899  1.0364 -0.0786
 9175TIP3   OH251719   5.327   6.787  11.602 -0.3392 -0.1021 -0.2599
 9175TIP3    H151720   5.333   6.784  11.697 -0.5210 -1.9225 -0.2756
 9175TIP3    H251721   5.237   6.813  11.584  0.1684  2.0063  0.0289
 9176TIP3   OH251722   5.115   0.454  11.458 -0.1053 -0.7453 -0.4848
 9176TIP3    H151723   5.154   0.491  11.538 -0.4585 -2.1487  0.3656
 9176TIP3    H251724   5.043   0.514  11.437  1.4945  1.0416 -1.2226
 9177TIP3   OH251725   6.453   5.016  11.457 -0.3079 -0.0574  0.4276
 9177TIP3    H151726   6.516   4.985  11.522  0.5263 -0.3515 -0.5023
 9177TIP3    H251727   6.417   5.096  11.495 -0.4971 -0.6874  1.6431
 9178TIP3   OH251728   4.796   4.376  11.175  0.2105 -0.1031 -0.0303
 9178TIP3    H151729   4.837   4.380  11.262 -0.5080  0.2066  0.2960
 9178TIP3    H251730   4.854   4.318  11.125  0.8932  0.0934  0.5071
 9179TIP3   OH251731   1.456   4.097  12.702 -0.2862  0.5801  0.1276
 9179TIP3    H151732   1.538   4.144  12.690 -0.0289  0.0221 -0.3287
 9179TIP3    H251733   1.388   4.163  12.688  0.0702  0.9009 -0.1073
 9180TIP3   OH251734   0.828   7.360  11.305  0.1230 -0.3668 -0.2248
 9180TIP3    H151735   0.842   7.404  11.221 -0.0781  1.7008  0.7418
 9180TIP3    H251736   0.917   7.345  11.339  0.2594  2.0219  0.6881
 9181TIP3   OH251737   0.669   5.458  10.778  0.1935 -0.3358  0.3146
 9181TIP3    H151738   0.697   5.549  10.770 -1.1097 -0.0417 -1.6704
 9181TIP3    H251739   0.584   5.463  10.822  0.4261 -0.6485  0.7977
 9182TIP3   OH251740   7.009   7.080  11.725 -0.4067 -0.7122 -0.5007
 9182TIP3    H151741   7.086   7.024  11.714 -0.3261 -0.4294 -1.3855
 9182TIP3    H251742   6.951   7.055  11.653 -0.5310  0.0792 -0.6845
 9183TIP3   OH251743   1.853   5.288  10.580 -0.4724  0.2551  0.5955
 9183TIP3    H151744   1.837   5.222  10.513  1.5828 -1.2273  1.4458
 9183TIP3    H251745   1.768   5.301  10.622 -0.7995 -2.6648  1.0406
 9184TIP3   OH251746   3.318   2.381  11.902  0.1021  0.3935  0.0487
 9184TIP3    H151747   3.266   2.385  11.823  0.4947 -0.3603 -0.2593
 9184TIP3    H251748   3.318   2.470  11.936 -0.4219  0.6308 -0.5673
 9185TIP3   OH251749   1.614   0.715  11.626 -0.2808  0.0250  0.4677
 9185TIP3    H151750   1.541   0.653  11.631 -0.1172 -0.1456  0.7919
 9185TIP3    H251751   1.575   0.800  11.647 -0.1935 -0.2251  1.7412
 9186TIP3   OH251752   3.531   6.894  11.263  0.0403  0.0481  0.4317
 9186TIP3    H151753   3.548   6.834  11.336  1.1464 -0.4928 -0.2434
 9186TIP3    H251754   3.437   6.885  11.246  0.0312 -0.8767  0.8846
 9187TIP3   OH251755   1.873   7.667  12.530 -0.3371 -0.2681 -0.1046
 9187TIP3    H151756   1.779   7.646  12.530 -0.2239 -0.7903  0.2745
 9187TIP3    H251757   1.916   7.585  12.504 -0.0337  0.2371 -1.2413
 9188TIP3   OH251758   0.906   1.138  11.091 -0.0527 -0.5597  0.3882
 9188TIP3    H151759   0.901   1.091  11.174 -1.4835  1.6019  1.6109
 9188TIP3    H251760   0.903   1.231  11.115 -0.1288  0.1410 -2.0611
 9189TIP3   OH251761   2.291   3.907  11.998 -0.1610  0.0792 -0.3985
 9189TIP3    H151762   2.311   3.993  12.033 -0.5385  0.7146 -1.6804
 9189TIP3    H251763   2.373   3.877  11.959  0.0784 -0.3303  0.4038
 9190TIP3   OH251764   1.264   7.886  10.869  0.2485  0.0517  0.3003
 9190TIP3    H151765   1.191   7.900  10.808 -0.6684  3.4149  1.9319
 9190TIP3    H251766   1.239   7.807  10.917 -2.1296  0.8042  0.4558
 9191TIP3   OH251767   1.626   3.596  12.684  0.2026  0.1966  0.2017
 9191TIP3    H151768   1.611   3.686  12.712  1.4162  0.8457 -1.1281
 9191TIP3    H251769   1.704   3.600  12.629  0.6754 -1.7791  0.6360
 9192TIP3   OH251770   7.634   0.869  12.109  0.2510  0.0630  0.3055
 9192TIP3    H151771   7.547   0.850  12.142  0.2661 -0.0850  0.2614
 9192TIP3    H251772   7.674   0.924  12.177 -0.1020  0.6708  0.0312
 9193TIP3   OH251773   7.569   5.557  12.683 -0.1386  0.2612 -0.0577
 9193TIP3    H151774   7.620   5.598  12.614  0.2079 -1.0355 -0.6061
 9193TIP3    H251775   7.512   5.626  12.716  0.4201  1.1581 -0.9409
 9194TIP3   OH251776   2.203   6.857  10.450  0.2314  0.0232 -0.0454
 9194TIP3    H151777   2.159   6.789  10.499  0.0057  0.4510  0.3547
 9194TIP3    H251778   2.290   6.821  10.431 -0.2981 -0.8516 -0.8983
 9195TIP3   OH251779   2.725   1.116  12.330 -0.3060 -0.1955  0.1035
 9195TIP3    H151780   2.820   1.105  12.329 -0.3788 -1.3191 -2.3063
 9195TIP3    H251781   2.700   1.106  12.422  1.9894  1.2276  0.9422
 9196TIP3   OH251782   4.995   6.330  11.774  0.3362  0.4588 -0.0994
 9196TIP3    H151783   5.006   6.357  11.683 -0.0479 -0.0692 -0.3075
 9196TIP3    H251784   5.027   6.405  11.825 -0.9345  1.4429 -0.6581
 9197TIP3   OH251785   0.060   2.267  12.282 -0.0219 -0.7086  0.0319
 9197TIP3    H151786   0.102   2.222  12.209  0.1648 -0.6906  0.1269
 9197TIP3    H251787  -0.033   2.251  12.270 -0.1306  0.5225 -1.0351
 9198TIP3   OH251788   0.120   2.030  11.664 -0.4371  0.1288  0.0897
 9198TIP3    H151789   0.152   2.121  11.657 -1.9375  0.6433 -0.4642
 9198TIP3    H251790   0.162   1.996  11.742 -0.1461  1.4419  0.5351
 9199TIP3   OH251791   4.965   0.111  10.538 -0.1059 -0.0182  0.1253
 9199TIP3    H151792   5.019   0.190  10.552 -0.8302  0.4390  0.3898
 9199TIP3    H251793   5.026   0.047  10.503  0.1706  1.1954 -1.7880
 9200TIP3   OH251794   3.063   6.181  11.520  0.1468 -0.3518  0.0657
 9200TIP3    H151795   3.073   6.125  11.443 -1.6060  1.1582 -1.3480
 9200TIP3    H251796   3.146   6.229  11.526 -0.1059  0.3692 -1.6507
 9201TIP3   OH251797   8.125   3.339  10.962  0.0369  0.1184  0.7508
 9201TIP3    H151798   8.119   3.247  10.984 -2.1140 -0.2641 -1.0208
 9201TIP3    H251799   8.140   3.340  10.867 -0.2208  1.5683  0.6927
 9202TIP3   OH251800   2.067   7.287  10.652  0.2012 -0.1908  0.3405
 9202TIP3    H151801   2.130   7.232  10.699 -0.3349  0.0099  1.3215
 9202TIP3    H251802   2.072   7.257  10.561  2.7343  0.7378  0.0827
 9203TIP3   OH251803   3.031   2.778  10.771 -0.3982  0.0656  0.7369
 9203TIP3    H151804   3.049   2.819  10.686 -2.3195 -1.6188 -0.5838
 9203TIP3    H251805   3.085   2.698  10.770  2.0874  1.5813  2.5999
 9204TIP3   OH251806   5.520   5.836  11.491 -0.0447  0.4015 -0.5479
 9204TIP3    H151807   5.442   5.831  11.546 -1.0415  1.4163 -1.8121
 9204TIP3    H251808   5.545   5.744  11.475  0.4016  0.0765  1.6942
 9205TIP3   OH251809   4.389   1.714  11.292  0.5043 -0.3894  0.4690
 9205TIP3    H151810   4.468   1.763  11.311  0.7505 -0.9887  1.0362
 9205TIP3    H251811   4.339   1.770  11.233  1.3590 -0.0192  0.0813
 9206TIP3   OH251812   4.509   1.825  12.294 -0.1293 -0.4221  0.5641
 9206TIP3    H151813   4.442   1.776  12.248 -0.2792  0.8342 -0.6147
 9206TIP3    H251814   4.470   1.912  12.308  0.4545 -0.3275  1.7939
 9207TIP3   OH251815   0.250   7.636  10.942  0.1206  0.1362 -0.7846
 9207TIP3    H151816   0.166   7.682  10.939 -0.0098 -0.0899 -0.5325
 9207TIP3    H251817   0.309   7.696  10.987  1.0613  1.8798 -4.0045
 9208TIP3   OH251818   0.423   0.423  11.266  0.3414  0.4271  0.1055
 9208TIP3    H151819   0.513   0.456  11.271 -0.0192  1.3721  0.6397
 9208TIP3    H251820   0.428   0.348  11.207  1.4207  0.6685 -0.1297
 9209TIP3   OH251821   0.316   3.789  12.302 -0.3279 -0.0907  0.1679
 9209TIP3    H151822   0.264   3.800  12.382 -0.3714 -0.3388  0.1752
 9209TIP3    H251823   0.382   3.724  12.326 -0.2602 -0.0668  0.0416
 9210TIP3   OH251824   0.403   2.963  11.071  0.7595 -0.0405 -0.5956
 9210TIP3    H151825   0.454   2.945  10.993  0.2232  2.6970 -1.6750
 9210TIP3    H251826   0.391   3.058  11.072 -3.3824 -0.3529  0.1270
 9211TIP3   OH251827   4.421   0.886  12.970 -0.1759 -0.0304  0.0429
 9211TIP3    H151828   4.329   0.902  12.949 -0.6988  0.8159  2.6295
 9211TIP3    H251829   4.426   0.791  12.981 -0.6541 -0.1123 -0.3898
 9212TIP3   OH251830   4.386   5.769  12.532  0.8062 -0.5734  0.6115
 9212TIP3    H151831   4.436   5.816  12.599  1.4751  1.8116 -1.3833
 9212TIP3    H251832   4.313   5.828  12.511  0.3167 -1.5061 -0.3889
 9213TIP3   OH251833   4.579   0.712  10.547 -0.2808  0.5177 -0.2184
 9213TIP3    H151834   4.486   0.701  10.526 -0.5564  1.7001  0.2958
 9213TIP3    H251835   4.592   0.807  10.551  0.8523  0.3676  0.1477
 9214TIP3   OH251836   2.446   3.985  12.300  0.1536 -0.3440  0.4415
 9214TIP3    H151837   2.446   3.983  12.395 -3.2435 -0.0915  0.5890
 9214TIP3    H251838   2.455   4.078  12.278  0.2268 -0.3223  0.5631
 9215TIP3   OH251839   6.179   3.193  11.874 -0.3178 -0.3466  0.0463
 9215TIP3    H151840   6.130   3.117  11.843  0.1439 -0.4498 -0.4436
 9215TIP3    H251841   6.150   3.266  11.819  1.0095 -0.6694 -1.1491
 9216TIP3   OH251842   2.131   4.320  11.150  0.0023 -0.3399 -0.1526
 9216TIP3    H151843   2.054   4.281  11.109  1.3438 -2.5193 -0.8020
 9216TIP3    H251844   2.105   4.336  11.240 -0.9675 -1.9435 -0.1052
 9217TIP3   OH251845   2.477   0.110  12.933 -0.0331 -0.1032  0.8457
 9217TIP3    H151846   2.561   0.064  12.940  0.5936  0.8060 -0.3033
 9217TIP3    H251847   2.500   0.203  12.932 -0.9770  0.1429 -0.1318
 9218TIP3   OH251848   5.421   7.662  12.260 -0.4106  0.0986  0.1722
 9218TIP3    H151849   5.425   7.582  12.313 -0.8628 -0.4018 -0.5463
 9218TIP3    H251850   5.429   7.733  12.324 -1.5080 -0.4883  0.9773
 9219TIP3   OH251851   3.714   5.061  12.557 -0.3863  0.6955 -0.1940
 9219TIP3    H151852   3.632   5.091  12.597 -0.2441  1.4656 -0.4608
 9219TIP3    H251853   3.747   5.138  12.511 -0.5682 -0.1675 -1.8330
 9220TIP3   OH251854   7.219   3.039  12.175 -0.0342 -0.3355  0.4413
 9220TIP3    H151855   7.134   3.056  12.217  0.1387  1.1476  0.2593
 9220TIP3    H251856   7.273   3.115  12.199  0.5121 -0.1280 -1.2768
 9221TIP3   OH251857   0.475   6.103  10.603  0.2580 -0.2365  0.6692
 9221TIP3    H151858   0.383   6.122  10.624  0.6853  0.0545  2.4878
 9221TIP3    H251859   0.514   6.190  10.590  0.1247 -0.3887 -1.0200
 9222TIP3   OH251860   2.089   6.945  12.407 -0.5015 -1.0083 -0.2020
 9222TIP3    H151861   2.100   6.986  12.321 -2.6935 -2.4814 -1.2764
 9222TIP3    H251862   2.177   6.946  12.445 -0.0074  2.4531 -1.0892
 9223TIP3   OH251863   4.320   4.252  11.837  0.0511  0.4087  0.2311
 9223TIP3    H151864   4.331   4.294  11.752 -1.7343  3.4964  1.3736
 9223TIP3    H251865   4.270   4.172  11.818  1.1721  0.0878 -1.7270
 9224TIP3   OH251866   4.639   0.835  12.599 -0.1205 -0.1714 -0.3373
 9224TIP3    H151867   4.608   0.745  12.608 -1.5779  0.2343 -0.9812
 9224TIP3    H251868   4.727   0.834  12.634 -0.7465 -1.4741  1.3075
 9225TIP3   OH251869   2.759   6.492  10.607 -0.1835 -0.5972 -0.0020
 9225TIP3    H151870   2.692   6.426  10.625 -0.6899  0.1197  0.8290
 9225TIP3    H251871   2.712   6.561  10.560  0.4228 -0.9787 -1.1883
 9226TIP3   OH251872   7.926   2.736  11.941  0.2387 -0.2500  0.3000
 9226TIP3    H151873   7.945   2.717  12.032  1.7202 -1.8859 -0.2842
 9226TIP3    H251874   7.985   2.807  11.917  1.1070 -0.9951  0.1839
 9227TIP3   OH251875   2.233   3.217  11.765  0.1568 -0.1324  0.1519
 9227TIP3    H151876   2.249   3.146  11.703  0.7872 -0.3332  0.5386
 9227TIP3    H251877   2.222   3.295  11.710  2.3285 -0.0073 -0.1646
 9228TIP3   OH251878   0.845   0.946  11.552  0.0010  0.3188 -0.0156
 9228TIP3    H151879   0.904   0.919  11.622  0.7075  1.7238 -0.0429
 9228TIP3    H251880   0.766   0.976  11.598  0.4123  1.1135  0.1813
 9229TIP3   OH251881   4.797   1.991  10.649 -0.4114  0.2415 -0.0836
 9229TIP3    H151882   4.811   1.982  10.555  1.9539  0.0367  0.2277
 9229TIP3    H251883   4.885   2.001  10.686 -0.5396 -5.0375  2.6356
 9230TIP3   OH251884   1.420   6.196  11.445 -0.5104 -0.2534 -0.3307
 9230TIP3    H151885   1.502   6.149  11.435 -0.2816 -0.0768  0.5932
 9230TIP3    H251886   1.358   6.148  11.390 -0.1985 -1.4190  0.2960
 9231TIP3   OH251887   2.437   5.594  10.493  0.2159 -0.3097  0.1033
 9231TIP3    H151888   2.367   5.648  10.528 -0.5620 -0.7834 -0.6745
 9231TIP3    H251889   2.483   5.651  10.431  1.0245  0.2401  1.1652
 9232TIP3   OH251890   3.479   2.389  11.385  0.0201  0.1386 -0.7071
 9232TIP3    H151891   3.553   2.421  11.437  0.7794 -0.3503 -1.4580
 9232TIP3    H251892   3.456   2.462  11.329 -0.6087  0.5683  0.0949
 9233TIP3   OH251893   8.183   6.988  10.888  0.8267 -0.4706 -0.3902
 9233TIP3    H151894   8.269   6.997  10.848  1.2621  2.3942  0.9117
 9233TIP3    H251895   8.177   7.063  10.948 -1.9558 -1.4587  0.7237
 9234TIP3   OH251896   4.593   0.516  11.662  0.0987 -0.0350  0.1630
 9234TIP3    H151897   4.643   0.485  11.587 -0.8615 -1.5910  0.1248
 9234TIP3    H251898   4.513   0.463  11.661 -1.2395  1.8570  0.6377
 9235TIP3   OH251899   1.594   8.349  11.692  0.5177 -0.3216  0.2625
 9235TIP3    H151900   1.517   8.394  11.727  0.2243 -0.3045 -0.3899
 9235TIP3    H251901   1.659   8.356  11.762  0.1059  0.1298  0.6140
 9236TIP3   OH251902   3.290   3.690  12.766  0.1495 -0.1567  0.3058
 9236TIP3    H151903   3.263   3.611  12.813  0.5949 -0.3290  0.2809
 9236TIP3    H251904   3.249   3.762  12.814 -0.7296 -0.4369 -0.0104
 9237TIP3   OH251905   6.279   8.314  10.686 -0.3426  0.1255  0.0931
 9237TIP3    H151906   6.208   8.265  10.728 -0.4200  0.4604  0.3601
 9237TIP3    H251907   6.358   8.288  10.732 -0.6229  1.6937  1.5661
 9238TIP3   OH251908   5.718   4.110  10.666 -0.1675 -0.2734  0.0216
 9238TIP3    H151909   5.671   4.179  10.618 -1.0642  0.4261  1.8048
 9238TIP3    H251910   5.692   4.029  10.622 -0.0328  0.4067 -1.3739
 9239TIP3   OH251911   6.671   0.292  10.557  0.0872 -0.6004  0.0854
 9239TIP3    H151912   6.605   0.258  10.497 -0.3884  0.3942  0.0274
 9239TIP3    H251913   6.624   0.355  10.612  0.6045 -1.1741  1.2293
 9240TIP3   OH251914   3.914   5.220  10.424  0.0688 -0.0120  0.5974
 9240TIP3    H151915   3.853   5.258  10.361  0.7801  0.1568 -0.0195
 9240TIP3    H251916   3.922   5.128  10.397 -0.1413 -0.1069  0.8596
 9241TIP3   OH251917   4.937   5.658  11.943  0.4505 -0.0754 -0.0408
 9241TIP3    H151918   4.933   5.570  11.907 -0.6015  0.1877 -0.6259
 9241TIP3    H251919   4.846   5.688  11.942  0.7548  0.8955  0.4367
 9242TIP3   OH251920   1.588   6.895  11.756  0.6935  0.0177  0.3145
 9242TIP3    H151921   1.663   6.930  11.804 -0.9647 -0.0599  3.1799
 9242TIP3    H251922   1.602   6.800  11.755  0.1262 -0.1186  1.9336
 9243TIP3   OH251923   3.661   4.820  11.175 -0.2051 -0.0302 -0.8373
 9243TIP3    H151924   3.745   4.845  11.214 -0.5353 -0.2336  0.0153
 9243TIP3    H251925   3.662   4.862  11.088 -0.1762  1.8678  0.0298
 9244TIP3   OH251926   4.090   6.779  11.466 -0.1380 -0.2718  0.0377
 9244TIP3    H151927   4.051   6.733  11.391  1.9914 -0.6927 -0.9042
 9244TIP3    H251928   4.176   6.737  11.477  0.3278  0.9986  1.5843
 9245TIP3   OH251929   5.018   2.441  10.522  0.2243  0.4124 -0.0233
 9245TIP3    H151930   5.001   2.347  10.533 -0.4041  0.4649 -0.5281
 9245TIP3    H251931   5.087   2.460  10.586  1.9378 -0.8403 -1.4120
 9246TIP3   OH251932   0.010   6.633  11.993 -0.1790 -0.3321 -0.1197
 9246TIP3    H151933  -0.015   6.691  11.921  0.8963 -0.4875 -0.6404
 9246TIP3    H251934  -0.068   6.581  12.010 -0.9439  0.7641 -0.1161
 9247TIP3   OH251935   2.289   6.026  11.785  0.2373  0.3617 -0.0244
 9247TIP3    H151936   2.359   6.079  11.823  0.3646  1.0525 -1.1865
 9247TIP3    H251937   2.210   6.050  11.834  0.7400 -0.1964  1.0862
 9248TIP3   OH251938   5.677   3.465  12.138  0.2437 -0.9405 -0.6602
 9248TIP3    H151939   5.702   3.513  12.217 -0.5436  0.6641 -1.3374
 9248TIP3    H251940   5.758   3.458  12.088  0.3470 -0.1185 -0.6258
 9249TIP3   OH251941   2.234   4.836  10.876  0.2870  0.0597  0.1197
 9249TIP3    H151942   2.273   4.761  10.831 -1.7844 -0.1594 -1.4754
 9249TIP3    H251943   2.262   4.912  10.824 -1.8680 -0.1685 -1.5465
 9250TIP3   OH251944   1.535   3.168  11.455 -0.2096  0.5031  0.1863
 9250TIP3    H151945   1.500   3.178  11.544 -1.0366 -0.1774 -0.0483
 9250TIP3    H251946   1.470   3.211  11.400  0.0659  0.5127 -0.1310
 9251TIP3   OH251947   4.845   5.085  10.434  0.1874 -0.5814  0.3740
 9251TIP3    H151948   4.790   5.161  10.452 -0.3873 -0.9153  0.0479
 9251TIP3    H251949   4.934   5.121  10.430 -0.2156  0.3541 -1.2560
 9252TIP3   OH251950   0.355   1.980  11.103  0.0950  0.1909  0.3930
 9252TIP3    H151951   0.276   1.946  11.061  0.4565 -1.5118  1.0281
 9252TIP3    H251952   0.336   1.979  11.196  0.8586 -0.2810  0.5582
 9253TIP3   OH251953   1.537   0.192  10.941  0.1515 -0.1957 -0.2972
 9253TIP3    H151954   1.539   0.249  11.018  0.1934 -2.2060  1.2657
 9253TIP3    H251955   1.538   0.253  10.867 -0.4116  1.8341  1.2577
 9254TIP3   OH251956   6.138   1.654  11.722  0.5114 -0.5198 -0.4494
 9254TIP3    H151957   6.142   1.616  11.809 -0.2860 -0.6377 -0.4564
 9254TIP3    H251958   6.045   1.657  11.701  0.5769  1.0810 -0.6087
 9255TIP3   OH251959   3.176   4.070  10.847  0.4859  0.3691 -0.0288
 9255TIP3    H151960   3.181   4.165  10.836  1.2974  0.3276 -0.0703
 9255TIP3    H251961   3.084   4.049  10.834  0.3494  1.1152 -0.2982
 9256TIP3   OH251962   8.375   0.784  12.446  0.1010 -0.0192  0.3052
 9256TIP3    H151963   8.293   0.833  12.455  1.9020  3.3049  0.1992
 9256TIP3    H251964   8.372   0.721  12.518 -1.7206  1.3548  1.5597
 9257TIP3   OH251965   0.332   2.416  12.566  0.2218  0.1346 -0.0098
 9257TIP3    H151966   0.289   2.480  12.624  0.9245  0.7762 -0.1840
 9257TIP3    H251967   0.268   2.345  12.559 -0.0211  0.1811  1.2935
 9258TIP3   OH251968   8.259   5.730  12.305 -0.0342  0.5074  0.8167
 9258TIP3    H151969   8.195   5.673  12.346 -0.1882  0.7546  0.9240
 9258TIP3    H251970   8.320   5.754  12.375  0.6540 -0.3739  0.5383
 9259TIP3   OH251971   6.325   8.373  12.612  0.4154  0.1693  0.1257
 9259TIP3    H151972   6.384   8.397  12.683 -0.5828  1.4976  0.5370
 9259TIP3    H251973   6.270   8.303  12.649  0.6714  0.0412  0.2650
 9260TIP3   OH251974   5.792   6.073  10.541  0.1632 -0.4924  0.6998
 9260TIP3    H151975   5.755   6.159  10.558  1.2455  0.4982 -1.5767
 9260TIP3    H251976   5.868   6.067  10.598 -0.0117 -0.0295  0.9821
 9261TIP3   OH251977   1.241   5.300  10.669 -0.0030  0.4552 -0.1868
 9261TIP3    H151978   1.146   5.298  10.660 -0.0105  1.9222 -0.8077
 9261TIP3    H251979   1.262   5.225  10.725 -1.4763 -0.1170 -0.3578
 9262TIP3   OH251980   6.904   7.906  10.758  0.5147 -0.4705 -0.5633
 9262TIP3    H151981   6.891   7.920  10.851  1.8846 -2.4822  0.0237
 9262TIP3    H251982   6.835   7.845  10.733  1.8992 -2.3674 -0.0561
 9263TIP3   OH251983   7.371   1.937  11.800 -0.5318  0.0437 -0.3656
 9263TIP3    H151984   7.329   2.023  11.806 -0.2035  0.1537  0.4509
 9263TIP3    H251985   7.349   1.906  11.712  1.7188  2.1814 -1.7881
 9264TIP3   OH251986   6.536   7.076  11.426  0.4052 -0.3875 -0.3924
 9264TIP3    H151987   6.604   7.122  11.376 -0.0305  1.1166  0.3251
 9264TIP3    H251988   6.466   7.061  11.362  0.3763  0.3579 -0.5446
 9265TIP3   OH251989   6.601   3.192  12.615  0.3940  0.0733 -0.3910
 9265TIP3    H151990   6.596   3.123  12.682  0.8358  0.4347  0.0183
 9265TIP3    H251991   6.511   3.201  12.584  0.6130 -2.1824 -1.9936
 9266TIP3   OH251992   3.152   5.266  12.198  0.1279  0.3097 -0.3075
 9266TIP3    H151993   3.079   5.326  12.184 -0.4337 -0.7494 -2.3993
 9266TIP3    H251994   3.113   5.178  12.192  0.8937 -0.3599  2.8576
 9267TIP3   OH251995   2.546   6.927  10.753  0.2148 -0.1003 -0.2199
 9267TIP3    H151996   2.458   6.924  10.715 -0.0654 -0.9170  0.4756
 9267TIP3    H251997   2.605   6.921  10.678 -0.3287 -1.5068 -0.5563
 9268TIP3   OH251998   0.453   5.861  10.705 -0.5808 -0.2619 -0.3377
 9268TIP3    H151999   0.453   5.943  10.655  3.7966  0.1643 -0.0024
 9268TIP3    H252000   0.384   5.808  10.664 -0.0043  1.5980 -4.1321
 9269TIP3   OH252001   8.027   2.775  12.184 -0.7696  0.2873  0.0449
 9269TIP3    H152002   8.026   2.859  12.139 -0.7637  0.1802 -0.1565
 9269TIP3    H252003   7.969   2.788  12.260 -0.3395  0.6320  0.3184
 9270TIP3   OH252004   6.016   3.801  12.484 -0.3110 -0.2033 -0.0697
 9270TIP3    H152005   6.040   3.758  12.402 -1.8673 -0.5515 -0.3732
 9270TIP3    H252006   6.034   3.736  12.552 -0.3562 -0.4391 -0.2834
 9271TIP3   OH252007   8.129   2.019  11.542 -0.5324 -0.2692 -0.0291
 9271TIP3    H152008   8.108   2.112  11.548  2.9716  0.7012 -0.5192
 9271TIP3    H252009   8.177   1.999  11.622  2.3544 -0.4292 -1.6411
 9272TIP3   OH252010   6.761   2.198  11.647  0.7815 -0.1858  0.2194
 9272TIP3    H152011   6.824   2.140  11.604  2.1619  0.6262  1.0760
 9272TIP3    H252012   6.751   2.272  11.586  0.8540 -0.1869  0.2071
 9273TIP3   OH252013   6.216   7.203  10.465  0.0933  0.1402  0.1199
 9273TIP3    H152014   6.207   7.289  10.424  0.8048 -0.5209 -1.5208
 9273TIP3    H252015   6.305   7.203  10.501  0.1157  0.0869  0.0661
 9274TIP3   OH252016   1.800   3.486  12.239  0.4320  0.1310  0.4828
 9274TIP3    H152017   1.804   3.570  12.193  0.4291  0.6816  1.4601
 9274TIP3    H252018   1.711   3.454  12.223 -0.0010  0.9521  1.1685
 9275TIP3   OH252019   5.271   4.067  12.189 -0.1701  0.3964  0.2296
 9275TIP3    H152020   5.265   3.973  12.169  1.3776  0.3261  0.0008
 9275TIP3    H252021   5.206   4.108  12.132  1.1904 -0.2482 -1.8742
 9276TIP3   OH252022   4.495   5.492  11.434 -0.2174  0.2991 -0.0179
 9276TIP3    H152023   4.460   5.549  11.502 -0.3289 -0.2187  0.3630
 9276TIP3    H252024   4.419   5.448  11.397 -0.2315  1.1158 -0.9770
 9277TIP3   OH252025   8.140   0.408  10.366 -0.3155 -0.6567 -0.2938
 9277TIP3    H152026   8.116   0.349  10.437 -1.2002  0.7866  0.6521
 9277TIP3    H252027   8.229   0.382  10.343 -0.1020 -1.3273  1.1739
 9278TIP3   OH252028   5.867   7.711  10.402  0.0639 -0.8247  0.3877
 9278TIP3    H152029   5.871   7.624  10.441  1.9747 -1.0882 -0.2921
 9278TIP3    H252030   5.797   7.704  10.336  1.1031 -2.3163 -0.6376
 9279TIP3   OH252031   5.367   2.788  11.730  0.4614 -0.3865  0.1439
 9279TIP3    H152032   5.454   2.809  11.697  0.1325 -0.1894 -0.6335
 9279TIP3    H252033   5.382   2.750  11.816  1.4330 -1.8629 -0.6442
 9280TIP3   OH252034   5.586   5.596  10.391  0.3491 -0.5517  0.0677
 9280TIP3    H152035   5.593   5.675  10.337 -1.0334 -0.0820  0.5424
 9280TIP3    H252036   5.670   5.591  10.436 -0.2225  1.8430  1.5885
 9281TIP3   OH252037   3.782   4.538  12.877  0.5540 -0.5383 -0.2652
 9281TIP3    H152038   3.736   4.491  12.947 -0.2841  0.3337 -0.1992
 9281TIP3    H252039   3.724   4.531  12.801 -0.9948  2.6038  0.4437
 9282TIP3   OH252040   3.263   2.580  12.269  0.0316 -0.0181  0.8170
 9282TIP3    H152041   3.227   2.664  12.297  1.0339  1.1913 -1.2339
 9282TIP3    H252042   3.342   2.568  12.321  0.3058  0.7282  0.5818
 9283TIP3   OH252043   5.449   2.872  11.288  0.1737  0.4422  0.3017
 9283TIP3    H152044   5.397   2.877  11.368 -0.0084 -0.6881  0.2657
 9283TIP3    H252045   5.514   2.804  11.305 -0.6269 -0.6865 -0.9137
 9284TIP3   OH252046   7.141   6.584  10.611 -0.0832  0.3038  0.0088
 9284TIP3    H152047   7.126   6.489  10.616 -0.4916  0.2922 -1.0406
 9284TIP3    H252048   7.066   6.623  10.654 -0.1301  0.1495  0.0655
 9285TIP3   OH252049   2.526   4.673  10.618  0.4161 -0.1430 -0.2739
 9285TIP3    H152050   2.441   4.659  10.660  0.7604  1.8449  1.2669
 9285TIP3    H252051   2.509   4.738  10.549  0.7226  0.6885  0.4038
 9286TIP3   OH252052   1.782   2.557  11.052  0.0669  0.0405 -0.2534
 9286TIP3    H152053   1.795   2.532  10.960  2.3235  1.4605 -0.3966
 9286TIP3    H252054   1.695   2.598  11.054  0.4082  0.9341 -2.0027
 9287TIP3   OH252055   1.775   4.428  11.944 -0.1837  0.0800 -0.3359
 9287TIP3    H152056   1.790   4.376  11.865 -1.4748  1.0087 -1.2254
 9287TIP3    H252057   1.862   4.437  11.983  0.6581  0.3887 -2.1594
 9288TIP3   OH252058   8.366   7.423  11.992  0.2654  0.1913  0.0550
 9288TIP3    H152059   8.375   7.346  12.047 -0.6004 -0.7699 -1.0919
 9288TIP3    H252060   8.454   7.462  11.990 -0.0361  1.3538  3.5447
 9289TIP3   OH252061   2.635   3.049  12.628 -0.0833 -0.2706 -0.0967
 9289TIP3    H152062   2.613   3.063  12.720 -1.3196  3.0376 -0.7711
 9289TIP3    H252063   2.573   2.982  12.598  0.1579 -1.1862  1.3625
 9290TIP3   OH252064   5.424   0.931  12.367  0.5353 -0.5022  0.5560
 9290TIP3    H152065   5.474   0.900  12.443  1.7445 -2.5358 -0.9568
 9290TIP3    H252066   5.454   0.875  12.295 -1.2850  0.6917 -1.2177
 9291TIP3   OH252067   4.730   7.498  12.355 -0.5620 -0.1102 -0.0488
 9291TIP3    H152068   4.812   7.536  12.323 -1.0173  0.6858 -0.3085
 9291TIP3    H252069   4.687   7.463  12.277 -0.7158 -0.0492  0.0076
 9292TIP3   OH252070   2.659   0.532  10.541 -0.1476 -0.3864 -0.0582
 9292TIP3    H152071   2.573   0.572  10.546 -1.3574 -3.0081  2.0181
 9292TIP3    H252072   2.643   0.438  10.546  2.8114 -0.9973 -0.0844
 9293TIP3   OH252073   6.497   4.015  11.038  0.6924 -0.2637  0.3165
 9293TIP3    H152074   6.570   4.073  11.060  0.8388 -0.5581  0.6198
 9293TIP3    H252075   6.490   3.956  11.113 -0.8601  0.7397  1.0271
 9294TIP3   OH252076   5.008   4.070  12.345 -0.1577 -0.0443  0.0851
 9294TIP3    H152077   5.007   4.045  12.252 -0.5893  0.4427 -0.0421
 9294TIP3    H252078   5.089   4.032  12.378  0.1134 -0.0296 -0.5431
 9295TIP3   OH252079   8.053   1.869  11.882 -0.1373  0.4126 -0.5089
 9295TIP3    H152080   8.016   1.899  11.965  1.9181  0.7256  0.3642
 9295TIP3    H252081   8.042   1.774  11.884  0.2372  0.3703  0.3426
 9296TIP3   OH252082   6.707   5.202  10.795 -0.1939  0.4225 -0.1540
 9296TIP3    H152083   6.660   5.135  10.844  0.2847  0.9276  1.0352
 9296TIP3    H252084   6.697   5.177  10.703  0.4946 -1.6177  0.2883
 9297TIP3   OH252085   4.542   4.545  11.877  0.0890 -0.3619  0.6087
 9297TIP3    H152086   4.463   4.582  11.915 -0.0071  0.0582  0.0126
 9297TIP3    H252087   4.577   4.614  11.821 -0.7219 -1.5199 -1.4672
 9298TIP3   OH252088   6.044   0.704  11.483  0.1130  0.3985  0.0218
 9298TIP3    H152089   6.086   0.640  11.539 -0.9750 -0.7119 -0.3887
 9298TIP3    H252090   5.980   0.747  11.540  0.5328  0.8153  0.1831
 9299TIP3   OH252091   2.409   7.729  12.695 -0.3863  0.4614 -0.0445
 9299TIP3    H152092   2.427   7.656  12.636 -0.1992 -1.1310  1.8751
 9299TIP3    H252093   2.481   7.790  12.680  1.2435 -1.2416  0.5068
 9300TIP3   OH252094   6.269   6.263  12.063  0.6790  0.1667  0.1884
 9300TIP3    H152095   6.217   6.257  11.983  0.5746  0.8065  0.1976
 9300TIP3    H252096   6.205   6.252  12.134  0.5607  0.8884  0.1988
 9301TIP3   OH252097   6.845   1.502  11.568 -0.7845 -0.0256  0.5563
 9301TIP3    H152098   6.876   1.421  11.528 -0.8277 -0.3170  1.1113
 9301TIP3    H252099   6.848   1.486  11.662  0.4261  1.0591  0.7302
 9302TIP3   OH252100   7.987   3.867  10.713  0.0573  0.0100  0.6458
 9302TIP3    H152101   8.064   3.847  10.766  0.6481 -2.8401 -1.1000
 9302TIP3    H252102   8.020   3.928  10.646  0.2070  0.6227  1.2679
 9303TIP3   OH252103   0.476   7.364  11.772  0.1495 -0.2113 -0.1884
 9303TIP3    H152104   0.547   7.307  11.744  1.1713  0.0827  1.6866
 9303TIP3    H252105   0.421   7.309  11.828 -1.0906 -0.4020 -1.5209
 9304TIP3   OH252106   7.598   0.260  12.741 -0.5692  0.2820  0.1751
 9304TIP3    H152107   7.671   0.236  12.684 -0.7716  0.6556 -0.2541
 9304TIP3    H252108   7.638   0.311  12.811 -0.3133 -0.2018  0.3848
 9305TIP3   OH252109   7.526   3.687  10.792 -0.0405 -0.6707  0.1111
 9305TIP3    H152110   7.621   3.688  10.783  0.1348 -0.9582  1.6719
 9305TIP3    H252111   7.501   3.779  10.789  0.4518 -0.4915  1.0614
 9306TIP3   OH252112   5.819   6.579  10.792  0.1047  0.2952 -0.0766
 9306TIP3    H152113   5.867   6.605  10.871  1.8785  0.6698 -1.2153
 9306TIP3    H252114   5.738   6.630  10.796  0.2673  0.4891  1.3635
 9307TIP3   OH252115   2.256   5.339  10.385 -0.2752  0.0254  0.0022
 9307TIP3    H152116   2.182   5.395  10.410 -1.2116 -0.5268 -1.3895
 9307TIP3    H252117   2.325   5.401  10.362 -0.7171  0.5855  0.1272
 9308TIP3   OH252118   1.507   5.542  11.438 -0.0911 -0.4190  0.3648
 9308TIP3    H152119   1.420   5.511  11.414 -0.1907  0.0051  0.1799
 9308TIP3    H252120   1.512   5.529  11.533 -0.6886  0.3783  0.5140
 9309TIP3   OH252121   7.713   1.120  11.193 -0.1620  0.1154  0.1441
 9309TIP3    H152122   7.640   1.167  11.232  1.3161  1.7991  1.0571
 9309TIP3    H252123   7.706   1.137  11.099 -1.0807 -0.0058  0.1825
 9310TIP3   OH252124   5.867   6.352  11.895  0.4578 -0.2525 -0.3584
 9310TIP3    H152125   5.774   6.361  11.876  0.4310 -1.5865 -0.9908
 9310TIP3    H252126   5.901   6.441  11.897 -1.2855  0.4832  2.3433
 9311TIP3   OH252127   3.647   0.332  11.660  0.1232  0.5493 -0.2452
 9311TIP3    H152128   3.660   0.339  11.755 -1.2205 -3.5150  0.4835
 9311TIP3    H252129   3.722   0.282  11.629  0.2223  1.2834 -1.2258
 9312TIP3   OH252130   4.649   4.587  10.862 -0.1767  0.3704 -0.2870
 9312TIP3    H152131   4.651   4.614  10.770 -1.0584 -2.8169 -1.3735
 9312TIP3    H252132   4.740   4.564  10.882 -0.2296 -0.4893 -0.9443
 9313TIP3   OH252133   1.180   7.694  11.847 -0.4149  0.0969 -0.0905
 9313TIP3    H152134   1.151   7.755  11.914 -2.2214 -0.2263 -0.5323
 9313TIP3    H252135   1.206   7.616  11.896  2.5629  1.3551  0.5350
 9314TIP3   OH252136   0.872   3.538  12.631  0.4907 -0.0175 -0.3543
 9314TIP3    H152137   0.790   3.583  12.608  0.7213  1.0922  0.8865
 9314TIP3    H252138   0.940   3.604  12.618  0.7203  0.4469  2.5700
 9315TIP3   OH252139   2.565   0.095  11.033  0.2358 -0.7143  0.0619
 9315TIP3    H152140   2.481   0.084  10.988  0.3427  0.8621 -0.6049
 9315TIP3    H252141   2.560   0.182  11.072  2.1316  0.0672 -1.3013
 9316TIP3   OH252142   7.308   2.469  10.852  0.2734 -0.3000  0.2840
 9316TIP3    H152143   7.300   2.387  10.901 -1.3918 -1.2250 -1.3911
 9316TIP3    H252144   7.240   2.525  10.889 -1.7436 -1.3912 -1.5430
 9317TIP3   OH252145   3.690   6.537  10.678  0.1115 -0.3462  0.1431
 9317TIP3    H152146   3.726   6.563  10.762 -1.8974  2.7232  0.1949
 9317TIP3    H252147   3.641   6.457  10.697  0.3224 -0.1399  1.7007
 9318TIP3   OH252148   1.344   1.390  10.573  0.1284 -0.4628  0.4945
 9318TIP3    H152149   1.422   1.367  10.523 -0.5630  0.3122 -0.9822
 9318TIP3    H252150   1.346   1.486  10.579 -2.4291 -0.0457 -2.6134
 9319TIP3   OH252151   8.116   3.352  12.018 -0.7731  0.2469 -0.0446
 9319TIP3    H152152   8.145   3.292  12.086 -0.9778 -0.6556 -0.7330
 9319TIP3    H252153   8.153   3.316  11.937 -2.4418 -0.0190 -0.7266
 9320TIP3   OH252154   6.223   7.484  10.373  0.0961  0.9920  0.4493
 9320TIP3    H152155   6.141   7.494  10.421  0.6230 -0.2910  1.6971
 9320TIP3    H252156   6.266   7.570  10.380 -0.7520  1.4198  0.5019
 9321TIP3   OH252157   1.008   8.262  11.501 -0.0775  0.1796  0.1431
 9321TIP3    H152158   0.929   8.208  11.508  0.5716 -0.7268  0.8790
 9321TIP3    H252159   0.976   8.348  11.473 -1.3170 -0.1725  0.3869
 9322TIP3   OH252160   2.754   0.284  10.328 -0.1468  0.2256 -0.0248
 9322TIP3    H152161   2.800   0.342  10.267 -1.8589  0.9136 -0.7475
 9322TIP3    H252162   2.755   0.199  10.285 -0.9036  0.5948 -0.8138
 9323TIP3   OH252163   4.841   8.333  10.363 -0.4911  0.4882  0.3656
 9323TIP3    H152164   4.849   8.370  10.451 -0.1014 -0.7610  0.8748
 9323TIP3    H252165   4.906   8.380  10.311 -0.0896  0.6136  0.9712
 9324TIP3   OH252166   6.303   5.379  10.848 -0.0245  0.2606 -0.2335
 9324TIP3    H152167   6.366   5.450  10.846  0.0367  0.2039 -0.2948
 9324TIP3    H252168   6.325   5.329  10.927 -1.0210  1.1882  0.6821
 9325TIP3   OH252169   1.944   0.239  10.402  0.1611 -0.0831 -0.3116
 9325TIP3    H152170   1.976   0.280  10.322  0.6186 -0.3190 -0.2508
 9325TIP3    H252171   2.023   0.215  10.450 -0.1135  0.7599  0.5823
 9326TIP3   OH252172   6.463   7.948  11.624 -0.3742 -0.5479  0.2921
 9326TIP3    H152173   6.458   7.879  11.558 -1.2821  0.3871 -0.6388
 9326TIP3    H252174   6.520   8.015  11.585  0.9096 -0.9573  1.3900
 9327TIP3   OH252175   5.114   5.172  10.501  0.6500 -0.2279 -0.1879
 9327TIP3    H152176   5.146   5.262  10.493  0.9179 -0.3806 -0.8155
 9327TIP3    H252177   5.111   5.157  10.596  0.1454  0.6039 -0.0599
 9328TIP3   OH252178   4.420   4.260  12.752  0.4322 -0.4638  0.1166
 9328TIP3    H152179   4.325   4.246  12.749  0.3909 -0.0484 -0.7073
 9328TIP3    H252180   4.453   4.184  12.800 -0.3518 -0.4150  0.7635
 9329TIP3   OH252181   6.782   2.141  10.989  0.1349 -0.0859 -0.5116
 9329TIP3    H152182   6.832   2.064  11.012 -0.7678 -0.8483 -1.0201
 9329TIP3    H252183   6.734   2.164  11.069 -0.0506 -0.4206 -0.5231
 9330TIP3   OH252184   1.004   0.233  10.372 -0.0688  0.5552  0.2597
 9330TIP3    H152185   1.015   0.321  10.408  2.8530  0.4059 -0.0400
 9330TIP3    H252186   0.940   0.244  10.303 -0.6366  2.2051  0.9845
 9331TIP3   OH252187   5.562   3.847  10.921 -0.5296  0.2794 -0.1152
 9331TIP3    H152188   5.549   3.804  11.006 -0.2562 -1.1960 -0.7801
 9331TIP3    H252189   5.646   3.892  10.930 -1.1831  1.3602  0.8530
 9332TIP3   OH252190   3.033   3.766  11.949 -0.5683  0.1388  0.3933
 9332TIP3    H152191   3.048   3.844  12.003  0.3796  0.3829 -0.2003
 9332TIP3    H252192   2.985   3.799  11.873 -1.7678 -0.1792  0.9872
 9333TIP3   OH252193   2.083   0.950  11.753 -0.0265  0.1786 -0.0281
 9333TIP3    H152194   2.165   0.979  11.791  0.5066 -0.4645 -0.6629
 9333TIP3    H252195   2.094   0.964  11.659 -0.8947  0.6952 -0.0628
 9334TIP3   OH252196   6.315   2.538  12.405  0.5146  0.1759  0.1369
 9334TIP3    H152197   6.256   2.613  12.399 -0.8588 -0.8242  0.8188
 9334TIP3    H252198   6.360   2.550  12.489  0.1578  0.1258  0.3335
 9335TIP3   OH252199   7.439   4.848  12.372  0.1547  0.0317  0.0612
 9335TIP3    H152200   7.421   4.942  12.377  1.1774  0.3046 -0.9377
 9335TIP3    H252201   7.500   4.831  12.443  0.9494  0.3893 -0.5198
 9336TIP3   OH252202   2.349   5.533  12.159 -0.3866  0.2405 -0.4149
 9336TIP3    H152203   2.393   5.610  12.123  1.1698 -1.2089 -1.7415
 9336TIP3    H252204   2.279   5.514  12.097  0.0094 -0.1286 -0.7525
 9337TIP3   OH252205   3.566   3.442  12.114 -0.2354  0.0337  0.0423
 9337TIP3    H152206   3.622   3.377  12.072 -0.3424  0.5105 -0.8679
 9337TIP3    H252207   3.557   3.512  12.048 -3.8890 -1.1055 -0.8683
 9338TIP3   OH252208   6.317   7.347  12.975  0.2154 -0.7866 -0.2566
 9338TIP3    H152209   6.369   7.384  12.903 -2.5871 -0.0731 -2.0413
 9338TIP3    H252210   6.255   7.416  12.998 -0.5400 -1.9032  1.2515
 9339TIP3   OH252211   4.746   0.881  11.457  0.5456 -0.4166 -0.4657
 9339TIP3    H152212   4.830   0.924  11.439 -0.4067  2.3544  1.0879
 9339TIP3    H252213   4.695   0.893  11.377  0.3967  1.2225 -0.1594
 9340TIP3   OH252214   0.511   6.436  11.561  0.5363  0.2718 -0.6242
 9340TIP3    H152215   0.502   6.448  11.656  3.0611  2.0180 -0.5185
 9340TIP3    H252216   0.581   6.372  11.551  0.7274  0.5779 -1.3154
 9341TIP3   OH252217   7.009   2.215  10.830 -0.0857  0.0231  0.7321
 9341TIP3    H152218   6.919   2.196  10.856 -0.2940  0.3346  0.2355
 9341TIP3    H252219   7.016   2.310  10.837  0.0459  0.0496  0.2683
 9342TIP3   OH252220   0.780   3.834  11.596 -0.0513 -0.4526  0.6534
 9342TIP3    H152221   0.818   3.918  11.570 -1.9452  0.6550  1.2438
 9342TIP3    H252222   0.715   3.815  11.528 -1.5518 -0.0169  1.8981
 9343TIP3   OH252223   4.052   0.871  11.924 -0.1284 -0.2568 -0.3755
 9343TIP3    H152224   4.136   0.884  11.880  0.2433 -0.5191  0.2388
 9343TIP3    H252225   4.065   0.910  12.011 -0.5561 -0.5325 -0.1862
 9344TIP3   OH252226   1.152   2.956  11.429  0.3265 -0.7611  0.0315
 9344TIP3    H152227   1.215   2.920  11.491 -0.3994  0.0621  1.2781
 9344TIP3    H252228   1.120   3.036  11.470  0.7433  0.5080 -1.9739
 9345TIP3   OH252229   7.773   5.371  11.453 -0.1245  0.2795 -0.3090
 9345TIP3    H152230   7.858   5.348  11.414  0.1210  0.7843 -0.0758
 9345TIP3    H252231   7.795   5.406  11.539 -0.8084 -3.2534  1.4794
 9346TIP3   OH252232   5.893   6.564  11.551 -0.3593 -0.3454 -0.1347
 9346TIP3    H152233   5.832   6.562  11.477 -0.5701  0.0531  0.0203
 9346TIP3    H252234   5.864   6.639  11.603 -0.5997 -0.9762  0.6772
 9347TIP3   OH252235   7.408   7.494  11.791  0.3880 -0.1493 -0.0194
 9347TIP3    H152236   7.363   7.515  11.710  0.2209  0.7520  0.2973
 9347TIP3    H252237   7.466   7.421  11.768 -0.4616 -0.6268 -0.6703
 9348TIP3   OH252238   8.252   6.969  12.304 -0.1123 -0.7071 -0.2844
 9348TIP3    H152239   8.207   6.939  12.225  0.0349 -1.7911  0.0279
 9348TIP3    H252240   8.199   6.936  12.376 -1.0294  1.4443  0.1287
 9349TIP3   OH252241   4.791   4.036  11.559 -0.1220  0.1571  0.1542
 9349TIP3    H152242   4.880   4.052  11.589  0.1446  0.6983 -0.8707
 9349TIP3    H252243   4.784   3.941  11.552 -0.5135 -0.0677  2.8096
 9350TIP3   OH252244   0.767   4.767  12.062  0.6630  0.3012 -0.1554
 9350TIP3    H152245   0.820   4.795  12.136  0.5398  0.0705  0.0229
 9350TIP3    H252246   0.791   4.826  11.990  1.2416  0.1223 -0.1094
 9351TIP3   OH252247   4.049   3.974  12.439 -0.0817  0.3034 -0.3425
 9351TIP3    H152248   4.081   4.039  12.501 -0.9771 -0.8813  1.4475
 9351TIP3    H252249   3.972   4.015  12.399 -1.2158  0.0562  1.4739
 9352TIP3   OH252250   0.630   2.403  10.448 -0.2036 -0.3879  0.4865
 9352TIP3    H152251   0.657   2.400  10.356 -2.1669 -0.9859 -0.1246
 9352TIP3    H252252   0.707   2.373  10.497  0.9437  0.1157 -0.9221
 9353TIP3   OH252253   7.723   6.927  12.011  0.8064  0.2333  0.5119
 9353TIP3    H152254   7.747   6.837  12.029  0.4943  0.3407  1.5291
 9353TIP3    H252255   7.756   6.977  12.086  1.5482  1.0642 -0.3457
 9354TIP3   OH252256   6.176   2.061  10.711 -0.7504 -0.6773  0.1884
 9354TIP3    H152257   6.195   2.064  10.805 -1.0406  1.9076  0.2264
 9354TIP3    H252258   6.083   2.042  10.706 -0.9757  0.3099  0.4810
 9355TIP3   OH252259   6.423   0.707  12.486 -0.4498 -0.0853  0.3810
 9355TIP3    H152260   6.377   0.626  12.507  2.2288 -1.4795  1.2860
 9355TIP3    H252261   6.471   0.687  12.406  1.7119 -0.1128  1.6172
 9356TIP3   OH252262   1.626   7.259  12.702  0.1685  0.5889 -0.4534
 9356TIP3    H152263   1.661   7.325  12.762  0.6695 -0.1170  0.0564
 9356TIP3    H252264   1.631   7.300  12.616 -0.6315  1.6451 -0.0162
 9357TIP3   OH252265   4.386   1.720  11.638  0.1641 -0.3060 -0.4828
 9357TIP3    H152266   4.412   1.670  11.716  0.7433 -2.0655 -1.7290
 9357TIP3    H252267   4.393   1.657  11.566 -1.9568  0.7922 -1.7446
 9358TIP3   OH252268   2.851   4.426  10.378 -0.1644  0.4003 -0.3160
 9358TIP3    H152269   2.900   4.366  10.433  0.9983  0.6041 -1.0854
 9358TIP3    H252270   2.803   4.370  10.317 -2.6048  0.1063  1.7387
 9359TIP3   OH252271   2.345   3.903  11.649  0.3616  0.1466 -0.1643
 9359TIP3    H152272   2.283   3.846  11.603  0.6478 -0.1692 -0.1619
 9359TIP3    H252273   2.327   3.991  11.616  0.0330  0.0289 -0.2943
 9360TIP3   OH252274   2.461   2.737  10.320 -0.2330  0.0941 -0.1242
 9360TIP3    H152275   2.400   2.668  10.345  0.8807 -0.3168  1.6884
 9360TIP3    H252276   2.467   2.731  10.225  0.3390 -2.8049  0.0087
 9361TIP3   OH252277   4.244   5.534  12.040  0.0440  0.2819 -0.4250
 9361TIP3    H152278   4.186   5.457  12.045 -0.1168  0.3574 -1.1012
 9361TIP3    H252279   4.319   5.510  12.094 -0.4080  0.0004  0.0979
 9362TIP3   OH252280   3.864   2.214  11.038  0.7155  0.4183  0.0804
 9362TIP3    H152281   3.819   2.197  10.955  0.3433  0.6411  0.2344
 9362TIP3    H252282   3.873   2.129  11.079  0.8167  0.3187 -0.1432
 9363TIP3   OH252283   4.179   5.248  12.690  0.0962  0.3549  0.1063
 9363TIP3    H152284   4.221   5.332  12.708  0.1493  0.6752 -1.3893
 9363TIP3    H252285   4.252   5.185  12.688  0.4615  0.7666 -1.5906
 9364TIP3   OH252286   3.232   4.719  12.041  0.3206 -0.2944  0.3263
 9364TIP3    H152287   3.173   4.702  12.114 -0.5452  0.0805 -0.2705
 9364TIP3    H252288   3.281   4.796  12.066 -0.0142 -0.1357  0.4934
 9365TIP3   OH252289   4.632   8.412  11.289 -0.3091  0.4123  0.7243
 9365TIP3    H152290   4.571   8.487  11.287 -0.7787  0.0228  0.2356
 9365TIP3    H252291   4.578   8.337  11.266  0.3581  0.0481  0.3316
 9366TIP3   OH252292   7.118   1.841  10.846 -0.5222 -0.7088  0.0267
 9366TIP3    H152293   7.180   1.774  10.876 -0.3221 -0.4765  0.1265
 9366TIP3    H252294   7.160   1.924  10.867 -0.2528 -0.5341 -1.1602
 9367TIP3   OH252295   4.920   2.953  11.638  0.3620 -0.1035  0.9346
 9367TIP3    H152296   4.885   2.911  11.560  0.1660 -0.5655  1.2669
 9367TIP3    H252297   4.955   2.881  11.691 -0.0381  0.1412  1.5410
 9368TIP3   OH252298   2.881   5.119  11.178  0.3977 -0.1528  0.4148
 9368TIP3    H152299   2.843   5.074  11.103  0.2869 -0.6221  0.7481
 9368TIP3    H252300   2.898   5.208  11.147  0.5964 -0.4138 -0.2433
 9369TIP3   OH252301   8.222   1.337  10.955  0.5842 -0.4168 -0.3701
 9369TIP3    H152302   8.200   1.303  10.868 -0.2145 -0.9733  0.0341
 9369TIP3    H252303   8.312   1.310  10.969  0.5535 -0.7718 -0.8210
 9370TIP3   OH252304   3.737   4.634  11.856 -0.3407 -0.6530 -0.4074
 9370TIP3    H152305   3.704   4.702  11.915  1.0386 -1.3905  1.2990
 9370TIP3    H252306   3.710   4.663  11.768  1.2771  2.7764  0.0658
 9371TIP3   OH252307   2.511   5.391  12.545  0.7844 -0.0157  0.5370
 9371TIP3    H152308   2.497   5.462  12.607  1.0061  1.2402 -0.8031
 9371TIP3    H252309   2.424   5.372  12.510  0.9988  1.1113 -0.6780
 9372TIP3   OH252310   3.945   6.597  10.988 -0.1445  0.2531 -0.0223
 9372TIP3    H152311   3.897   6.652  10.927  1.2598  0.2554 -1.1585
 9372TIP3    H252312   3.975   6.522  10.936  3.0928  1.3856 -0.0392
 9373TIP3   OH252313   4.883   2.294  12.088 -0.0570 -0.0962 -0.1488
 9373TIP3    H152314   4.978   2.303  12.080  0.3891 -1.3893  2.4155
 9373TIP3    H252315   4.851   2.384  12.094  1.1349  0.3484 -0.0620
 9374TIP3   OH252316   3.234   1.097  12.114 -0.2850  0.3201  0.3963
 9374TIP3    H152317   3.281   1.015  12.129 -0.3850  0.0963 -0.4677
 9374TIP3    H252318   3.297   1.153  12.070 -0.8651 -0.0416 -0.9248
 9375TIP3   OH252319   7.348   0.840  12.199 -0.4999  0.1741  0.3754
 9375TIP3    H152320   7.354   0.900  12.274 -0.3673 -0.7804  1.1598
 9375TIP3    H252321   7.278   0.876  12.145 -1.3475  0.3168  1.5089
 9376TIP3   OH252322   2.766   0.569  11.953  0.3439 -0.0249  0.1269
 9376TIP3    H152323   2.697   0.625  11.916 -0.3704  1.0016  2.7664
 9376TIP3    H252324   2.770   0.494  11.895 -0.8681  1.3205 -1.7998
 9377TIP3   OH252325   2.559   5.259  12.207  0.3135 -0.1038  0.0953
 9377TIP3    H152326   2.464   5.250  12.211  0.2740 -1.2231 -1.8876
 9377TIP3    H252327   2.591   5.209  12.282 -0.6338 -0.6853  0.1333
 9378TIP3   OH252328   1.874   2.397  11.256 -0.0138  0.1385 -0.4423
 9378TIP3    H152329   1.791   2.358  11.285  0.0244  0.0434 -0.4621
 9378TIP3    H252330   1.850   2.447  11.178 -0.2781  1.0834  0.2221
 9379TIP3   OH252331   6.362   3.663  11.920 -0.2151 -0.2451  0.0804
 9379TIP3    H152332   6.336   3.611  11.997  0.5297 -1.8211 -0.6962
 9379TIP3    H252333   6.438   3.618  11.885  0.2553  1.2086 -0.8432
 9380TIP3   OH252334   4.279   0.615  12.170  0.3143  0.6394 -0.3881
 9380TIP3    H152335   4.202   0.563  12.146 -1.5837  2.3763  1.5428
 9380TIP3    H252336   4.263   0.641  12.261  3.5552  0.5167  0.3290
 9381TIP3   OH252337   3.372   1.290  12.392  0.0610 -0.0046  1.0148
 9381TIP3    H152338   3.409   1.234  12.324  0.2349 -2.0107  2.6699
 9381TIP3    H252339   3.277   1.276  12.386  0.1258 -0.7367  1.6266
 9382TIP3   OH252340   2.772   5.466  10.821  0.4386 -0.5173 -1.0480
 9382TIP3    H152341   2.866   5.477  10.807  0.2388  0.8265 -1.4462
 9382TIP3    H252342   2.759   5.371  10.816  1.7981 -0.7457 -0.7538
 9383TIP3   OH252343   3.062   0.707  10.608 -0.2833  0.9605  0.5275
 9383TIP3    H152344   3.033   0.652  10.535  3.1755  0.7799 -0.9024
 9383TIP3    H252345   3.080   0.645  10.679  2.7873  0.1794 -0.8009
 9384TIP3   OH252346   6.781   4.226  11.867  0.4522 -0.7464 -0.2944
 9384TIP3    H152347   6.777   4.168  11.943 -0.7033  1.6116  1.5970
 9384TIP3    H252348   6.701   4.207  11.818  0.9056 -1.8622 -0.6308
 9385TIP3   OH252349   2.103   2.617  12.585  0.3809 -0.8323 -0.5023
 9385TIP3    H152350   2.033   2.554  12.603  0.1491 -0.0379  1.8005
 9385TIP3    H252351   2.058   2.696  12.556  0.3196 -0.4440  0.6077
 9386TIP3   OH252352   5.830   6.974  12.755  0.3370  0.2936 -0.0543
 9386TIP3    H152353   5.851   7.041  12.690 -0.6323  1.3810  0.6979
 9386TIP3    H252354   5.785   6.906  12.706  0.9705  0.3699 -0.7673
 9387TIP3   OH252355   0.951   2.081  11.108 -0.0423  0.4674  0.1057
 9387TIP3    H152356   1.017   2.136  11.066  1.1029  0.8128  2.2039
 9387TIP3    H252357   0.887   2.143  11.144 -1.2307  0.1608 -1.4011
 9388TIP3   OH252358   0.725   7.068  11.059 -0.0244  0.1583 -0.6757
 9388TIP3    H152359   0.798   7.030  11.107 -0.8211  1.4331  1.6875
 9388TIP3    H252360   0.766   7.128  10.997  0.9634 -0.1618 -0.3618
 9389TIP3   OH252361   5.865   7.513  11.850 -0.1160 -0.4310  0.3703
 9389TIP3    H152362   5.936   7.494  11.789 -0.3006 -1.1052  0.3599
 9389TIP3    H252363   5.786   7.509  11.797 -0.2193 -0.3205  0.5152
 9390TIP3   OH252364   2.220   0.860  10.828  0.0250  0.2730 -0.6993
 9390TIP3    H152365   2.187   0.949  10.819  0.8980  0.4227 -2.8589
 9390TIP3    H252366   2.313   0.866  10.807  0.1343 -1.1294 -0.7477
 9391TIP3   OH252367   2.658   2.671  11.946 -0.7792  0.1641  0.4486
 9391TIP3    H152368   2.614   2.744  11.989  1.8221  1.3324  1.3704
 9391TIP3    H252369   2.738   2.709  11.911 -0.3129 -1.8655 -0.8565
 9392TIP3   OH252370   4.807   0.579  11.428 -0.5018 -0.0058  0.3753
 9392TIP3    H152371   4.750   0.652  11.405 -0.5856 -0.8837 -2.6240
 9392TIP3    H252372   4.832   0.540  11.344  1.8182 -1.7209  1.7299
 9393TIP3   OH252373   4.003   3.355  12.696 -0.3379 -0.1720 -0.4409
 9393TIP3    H152374   3.951   3.276  12.711  0.7527 -0.7084  0.7427
 9393TIP3    H252375   3.941   3.427  12.706 -0.9122 -0.7996  0.6912
 9394TIP3   OH252376   1.833   1.112  10.653  0.4788 -0.3212  0.0353
 9394TIP3    H152377   1.896   1.131  10.583  0.1092 -2.0223 -0.8071
 9394TIP3    H252378   1.832   1.016  10.659  0.3510 -0.2291  2.2551
 9395TIP3   OH252379   6.676   1.018  10.600 -0.1550 -0.2486  0.3219
 9395TIP3    H152380   6.740   1.065  10.653 -0.6411 -0.4700  1.1159
 9395TIP3    H252381   6.676   0.929  10.636  0.6622 -0.8471 -1.0718
 9396TIP3   OH252382   3.978   7.557  12.511  0.1242 -0.8886  1.1181
 9396TIP3    H152383   4.041   7.494  12.476  0.6543 -0.0255  0.4852
 9396TIP3    H252384   4.029   7.611  12.571 -0.7464 -2.2788  3.2332
 9397TIP3   OH252385   2.208   3.035  12.288 -0.2442  0.2461 -0.0342
 9397TIP3    H152386   2.288   2.983  12.276 -0.7840 -0.5613 -0.1897
 9397TIP3    H252387   2.200   3.044  12.383 -0.0302  0.2328 -0.0143
 9398TIP3   OH252388   5.457   5.749  11.106  0.3132 -0.8663  0.0045
 9398TIP3    H152389   5.409   5.812  11.159 -1.0034 -2.1719  0.4249
 9398TIP3    H252390   5.526   5.800  11.065  0.8651  0.3426  2.3050
 9399TIP3   OH252391   6.093   2.480  10.404 -0.3962  0.5225 -0.5360
 9399TIP3    H152392   6.050   2.443  10.327 -1.5681  0.7959 -0.0518
 9399TIP3    H252393   6.138   2.406  10.445 -2.1871 -0.2913  0.0791
 9400TIP3   OH252394   7.281   5.682  11.705 -0.1937 -0.1437  0.1189
 9400TIP3    H152395   7.202   5.654  11.750  0.2612 -0.9174  0.4639
 9400TIP3    H252396   7.331   5.601  11.691 -0.0596  0.1479 -1.2874
 9401TIP3   OH252397   3.162   0.791  11.183  0.0561  0.2229  0.1406
 9401TIP3    H152398   3.227   0.735  11.225  0.1024  0.2909  0.1588
 9401TIP3    H252399   3.185   0.788  11.090  1.5534  2.1114  0.3679
 9402TIP3   OH252400   6.958   2.524  10.850 -0.0349  0.8440  0.3229
 9402TIP3    H152401   7.020   2.536  10.777 -0.7372 -1.1354 -0.6602
 9402TIP3    H252402   6.966   2.605  10.901  2.1479  1.3436 -0.6724
 9403TIP3   OH252403   2.263   7.701  11.969 -0.4191 -1.1237 -0.1633
 9403TIP3    H152404   2.347   7.655  11.978  0.9281  0.7993 -1.8012
 9403TIP3    H252405   2.279   7.786  12.012 -1.5040 -0.7105 -0.5589
 9404TIP3   OH252406   2.536   7.862  10.279  0.2613 -0.2342  0.3496
 9404TIP3    H152407   2.468   7.924  10.306 -1.4259 -2.0147  0.4493
 9404TIP3    H252408   2.516   7.782  10.328  1.0691 -1.5077 -1.2888
 9405TIP3   OH252409   4.632   2.599  12.706  0.3549  0.6375  0.2445
 9405TIP3    H152410   4.541   2.571  12.706  0.2046  1.1122  0.0468
 9405TIP3    H252411   4.630   2.689  12.740  0.8346  0.3963  0.9428
 9406TIP3   OH252412   7.215   4.447  10.916 -0.3227 -0.6107  0.1364
 9406TIP3    H152413   7.146   4.385  10.895  0.7318 -1.6674 -0.2957
 9406TIP3    H252414   7.219   4.447  11.012  0.1007 -1.6967  0.1218
 9407TIP3   OH252415   1.774   5.776  12.667  0.0872  0.1309  0.4663
 9407TIP3    H152416   1.863   5.764  12.634  0.1202 -0.6809  0.8141
 9407TIP3    H252417   1.751   5.865  12.642 -0.0356 -0.5274 -2.0694
 9408TIP3   OH252418   3.909   4.859  11.291 -0.0437  0.0277  0.6957
 9408TIP3    H152419   3.978   4.867  11.225  2.3196 -1.4932  2.8135
 9408TIP3    H252420   3.933   4.921  11.359 -0.4888 -0.8340  1.6677
 9409TIP3   OH252421   4.004   1.254  10.698  0.3646  0.2477  0.1542
 9409TIP3    H152422   4.008   1.344  10.728  1.5189 -0.1953  1.4509
 9409TIP3    H252423   3.932   1.252  10.635 -0.8278  1.6717  1.4278
 9410TIP3   OH252424   0.455   5.724  11.706  0.2151  0.0308 -0.3681
 9410TIP3    H152425   0.530   5.689  11.755  1.1070  1.3788 -0.7223
 9410TIP3    H252426   0.491   5.748  11.621 -0.6635  0.5297 -0.6116
 9411TIP3   OH252427   3.519   3.587  12.649 -0.2128  0.4463  0.1006
 9411TIP3    H152428   3.436   3.610  12.689 -0.8060  0.7564 -1.2678
 9411TIP3    H252429   3.514   3.493  12.634 -0.0915  0.3747  0.4786
 9412TIP3   OH252430   0.016   1.006  12.319 -0.0532 -0.0887 -0.0627
 9412TIP3    H152431  -0.034   1.080  12.352  2.1119  1.5599 -0.2545
 9412TIP3    H252432  -0.000   0.935  12.381  0.0781  1.4375  1.7803
 9413TIP3   OH252433   3.903   1.919  11.607 -0.6926 -0.0645 -0.4905
 9413TIP3    H152434   3.975   1.885  11.660 -0.6985  0.9467  0.1990
 9413TIP3    H252435   3.824   1.894  11.655 -0.7599 -0.3729 -0.7620
 9414TIP3   OH252436   6.960   3.013  12.045 -0.4064  0.8358  0.1150
 9414TIP3    H152437   7.055   3.022  12.038 -0.3447 -0.5539 -1.5074
 9414TIP3    H252438   6.925   3.066  11.974 -0.5367 -2.3229 -2.3822
 9415TIP3   OH252439   0.896   8.036  10.975  0.0910 -0.5328 -0.3039
 9415TIP3    H152440   0.952   8.111  10.993  1.4499 -1.5286 -0.2643
 9415TIP3    H252441   0.812   8.058  11.017  1.2767 -0.1608  2.0260
 9416TIP3   OH252442   1.035   4.146  11.218  0.1651  0.6916 -0.3796
 9416TIP3    H152443   0.998   4.222  11.173 -1.4540  1.7215  2.3791
 9416TIP3    H252444   1.080   4.183  11.294  1.4696 -0.9966 -0.2822
 9417TIP3   OH252445   3.570   7.907  10.472 -0.1005 -0.2424 -0.3103
 9417TIP3    H152446   3.476   7.912  10.490  0.0833  1.2325  0.4043
 9417TIP3    H252447   3.611   7.923  10.557  0.8065 -0.1429 -0.7603
 9418TIP3   OH252448   4.813   7.369  11.247 -0.0550 -0.3464  0.1694
 9418TIP3    H152449   4.742   7.370  11.311  1.9981  1.5351  2.6500
 9418TIP3    H252450   4.805   7.452  11.201  0.3818 -0.2296  0.2994
 9419TIP3   OH252451   6.736   4.080  12.085 -0.0412 -0.2342  0.4183
 9419TIP3    H152452   6.827   4.067  12.110 -0.1120  0.3775  1.0183
 9419TIP3    H252453   6.692   4.102  12.166 -0.4580  0.8588 -0.0934
 9420TIP3   OH252454   0.984   3.690  11.447  0.0071  0.0407 -0.2095
 9420TIP3    H152455   0.912   3.718  11.504  1.6825 -0.7443  2.4484
 9420TIP3    H252456   1.030   3.770  11.425 -1.0475  0.4293 -1.0828
 9421TIP3   OH252457   5.552   7.732  11.406 -0.3691  0.8586  0.2163
 9421TIP3    H152458   5.619   7.746  11.473 -2.1868 -0.4197  2.4044
 9421TIP3    H252459   5.554   7.638  11.389 -0.4801  1.0496 -1.0084
 9422TIP3   OH252460   0.442   7.979  12.353 -0.1394  0.5520 -0.2100
 9422TIP3    H152461   0.447   8.073  12.340  1.2143  0.6269  0.6880
 9422TIP3    H252462   0.490   7.963  12.434 -2.1823 -0.6670  0.8485
 9423TIP3   OH252463   2.174   3.847  10.906  0.0735 -0.3871  0.4608
 9423TIP3    H152464   2.209   3.918  10.852 -0.0703  0.1942  1.1095
 9423TIP3    H252465   2.094   3.882  10.944 -0.7785 -1.4180 -0.3418
 9424TIP3   OH252466   5.655   1.268  11.543 -0.0191  0.7248 -0.3005
 9424TIP3    H152467   5.650   1.272  11.448  0.0274  2.7982 -0.2627
 9424TIP3    H252468   5.584   1.325  11.574  0.5986  0.8916  0.8814
 9425TIP3   OH252469   5.244   0.835  10.946 -0.3550 -0.2401  0.1500
 9425TIP3    H152470   5.232   0.816  11.039  0.2335  1.6209  0.6255
 9425TIP3    H252471   5.200   0.919  10.932  0.2289 -0.1107 -1.0851
 9426TIP3   OH252472   5.142   0.788  11.197  0.2301  0.4846  0.4514
 9426TIP3    H152473   5.105   0.701  11.181  1.8061 -0.0698 -0.3450
 9426TIP3    H252474   5.108   0.813  11.283 -0.2524 -0.9111  0.6929
 9427TIP3   OH252475   0.898   0.516  11.851  1.0036  0.1549  0.4179
 9427TIP3    H152476   0.920   0.454  11.781  1.5491  0.8555 -0.0518
 9427TIP3    H252477   0.843   0.466  11.911  0.1494 -0.3380 -0.7402
 9428TIP3   OH252478   3.295   5.686  12.640 -0.5455  0.2618 -0.5051
 9428TIP3    H152479   3.371   5.672  12.695 -1.0388  0.4859  0.2537
 9428TIP3    H252480   3.300   5.779  12.615 -0.8798  0.4405  0.0528
 9429TIP3   OH252481   1.076   7.450  10.845 -0.1496  0.3224  0.2033
 9429TIP3    H152482   1.130   7.415  10.774  0.4558  0.9707  0.3257
 9429TIP3    H252483   1.093   7.545  10.843 -1.6143  0.5964 -0.0221
 9430TIP3   OH252484   4.964   3.695  11.215 -0.5703  0.1248 -0.7416
 9430TIP3    H152485   4.942   3.604  11.198 -1.7387  0.4416 -1.0144
 9430TIP3    H252486   4.920   3.715  11.299 -0.6373  0.5338 -0.8697
 9431TIP3   OH252487   5.081   4.426  10.642 -0.1024 -0.2500 -0.4169
 9431TIP3    H152488   5.078   4.510  10.597  0.6477 -0.1776 -0.3460
 9431TIP3    H252489   5.063   4.361  10.574 -2.3211  0.0406 -0.1728
 9432TIP3   OH252490   4.864   1.139  11.648 -0.3608 -0.7575  0.5045
 9432TIP3    H152491   4.942   1.176  11.607  0.6685 -1.2882  1.9190
 9432TIP3    H252492   4.792   1.163  11.589  0.6442  1.0839 -0.0463
 9433TIP3   OH252493   5.341   4.160  10.455  0.2151  0.5333 -0.2892
 9433TIP3    H152494   5.358   4.078  10.409  0.0537  0.1603  0.3108
 9433TIP3    H252495   5.248   4.176  10.442 -0.1547 -0.3143  1.0695
 9434TIP3   OH252496   5.250   1.534  12.156 -0.3211 -0.1260 -0.3045
 9434TIP3    H152497   5.237   1.628  12.161 -0.1315 -0.1898  2.5322
 9434TIP3    H252498   5.178   1.503  12.101 -1.2165  1.4974 -0.0958
 9435TIP3   OH252499   6.318   0.468  10.659  0.0450  0.0864  0.0207
 9435TIP3    H152500   6.237   0.481  10.708 -0.2404 -1.6366  0.0457
 9435TIP3    H252501   6.297   0.399  10.596  1.7471 -1.0718  0.6555
 9436TIP3   OH252502   5.721   2.657  12.449  0.0795  0.0242 -0.0608
 9436TIP3    H152503   5.774   2.656  12.369 -0.4664 -0.9407 -0.4254
 9436TIP3    H252504   5.657   2.587  12.436 -0.4478  0.3071  0.9367
 9437TIP3   OH252505   0.789   8.088  11.812 -0.1748  0.1040  0.9256
 9437TIP3    H152506   0.808   8.122  11.724 -3.8780  0.9586  0.2956
 9437TIP3    H252507   0.868   8.106  11.862  1.0255  2.2005 -1.4997
 9438TIP3   OH252508   2.775   3.183  12.197  0.7467 -0.1158 -0.2539
 9438TIP3    H152509   2.684   3.159  12.215  0.4324 -0.0320 -1.5948
 9438TIP3    H252510   2.802   3.235  12.273 -0.4474  0.1546  0.0037
 9439TIP3   OH252511   3.340   1.555  11.747 -0.2249  0.2872  0.2650
 9439TIP3    H152512   3.285   1.632  11.734  1.2283  1.3897  0.4304
 9439TIP3    H252513   3.386   1.572  11.829 -1.5567 -1.8232  1.5595
 9440TIP3   OH252514   2.761   4.871  12.108 -0.0930 -0.1025  0.1167
 9440TIP3    H152515   2.697   4.839  12.171 -0.8674  0.9612 -0.1026
 9440TIP3    H252516   2.835   4.902  12.161 -0.4611  0.1813  0.4687
 9441TIP3   OH252517   4.729   0.309  11.528  0.3270  0.1844  0.3460
 9441TIP3    H152518   4.762   0.247  11.593 -0.7522 -1.5961 -0.7311
 9441TIP3    H252519   4.806   0.360  11.502  1.3167 -0.9163  1.0367
 9442TIP3   OH252520   1.940   3.033  11.525 -0.2638  0.6084 -0.5655
 9442TIP3    H152521   2.034   3.050  11.526 -0.1902  0.2260  0.7384
 9442TIP3    H252522   1.902   3.110  11.483  0.6335  0.6790 -1.2775
 9443TIP3   OH252523   0.325   3.382  10.910 -0.1198 -0.5199  0.1592
 9443TIP3    H152524   0.247   3.369  10.857  0.3503  0.5102 -0.8221
 9443TIP3    H252525   0.303   3.344  10.995 -1.0409 -1.7957 -0.6318
 9444TIP3   OH252526   4.733   1.898  12.172 -0.0129 -0.0868 -0.3811
 9444TIP3    H152527   4.765   1.977  12.216 -0.0689  0.5486 -1.4498
 9444TIP3    H252528   4.665   1.864  12.230  0.2674  0.4450  0.2675
 9445TIP3   OH252529   6.389   6.662  11.448 -0.1639 -0.1706 -0.2829
 9445TIP3    H152530   6.356   6.633  11.532  0.0937  0.9682  0.2377
 9445TIP3    H252531   6.317   6.712  11.410  0.2689  0.6854 -0.0031
 9446TIP3   OH252532   1.725   7.404  17.461  0.2831  0.0315 -0.5350
 9446TIP3    H152533   1.776   7.414  17.381  1.2697  2.2904  0.3117
 9446TIP3    H252534   1.650   7.462  17.449 -0.1630 -0.4706 -0.2448
 9447TIP3   OH252535   8.278   6.125  11.377  0.2600 -0.0573 -0.0263
 9447TIP3    H152536   8.370   6.099  11.382  0.2724 -0.0487 -0.2021
 9447TIP3    H252537   8.235   6.053  11.330 -0.0240 -0.5811  0.9976
 9448TIP3   OH252538   5.039   1.614  11.440 -0.2814 -0.6840  0.2346
 9448TIP3    H152539   4.975   1.686  11.438 -0.0126 -0.4106  0.9600
 9448TIP3    H252540   5.122   1.655  11.414 -0.2819 -0.9015 -0.1083
 9449TIP3   OH252541   4.509   6.660  10.493  0.0163 -0.0019  0.2348
 9449TIP3    H152542   4.431   6.704  10.459 -0.3992 -1.6154 -0.9818
 9449TIP3    H252543   4.488   6.642  10.585 -0.6112  0.5180  0.2020
 9450TIP3   OH252544   6.677   8.072  11.462  0.4861 -0.2354 -0.0033
 9450TIP3    H152545   6.742   8.095  11.528  0.5702  2.6275 -0.9494
 9450TIP3    H252546   6.724   8.075  11.379  0.1632 -2.8642 -0.3620
 9451TIP3   OH252547   7.634   3.963  12.413 -0.1433  0.4205 -0.2994
 9451TIP3    H152548   7.694   3.938  12.483 -0.1959  0.7096 -0.1485
 9451TIP3    H252549   7.556   3.908  12.427  0.0653  0.0813 -0.4653
 9452TIP3   OH252550   5.667   7.110  11.556 -0.5642  0.5925  0.1447
 9452TIP3    H152551   5.696   7.154  11.476 -1.3059  1.1269  0.1631
 9452TIP3    H252552   5.680   7.017  11.538  0.8547  0.7837  0.0358
 9453TIP3   OH252553   1.431   5.241  11.889  0.3010  0.4870  0.0410
 9453TIP3    H152554   1.349   5.258  11.936  0.4917 -1.2359  1.1102
 9453TIP3    H252555   1.496   5.235  11.959  1.2579  1.3416 -0.7616
 9454TIP3   OH252556   7.662   7.490  11.978 -0.1306  0.5631  0.1341
 9454TIP3    H152557   7.628   7.555  11.917 -1.0468 -1.1058 -1.2068
 9454TIP3    H252558   7.594   7.423  11.984  0.7463 -0.2687  1.4982
 9455TIP3   OH252559   3.351   1.883  12.000 -0.0706 -0.0783  0.4216
 9455TIP3    H152560   3.333   1.970  11.966  0.2397 -0.4762 -0.8657
 9455TIP3    H252561   3.276   1.830  11.973  0.1801 -0.4042  0.3422
 9456TIP3   OH252562   4.088   7.273  12.583  0.0720 -0.9594 -0.7364
 9456TIP3    H152563   4.155   7.331  12.618 -0.9033  0.0692 -0.5004
 9456TIP3    H252564   4.133   7.220  12.518  1.4597 -1.4351  0.5529
 9457TIP3   OH252565   6.624   5.582  11.295 -0.4183 -0.3243 -0.4667
 9457TIP3    H152566   6.549   5.636  11.318 -1.5630 -1.4912 -1.2845
 9457TIP3    H252567   6.612   5.501  11.346  0.1262 -0.6403 -0.8219
 9458TIP3   OH252568   3.943   7.488  10.725 -0.4332 -0.0484 -0.1909
 9458TIP3    H152569   3.967   7.550  10.656  0.3756  1.5710  1.4537
 9458TIP3    H252570   4.000   7.413  10.711  0.5356  0.7454 -0.5853
 9459TIP3   OH252571   7.971   4.651  12.729  0.3962  0.0986 -0.1195
 9459TIP3    H152572   7.988   4.731  12.778  3.1299 -0.0965 -0.5988
 9459TIP3    H252573   7.985   4.675  12.637  1.3944 -0.9099 -0.2591
 9460TIP3   OH252574   3.572   6.028  11.082  0.3053  0.1332  0.1283
 9460TIP3    H152575   3.505   6.090  11.052 -0.7585 -0.7763  0.5097
 9460TIP3    H252576   3.620   6.075  11.149  0.9043  1.2483 -1.0479
 9461TIP3   OH252577   4.484   3.376  12.709  0.6959 -0.2082  0.0797
 9461TIP3    H152578   4.408   3.349  12.761 -1.2091  2.2640 -1.2102
 9461TIP3    H252579   4.522   3.449  12.759 -0.3701  1.3188 -1.2218
 9462TIP3   OH252580   3.649   6.204  11.677  0.2737  0.4392 -0.5263
 9462TIP3    H152581   3.713   6.138  11.649 -1.1498 -0.7506 -1.1213
 9462TIP3    H252582   3.617   6.242  11.595 -1.4035 -0.5966 -0.3933
 9463TIP3   OH252583   6.084   5.104  11.485  0.0820 -0.3394 -0.4366
 9463TIP3    H152584   5.992   5.080  11.476 -0.2595  0.3327  0.8774
 9463TIP3    H252585   6.102   5.091  11.578  1.1854 -0.0310 -0.5987
 9464TIP3   OH252586   8.262   7.665  12.289  0.6124  0.0323 -0.3068
 9464TIP3    H152587   8.257   7.751  12.330 -1.2033 -0.3991  0.4394
 9464TIP3    H252588   8.356   7.648  12.282  0.9921  1.5952  0.5290
 9465TIP3   OH252589   3.042   4.131  10.469  0.4438 -0.1246 -0.0090
 9465TIP3    H152590   3.123   4.115  10.517 -0.7023 -1.2798  1.6744
 9465TIP3    H252591   3.056   4.089  10.384  2.3664  1.5876 -0.6222
 9466TIP3   OH252592   4.082   8.358  12.062 -0.8568  0.0053 -0.3242
 9466TIP3    H152593   4.110   8.270  12.085  0.3353  0.3393 -0.3980
 9466TIP3    H252594   4.021   8.383  12.131  0.1281 -0.2493  0.6685
 9467TIP3   OH252595   4.081   7.232  10.695 -0.7085  0.4865 -0.4636
 9467TIP3    H152596   4.055   7.255  10.606  0.4381  0.4475 -0.8138
 9467TIP3    H252597   4.173   7.207  10.688 -0.7814 -0.1419  0.6253
 9468TIP3   OH252598   4.513   7.880  10.989  0.1516  0.4400 -0.4686
 9468TIP3    H152599   4.487   7.886  11.081  2.3645  0.0181  0.2279
 9468TIP3    H252600   4.555   7.963  10.970  0.9478 -0.0043 -0.6786
 9469TIP3   OH252601   4.958   2.675  12.117  0.6273  0.6128  0.2052
 9469TIP3    H152602   4.911   2.748  12.158  0.8706  0.1092  1.4259
 9469TIP3    H252603   4.992   2.711  12.035  0.0628  1.6336  0.4070
 9470TIP3   OH252604   5.421   8.390  11.717  0.5091  0.2635  0.1546
 9470TIP3    H152605   5.495   8.452  11.710 -0.1233  0.8819 -2.0091
 9470TIP3    H252606   5.346   8.440  11.686 -0.0076 -1.5848 -1.8205
 9471TIP3   OH252607   0.118   2.237  10.553 -0.6878  1.0643 -0.4408
 9471TIP3    H152608   0.066   2.223  10.474  0.9594  1.5837 -1.6891
 9471TIP3    H252609   0.157   2.324  10.540  1.8658 -0.0030 -0.4494
 9472TIP3   OH252610   6.623   1.431  12.668 -0.3481  0.2604  0.1820
 9472TIP3    H152611   6.660   1.513  12.637  2.9608 -1.6698 -1.4524
 9472TIP3    H252612   6.699   1.377  12.691 -2.2181 -3.0802 -0.8132
 9473TIP3   OH252613   1.375   0.236  10.311 -0.0006  0.0047 -0.1414
 9473TIP3    H152614   1.375   0.239  10.215 -0.8884  0.3332 -0.1404
 9473TIP3    H252615   1.437   0.167  10.333  1.5216  1.0702 -0.9140
 9474TIP3   OH252616   5.533   8.332  11.013 -0.2029  0.0181  0.2258
 9474TIP3    H152617   5.599   8.388  10.972 -0.2903  2.0848  2.6711
 9474TIP3    H252618   5.450   8.378  10.997 -0.3401  0.3721  1.8083
 9475TIP3   OH252619   8.313   1.303  11.824 -0.4372 -0.0192  0.2317
 9475TIP3    H152620   8.234   1.251  11.838  0.0021 -0.9504 -0.5994
 9475TIP3    H252621   8.385   1.240  11.834  0.1988  0.7886  0.8684
 9476TIP3   OH252622   5.084   6.844  11.914 -0.0132 -0.0968  0.5153
 9476TIP3    H152623   5.170   6.803  11.906 -0.6290 -1.6368  1.2974
 9476TIP3    H252624   5.100   6.937  11.906  1.5781 -0.4222 -0.5049
 9477TIP3   OH252625   5.984   5.153  10.847 -0.1570  0.1769 -0.0904
 9477TIP3    H152626   6.022   5.070  10.875  0.0204  0.7665  1.5222
 9477TIP3    H252627   5.889   5.137  10.848 -0.1290  0.0432  0.3340
 9478TIP3   OH252628   7.305   5.611  10.343  0.1045  0.3049  0.3598
 9478TIP3    H152629   7.282   5.552  10.415  0.3416 -0.9724 -0.5625
 9478TIP3    H252630   7.261   5.574  10.266  0.6038  1.0930 -0.3307
 9479TIP3   OH252631   6.832   4.725  11.883 -0.2561  0.4519  0.0205
 9479TIP3    H152632   6.741   4.723  11.852 -0.1121  1.0188 -0.4458
 9479TIP3    H252633   6.882   4.684  11.814 -0.1700  0.0179  0.3377
 9480TIP3   OH252634   1.747   7.978  11.039  0.2755 -0.6105  0.2445
 9480TIP3    H152635   1.674   7.918  11.022  0.5644 -0.7532 -0.5123
 9480TIP3    H252636   1.729   8.053  10.983  1.1176 -0.9780 -0.5321
 9481TIP3   OH252637   5.461   1.339  11.721  0.2592 -0.4884  0.0189
 9481TIP3    H152638   5.504   1.377  11.797 -1.0268  0.5381  0.2619
 9481TIP3    H252639   5.395   1.403  11.696  0.2844 -1.0573 -1.6301
 9482TIP3   OH252640   4.533   5.261  12.851  0.2098 -0.2093 -0.3900
 9482TIP3    H152641   4.477   5.339  12.845  0.6581  0.2733  1.2783
 9482TIP3    H252642   4.477   5.189  12.823 -1.1223  0.3319  0.7703
 9483TIP3   OH252643   7.383   2.282  11.550  0.9231  0.1127 -0.2674
 9483TIP3    H152644   7.384   2.202  11.499 -0.5093  0.5317 -1.0202
 9483TIP3    H252645   7.341   2.258  11.633  0.9047 -0.0108 -0.3141
 9484TIP3   OH252646   7.853   7.129  11.359  0.0056 -0.2261 -0.4013
 9484TIP3    H152647   7.819   7.043  11.386 -0.6965 -0.1021 -0.8571
 9484TIP3    H252648   7.864   7.121  11.264  0.9490 -0.1462 -0.3108
 9485TIP3   OH252649   6.582   5.383  10.581 -0.2666 -0.3079 -0.5009
 9485TIP3    H152650   6.541   5.417  10.661 -0.9527 -0.3729 -0.8098
 9485TIP3    H252651   6.535   5.301  10.563  0.3144 -0.6163 -0.6216
 9486TIP3   OH252652   4.584   7.299  12.204  0.7187  0.4933  0.2673
 9486TIP3    H152653   4.528   7.237  12.156  1.0636  0.9174 -0.7178
 9486TIP3    H252654   4.590   7.263  12.292 -0.3733 -0.0381  0.1437
 9487TIP3   OH252655   8.255   4.521  12.452 -0.7212 -0.1063  0.0543
 9487TIP3    H152656   8.168   4.561  12.455 -0.1809  1.0813  0.8626
 9487TIP3    H252657   8.313   4.593  12.426  0.1223 -0.6747  0.3197
 9488TIP3   OH252658   2.977   7.950  10.175  0.0721  0.0597 -0.0862
 9488TIP3    H152659   3.021   7.925  10.256  0.5697 -0.8481 -0.6141
 9488TIP3    H252660   2.901   7.892  10.170 -1.3459  1.7552  0.9187
 9489TIP3   OH252661   0.334   5.070  10.573 -0.5803  0.7437 -0.2861
 9489TIP3    H152662   0.411   5.124  10.592 -0.0847 -0.7907  2.7647
 9489TIP3    H252663   0.267   5.132  10.546  1.3711  2.2422 -2.0415
 9490TIP3   OH252664   6.086   5.947  11.467  0.3242 -0.2275  0.0669
 9490TIP3    H152665   6.055   6.034  11.493  0.1351 -0.2981  0.0859
 9490TIP3    H252666   6.154   5.963  11.402  2.0498  0.0207  1.8556
 9491TIP3   OH252667   4.452   0.617  13.011 -0.0664  0.1342 -0.0671
 9491TIP3    H152668   4.477   0.556  13.080  5.5440  1.0407 -0.8529
 9491TIP3    H252669   4.461   0.567  12.930  2.5892  1.2456 -0.5737
 9492TIP3   OH252670   3.963   4.342  12.300  0.1275  0.1062 -0.5252
 9492TIP3    H152671   3.897   4.353  12.368 -0.7404  2.5198 -1.6495
 9492TIP3    H252672   4.040   4.389  12.333  0.0272  0.4756 -0.8247
 9493TIP3   OH252673   5.449   4.767  10.852  0.2510 -0.0258 -0.2715
 9493TIP3    H152674   5.435   4.775  10.758 -0.2449 -0.4625 -0.2386
 9493TIP3    H252675   5.544   4.760  10.862  0.3174  0.2334 -0.7196
 9494TIP3   OH252676   6.687   2.446  10.915  0.5005 -0.0596  0.0051
 9494TIP3    H152677   6.686   2.354  10.941 -1.5281  0.2566  1.2265
 9494TIP3    H252678   6.779   2.464  10.896  1.0645 -2.1087  0.5357
 9495TIP3   OH252679   8.094   7.842  12.117  0.4444  0.0461  0.2053
 9495TIP3    H152680   8.146   7.767  12.144  0.9690  0.4589  0.3626
 9495TIP3    H252681   8.011   7.832  12.165 -0.6637 -1.9603 -1.9452
 9496TIP3   OH252682   6.791   7.070  10.465  0.3409 -0.4159  0.0489
 9496TIP3    H152683   6.770   7.028  10.381  0.8813  1.5749 -1.1623
 9496TIP3    H252684   6.875   7.031  10.490  1.1130  0.2552 -1.3288
 9497TIP3   OH252685   7.962   4.956  11.030 -0.0311  0.4895  0.7351
 9497TIP3    H152686   7.940   4.988  10.943  0.5887  0.5294  0.5919
 9497TIP3    H252687   7.900   5.000  11.088 -0.2536  0.6877  0.3532
 9498TIP3   OH252688   3.220   1.072  12.995  0.7556  0.1028  0.7431
 9498TIP3    H152689   3.214   1.015  12.919 -1.0727  1.3728 -0.1073
 9498TIP3    H252690   3.244   1.013  13.067 -1.0148 -1.7446 -0.1016
 9499TIP3   OH252691   2.622   2.277  11.398  0.3554 -0.4967 -0.3818
 9499TIP3    H152692   2.660   2.255  11.312 -0.2392 -0.6527 -0.6109
 9499TIP3    H252693   2.682   2.238  11.461  0.6428 -0.6393 -0.7372
 9500TIP3   OH252694   0.206   1.507  11.740  0.1782 -0.3036 -0.4732
 9500TIP3    H152695   0.241   1.595  11.736  0.5407 -0.4517 -0.5885
 9500TIP3    H252696   0.187   1.485  11.649 -0.3294 -0.1804 -0.4011
 9501TIP3   OH252697   4.118   1.838  11.778  0.0392  0.3046  0.1512
 9501TIP3    H152698   4.203   1.833  11.734  0.4306 -0.7053  0.9477
 9501TIP3    H252699   4.134   1.797  11.863 -1.7099 -1.7021 -0.4108
 9502TIP3   OH252700   8.421   5.750  12.512 -0.2221 -0.4781 -0.0952
 9502TIP3    H152701   8.516   5.740  12.509 -0.1967 -0.7852 -4.2990
 9502TIP3    H252702   8.388   5.662  12.528  0.1680 -0.4401  0.9611
 9503TIP3   OH252703   6.722   1.724  10.722  0.0753  0.3340 -0.0711
 9503TIP3    H152704   6.778   1.790  10.681  0.3232  0.5335  0.5764
 9503TIP3    H252705   6.783   1.655  10.749  0.2608  1.2618  2.0640
 9504TIP3   OH252706   0.845   3.996  11.325  0.2967 -0.2314 -0.3483
 9504TIP3    H152707   0.923   4.017  11.275 -0.1403  0.5096 -0.7283
 9504TIP3    H252708   0.804   4.081  11.342 -0.3355 -0.6003 -0.0067
 9505TIP3   OH252709   5.588   7.448  11.371  0.2867  0.0351 -0.3954
 9505TIP3    H152710   5.495   7.424  11.367  0.2386  0.1371  0.0141
 9505TIP3    H252711   5.634   7.371  11.336  0.1398 -0.7075  0.9431
 9506TIP3   OH252712   6.469   2.491  11.353 -0.7689  0.3979 -0.2211
 9506TIP3    H152713   6.445   2.511  11.262 -2.4743  1.4970  0.4225
 9506TIP3    H252714   6.488   2.576  11.392 -0.7262  0.0105  0.6225
 9507TIP3   OH252715   3.021   1.992  10.473 -0.1801 -0.0182 -0.3735
 9507TIP3    H152716   3.110   1.968  10.446  0.0608  0.8869 -0.4361
 9507TIP3    H252717   2.964   1.956  10.406  0.2855  0.8796 -1.2710
 9508TIP3   OH252718   6.089   6.234  12.270  0.0439  0.2775  0.2421
 9508TIP3    H152719   6.100   6.259  12.362 -0.6274 -1.5052  0.8446
 9508TIP3    H252720   5.994   6.238  12.255  0.1467  0.5396 -0.3814
 9509TIP3   OH252721   3.666   3.819  11.068 -0.0533 -0.0707  0.2300
 9509TIP3    H152722   3.686   3.745  11.011 -0.1773  0.5638 -0.6579
 9509TIP3    H252723   3.733   3.884  11.048 -0.4255  0.3766  0.4150
 9510TIP3   OH252724   0.881   1.975  10.568  0.1491  0.4429  0.0290
 9510TIP3    H152725   0.794   1.944  10.544 -0.2075  0.9771  0.5864
 9510TIP3    H252726   0.879   1.981  10.664  0.1153  2.3686 -0.0401
 9511TIP3   OH252727   7.398   2.873  10.566  0.6729 -0.4117 -0.2409
 9511TIP3    H152728   7.450   2.895  10.489  0.6898  0.0193 -0.1075
 9511TIP3    H252729   7.431   2.787  10.594  1.0823 -0.2908 -0.3514
 9512TIP3   OH252730   1.725   2.336  12.032  0.3520 -0.5558  0.3259
 9512TIP3    H152731   1.751   2.429  12.031 -0.8670 -0.1853  1.0669
 9512TIP3    H252732   1.658   2.331  12.100  1.9323 -2.4118  1.8759
 9513TIP3   OH252733   1.306   3.094  10.548 -0.0435 -0.3355 -0.0729
 9513TIP3    H152734   1.324   3.161  10.613 -0.7865 -0.1315 -0.0717
 9513TIP3    H252735   1.237   3.131  10.492  2.2690  0.5474 -2.5741
 9514TIP3   OH252736   1.278   7.448  10.592  0.6633  0.3349 -0.0095
 9514TIP3    H152737   1.318   7.534  10.584  1.4756 -0.0337  0.0050
 9514TIP3    H252738   1.352   7.387  10.595  0.0718 -0.4975 -1.4947
 9515TIP3   OH252739   0.872   4.519  11.414 -0.1681  0.3518  0.3480
 9515TIP3    H152740   0.948   4.529  11.471  2.8664 -1.0527 -3.0574
 9515TIP3    H252741   0.872   4.598  11.359 -0.5885 -0.0552 -0.2601
 9516TIP3   OH252742   2.236   2.032  10.292  0.2429  0.0681 -0.7172
 9516TIP3    H152743   2.205   1.977  10.220  1.3071 -1.4062 -0.1248
 9516TIP3    H252744   2.324   2.058  10.265  0.7852 -0.7796  0.1543
 9517TIP3   OH252745   5.534   4.593  11.686 -0.1165  0.0478  0.2017
 9517TIP3    H152746   5.496   4.663  11.739 -0.2893 -1.0006  1.5032
 9517TIP3    H252747   5.534   4.628  11.597 -0.2364  1.6788  0.8076
 9518TIP3   OH252748   1.098   7.680  10.707 -0.3563  0.3113 -0.0091
 9518TIP3    H152749   1.070   7.771  10.719 -3.1316 -0.3802 -0.5069
 9518TIP3    H252750   1.108   7.670  10.612 -0.2270  0.0522  0.0300
 9519TIP3   OH252751   5.476   5.510  12.322  0.4227 -0.3041  0.1789
 9519TIP3    H152752   5.518   5.589  12.289 -1.3921  1.2185  1.3011
 9519TIP3    H252753   5.494   5.510  12.416 -0.1872 -0.8306  0.3102
 9520TIP3   OH252754   5.105   4.896  10.518 -0.0483 -0.0563  0.4330
 9520TIP3    H152755   5.188   4.926  10.481  0.0050 -0.2646  0.3793
 9520TIP3    H252756   5.040   4.960  10.489 -0.1381 -0.6251 -0.6603
 9521TIP3   OH252757   1.966   6.968  12.729  0.2404  0.0940 -0.0874
 9521TIP3    H152758   1.983   7.063  12.727 -1.0052  0.3313 -1.3666
 9521TIP3    H252759   2.041   6.930  12.684  0.8522  0.4398  0.6112
 9522TIP3   OH252760   0.242   0.343  11.568  0.1119  0.3115 -0.6460
 9522TIP3    H152761   0.280   0.326  11.482 -1.1373  1.3794 -1.4536
 9522TIP3    H252762   0.161   0.290  11.568 -0.1853  0.7639 -0.3645
 9523TIP3   OH252763   7.457   1.500  10.650  0.9132  0.1968 -0.4735
 9523TIP3    H152764   7.377   1.476  10.696  1.5759  2.3008  2.0223
 9523TIP3    H252765   7.446   1.593  10.630  2.4870  0.3649 -0.6622
 9524TIP3   OH252766   4.844   6.663  12.215 -0.0097  0.2238 -0.3541
 9524TIP3    H152767   4.752   6.669  12.242  0.5632  2.5832  1.4116
 9524TIP3    H252768   4.878   6.588  12.263 -0.7477 -0.0192 -0.1902
 9525TIP3   OH252769   2.303   8.139  11.762  0.2616 -0.3633 -0.0098
 9525TIP3    H152770   2.364   8.142  11.835  1.9349 -0.1696 -1.3566
 9525TIP3    H252771   2.302   8.047  11.735  0.2080 -0.3093 -0.1986
 9526TIP3   OH252772   2.108   6.363  11.286 -0.3086 -0.0506  0.3478
 9526TIP3    H152773   2.154   6.408  11.215 -1.9776  0.1672 -0.6484
 9526TIP3    H252774   2.143   6.274  11.286  0.7296  0.3417  0.2226
 9527TIP3   OH252775   8.049   4.261  10.644 -0.2918 -0.2130 -0.3311
 9527TIP3    H152776   7.964   4.239  10.683 -0.2676 -1.9636 -1.1637
 9527TIP3    H252777   8.078   4.338  10.692 -1.5870 -0.5644  1.1030
 9528TIP3   OH252778   7.646   6.917  11.332 -0.0994  0.4033 -0.2237
 9528TIP3    H152779   7.725   6.865  11.322 -1.2321 -1.1533 -1.6749
 9528TIP3    H252780   7.607   6.886  11.414 -0.7339 -1.0552 -1.0482
 9529TIP3   OH252781   0.969   5.109  10.697 -0.3407 -0.2965 -0.3376
 9529TIP3    H152782   0.918   5.036  10.662  1.4833 -0.8408 -1.9989
 9529TIP3    H252783   1.049   5.069  10.729  0.9889  1.0178 -1.8809
 9530TIP3   OH252784   1.893   2.305  11.607 -0.6307 -0.2997  0.0215
 9530TIP3    H152785   1.856   2.251  11.677 -3.1563  0.0794 -0.8864
 9530TIP3    H252786   1.831   2.377  11.598 -0.9325 -0.8012 -3.1274
 9531TIP3   OH252787   4.407   6.715  12.698 -0.3341 -0.3915  0.0454
 9531TIP3    H152788   4.454   6.790  12.734 -1.0451 -0.5898  1.4677
 9531TIP3    H252789   4.324   6.750  12.668 -0.4237 -0.5005  0.1630
 9532TIP3   OH252790   2.130   3.546  12.325  0.7022  0.5640 -0.3537
 9532TIP3    H152791   2.183   3.623  12.308  1.7306 -0.2737 -1.0965
 9532TIP3    H252792   2.156   3.483  12.258 -0.4292 -0.2797 -0.0417
 9533TIP3   OH252793   1.826   7.666  12.195 -0.3379  0.1763  0.1030
 9533TIP3    H152794   1.886   7.592  12.208 -0.8925 -0.5540 -1.2247
 9533TIP3    H252795   1.739   7.629  12.213 -0.7119  0.2079 -1.4836
 9534TIP3   OH252796   3.195   1.678  10.289  0.1050 -0.1731  0.5375
 9534TIP3    H152797   3.210   1.768  10.316  1.3490 -0.3851  0.5922
 9534TIP3    H252798   3.222   1.625  10.364 -2.7664 -0.5662  1.4221
 9535TIP3   OH252799   3.178   5.411  11.775  0.9423 -1.1409  0.4079
 9535TIP3    H152800   3.114   5.414  11.703  0.1068  1.7809  1.1229
 9535TIP3    H252801   3.263   5.406  11.732  0.3690 -3.0262 -0.6185
 9536TIP3   OH252802   2.685   4.952  10.510  0.4681  0.0101  0.9576
 9536TIP3    H152803   2.688   5.047  10.524  0.5315  0.0994  0.3664
 9536TIP3    H252804   2.719   4.940  10.421 -2.6007 -0.2588 -0.3037
 9537TIP3   OH252805   5.948   4.591  10.370 -0.4391 -0.0173  0.1536
 9537TIP3    H152806   6.004   4.530  10.419 -1.1319 -0.6173  0.2257
 9537TIP3    H252807   5.879   4.535  10.333 -0.3208  0.5320 -0.9326
 9538TIP3   OH252808   6.218   3.117  11.499  0.5259  0.1228  0.0005
 9538TIP3    H152809   6.159   3.176  11.453  1.4170  0.8182 -0.2702
 9538TIP3    H252810   6.167   3.037  11.510 -0.0096  0.2339 -1.4261
 9539TIP3   OH252811   5.989   2.538  11.469  0.8928 -1.0179  0.4255
 9539TIP3    H152812   5.903   2.497  11.462 -0.4841  1.8382 -0.4448
 9539TIP3    H252813   6.017   2.518  11.559 -1.8137  0.0400  1.6107
 9540TIP3   OH252814   3.465   0.809  10.992  0.2897 -0.2534  0.3097
 9540TIP3    H152815   3.523   0.737  10.967  0.0972 -0.9937  1.8404
 9540TIP3    H252816   3.470   0.811  11.088  0.9558  2.3583  0.2915
 9541TIP3   OH252817   2.312   4.914  10.607  0.5000 -0.1114 -0.4056
 9541TIP3    H152818   2.369   4.989  10.591  0.2856 -0.1135 -1.2301
 9541TIP3    H252819   2.238   4.927  10.547  0.5651 -1.0821 -0.7131
 9542TIP3   OH252820   0.588   5.239  11.053  0.0835  0.1339  0.4357
 9542TIP3    H152821   0.653   5.222  10.985  0.3092 -1.4377  0.9911
 9542TIP3    H252822   0.504   5.241  11.007  0.3853  0.6690 -0.0882
 9543TIP3   OH252823   1.632   5.856  10.650 -0.2844  0.3882  0.1162
 9543TIP3    H152824   1.711   5.856  10.596 -0.2487 -0.5465  0.1463
 9543TIP3    H252825   1.664   5.863  10.740 -0.2150 -0.1934  0.1419
 9544TIP3   OH252826   6.884   5.382  11.466 -0.1846 -0.1535  0.0616
 9544TIP3    H152827   6.849   5.342  11.546  0.6221 -0.5523  0.2325
 9544TIP3    H252828   6.814   5.372  11.401 -1.5290  1.6807  1.1411
 9545TIP3   OH252829   4.936   6.907  12.155 -0.2815  0.4528 -0.6673
 9545TIP3    H152830   4.999   6.884  12.087  0.4012 -0.6618  0.3017
 9545TIP3    H252831   4.879   6.831  12.162  1.3043 -0.6376  1.7990
 9546TIP3   OH252832   4.576   7.694  12.020  0.1023 -0.0764  0.2070
 9546TIP3    H152833   4.586   7.706  12.115 -1.1077 -1.8223  0.5998
 9546TIP3    H252834   4.647   7.635  11.995  0.6364  0.6637 -0.0636
 9547TIP3   OH252835   5.317   3.442  12.485  0.0976  0.0248  0.1322
 9547TIP3    H152836   5.355   3.373  12.540  0.0457  2.4069  3.4407
 9547TIP3    H252837   5.382   3.512  12.486 -0.7936  0.9101 -1.2271
 9548TIP3   OH252838   6.502   0.917  10.241  0.4552 -0.0574 -0.1785
 9548TIP3    H152839   6.427   0.859  10.253  0.7833 -0.5949 -0.6749
 9548TIP3    H252840   6.505   0.934  10.147  1.8599 -1.2984 -0.3989
 9549TIP3   OH252841   4.588   2.265  12.536 -0.2728 -0.1801 -0.1875
 9549TIP3    H152842   4.580   2.277  12.631  0.7679 -0.8299  0.0002
 9549TIP3    H252843   4.673   2.222  12.524  0.0254  0.6991 -1.4871
 9550TIP3   OH252844   5.053   6.562  11.960 -0.4453  0.1658  0.0389
 9550TIP3    H152845   5.065   6.641  12.014  0.2463  0.1980 -0.1549
 9550TIP3    H252846   5.085   6.587  11.874 -2.0674  0.2943 -0.5653
 9551TIP3   OH252847   7.199   2.837  11.316 -0.3521 -0.2589 -0.3678
 9551TIP3    H152848   7.133   2.769  11.321  2.4092 -3.1442  0.5474
 9551TIP3    H252849   7.189   2.876  11.229 -1.7275 -2.2234 -1.1364
 9552TIP3   OH252850   4.111   2.364  11.537 -0.5056 -0.3893 -0.4408
 9552TIP3    H152851   4.127   2.270  11.531  2.0928 -0.0658  0.1971
 9552TIP3    H252852   4.180   2.396  11.595 -1.1902  1.9512 -0.8229
 9553TIP3   OH252853   7.371   6.681  11.984  0.2944 -0.3516 -0.2834
 9553TIP3    H152854   7.377   6.663  12.078 -3.0596  1.3687  0.4123
 9553TIP3    H252855   7.425   6.758  11.970  1.4902 -1.1151  0.0377
 9554TIP3   OH252856   3.204   0.912  12.755 -0.4842 -0.5058  0.2524
 9554TIP3    H152857   3.133   0.903  12.691 -1.3696  0.2500  1.0819
 9554TIP3    H252858   3.283   0.889  12.707 -1.1176  0.0526 -1.1270
 9555TIP3   OH252859   0.818   5.701  11.667  0.1724 -0.0780  0.5257
 9555TIP3    H152860   0.866   5.626  11.631  1.5866  2.2412 -2.8864
 9555TIP3    H252861   0.886   5.756  11.706 -0.5965  0.3501  1.2753
 9556TIP3   OH252862   6.849   7.485  12.151 -0.2121 -0.7516  0.0804
 9556TIP3    H152863   6.837   7.506  12.244 -1.5055 -2.6639  0.4056
 9556TIP3    H252864   6.762   7.455  12.123  0.0927  0.0554 -1.8390
 9557TIP3   OH252865   1.611   2.058  11.164 -0.7192  0.1709  0.7900
 9557TIP3    H152866   1.561   2.106  11.230 -1.6636  0.4632 -0.1264
 9557TIP3    H252867   1.599   2.107  11.083 -0.1941 -0.6059  0.2226
 9558TIP3   OH252868   5.440   7.796  10.387 -0.6467 -0.0896  0.4516
 9558TIP3    H152869   5.464   7.887  10.407 -1.4880  0.3798 -0.5414
 9558TIP3    H252870   5.349   7.802  10.356 -0.6363 -1.2473  0.1634
 9559TIP3   OH252871   2.979   0.981  10.630 -0.2128 -0.3459  0.0505
 9559TIP3    H152872   3.038   0.913  10.595 -1.2372 -1.5330  0.5646
 9559TIP3    H252873   2.999   1.059  10.578  0.1217 -1.3732 -1.4258
 9560TIP3   OH252874   4.910   0.646  10.682 -0.8105 -0.1658 -0.3404
 9560TIP3    H152875   4.862   0.714  10.730 -2.1250 -1.2895 -0.0036
 9560TIP3    H252876   4.867   0.643  10.596  0.3440  0.5649 -0.9705
 9561TIP3   OH252877   2.199   5.881  11.551  0.3403  0.4340  0.2734
 9561TIP3    H152878   2.144   5.817  11.597 -0.1346  0.2941 -0.4666
 9561TIP3    H252879   2.217   5.948  11.617 -0.2350  0.1881  0.6942
 9562TIP3   OH252880   1.941   5.258  11.319  0.3010  0.0657  0.2252
 9562TIP3    H152881   2.028   5.261  11.359  0.4158 -2.5372  0.3647
 9562TIP3    H252882   1.881   5.278  11.390  0.6826 -0.7801  0.8005
 9563TIP3   OH252883   2.915   2.867  11.199  0.6358  0.2496 -0.4452
 9563TIP3    H152884   2.857   2.935  11.165  0.4208  0.5567  0.5207
 9563TIP3    H252885   2.931   2.892  11.290  1.2639 -0.5181 -0.3354
 9564TIP3   OH252886   5.961   2.680  11.734 -0.0055  0.0800 -0.1564
 9564TIP3    H152887   5.925   2.678  11.823 -1.0257 -0.3026 -0.5600
 9564TIP3    H252888   5.896   2.729  11.684 -0.5036 -1.5103 -1.1291
 9565TIP3   OH252889   4.157   1.825  12.711 -0.0238 -0.3103  0.2501
 9565TIP3    H152890   4.172   1.795  12.622 -1.1441 -0.3944  0.0820
 9565TIP3    H252891   4.160   1.745  12.764  0.1828 -0.3181  0.2263
 9566TIP3   OH252892   3.046   3.535  10.506  0.1816 -0.6034  0.6649
 9566TIP3    H152893   3.141   3.527  10.504  0.1460 -1.1960  1.1051
 9566TIP3    H252894   3.025   3.588  10.429  0.7709 -1.4990 -0.1309
 9567TIP3   OH252895   3.720   2.454  11.162  0.0453  0.0974 -0.0755
 9567TIP3    H152896   3.735   2.493  11.076  0.2074 -1.7196 -0.9087
 9567TIP3    H252897   3.640   2.403  11.152  1.3311 -2.0905  0.0825
 9568TIP3   OH252898   5.650   5.858  10.440 -0.1419  0.3936  0.1100
 9568TIP3    H152899   5.717   5.874  10.374 -2.5328  2.6312 -1.9881
 9568TIP3    H252900   5.657   5.932  10.501 -0.3011  0.3027  0.2410
 9569TIP3   OH252901   7.366   4.538  10.647 -0.3029 -0.0595 -0.0159
 9569TIP3    H152902   7.298   4.482  10.607  0.3895 -0.9870  0.0672
 9569TIP3    H252903   7.433   4.476  10.677  1.1373  0.8986 -1.1346
 9570TIP3   OH252904   7.393   2.303  10.615 -0.9194 -0.5174 -0.5036
 9570TIP3    H152905   7.443   2.312  10.697  0.3087 -0.1245 -1.2649
 9570TIP3    H252906   7.313   2.353  10.630  0.0168  0.9258 -0.0929
 9571TIP3   OH252907   1.404   5.244  11.542  0.0157  0.6454  0.1189
 9571TIP3    H152908   1.343   5.190  11.592  1.9434 -1.2762  0.5226
 9571TIP3    H252909   1.434   5.310  11.605 -0.5198  0.6948  0.3317
 9572TIP3   OH252910   2.180   7.872  11.226 -0.2773  0.4059 -0.0108
 9572TIP3    H152911   2.234   7.924  11.167  0.9223  0.2699  0.9362
 9572TIP3    H252912   2.130   7.814  11.168  0.9217  0.2254 -0.8953
 9573TIP3   OH252913   7.283   5.385  11.363 -0.1215 -0.2905 -0.1460
 9573TIP3    H152914   7.370   5.391  11.325  0.1522 -2.6877 -0.0401
 9573TIP3    H252915   7.299   5.366  11.456 -0.8018  2.7227  0.7125
 9574TIP3   OH252916   2.091   8.259  11.105 -0.0531  0.2274 -0.2646
 9574TIP3    H152917   2.097   8.346  11.065  3.1717  0.7140  0.9682
 9574TIP3    H252918   2.036   8.272  11.183  1.9234  1.7010  0.9662
 9575TIP3   OH252919   8.103   3.475  11.655 -0.3943 -0.1064 -0.1077
 9575TIP3    H152920   8.063   3.547  11.607 -1.0039 -1.0433 -1.0481
 9575TIP3    H252921   8.056   3.472  11.738  0.8826  1.7357  0.7431
 9576TIP3   OH252922   1.379   0.809  11.981  0.7357 -0.4489  0.1591
 9576TIP3    H152923   1.411   0.719  11.973  0.0662 -0.8097  1.2817
 9576TIP3    H252924   1.329   0.810  12.063 -2.5152 -0.0438 -1.6368
 9577TIP3   OH252925   1.160   0.689  11.766 -0.1990  0.1172 -0.3728
 9577TIP3    H152926   1.201   0.654  11.845 -0.1319 -0.7759 -0.7872
 9577TIP3    H252927   1.112   0.615  11.729  0.2934  0.3332 -1.5086
 9578TIP3   OH252928   5.575   2.546  11.577 -0.1533 -0.4167 -0.0833
 9578TIP3    H152929   5.655   2.494  11.571 -0.0590 -0.1734 -1.2667
 9578TIP3    H252930   5.605   2.637  11.578 -0.3131 -0.3548  2.0014
 9579TIP3   OH252931   3.158   4.725  12.294 -0.0831  0.4986 -0.0772
 9579TIP3    H152932   3.219   4.687  12.356  0.1715  1.1649  0.0936
 9579TIP3    H252933   3.071   4.698  12.324  0.0949  0.0203  0.0055
 9580TIP3   OH252934   4.192   8.202  11.372 -0.8049 -0.3380 -0.3953
 9580TIP3    H152935   4.252   8.135  11.405 -0.6958  0.5235  1.2578
 9580TIP3    H252936   4.151   8.161  11.296  2.1601 -0.8161 -1.9132
 9581TIP3   OH252937   7.060   5.006  12.361  0.5676  0.4192  0.0725
 9581TIP3    H152938   7.103   5.048  12.287  2.6699  1.5378  1.8209
 9581TIP3    H252939   7.011   5.076  12.404 -0.5204 -0.1935 -0.1193
 9582TIP3   OH252940   1.518   2.188  11.510 -0.7266  0.4980 -0.0473
 9582TIP3    H152941   1.558   2.241  11.440 -0.8358 -0.3639 -0.7798
 9582TIP3    H252942   1.428   2.218  11.513 -0.3315  1.6508  0.8298
 9583TIP3   OH252943   7.640   5.330  11.779  0.1627 -0.1748 -0.2487
 9583TIP3    H152944   7.698   5.345  11.854  0.0465  0.1314 -0.2177
 9583TIP3    H252945   7.672   5.249  11.740  1.6574  0.8174 -1.1904
 9584TIP3   OH252946   1.072   5.616  12.402 -0.0447 -0.1902 -0.0766
 9584TIP3    H152947   1.151   5.643  12.356 -0.5116 -0.0178 -0.8022
 9584TIP3    H252948   1.099   5.542  12.457  0.7006  0.1448  0.0077
 9585TIP3   OH252949   1.234   4.639  11.236  0.1678  0.2225 -0.2028
 9585TIP3    H152950   1.189   4.658  11.318  0.2688  0.6031 -0.2366
 9585TIP3    H252951   1.314   4.691  11.239 -0.4002  1.1828 -1.0729
 9586TIP3   OH252952   2.860   4.610  11.558  0.5005  0.1057  0.5200
 9586TIP3    H152953   2.846   4.692  11.606  0.2124  0.6747 -0.5086
 9586TIP3    H252954   2.954   4.609  11.540  0.3517  0.7118 -0.3283
 9587TIP3   OH252955   7.747   4.704  12.183 -0.2317 -0.2951 -0.3418
 9587TIP3    H152956   7.773   4.707  12.091 -1.7398 -0.7638 -0.8174
 9587TIP3    H252957   7.791   4.627  12.218  0.3578 -0.1101 -0.6681
 9588TIP3   OH252958   5.202   2.426  12.094 -0.1542 -0.5333 -0.8300
 9588TIP3    H152959   5.204   2.378  12.177 -0.7187 -0.1856 -0.6110
 9588TIP3    H252960   5.249   2.369  12.033 -1.1028 -1.5389 -0.6576
 9589TIP3   OH252961   1.504   2.718  10.627  0.0578  0.3509 -0.0069
 9589TIP3    H152962   1.596   2.702  10.648  0.7895  2.1853 -1.5002
 9589TIP3    H252963   1.506   2.758  10.540 -2.0390  1.8284  0.5455
 9590TIP3   OH252964   6.922   4.198  11.426  0.3919 -0.2923 -0.0246
 9590TIP3    H152965   7.007   4.159  11.445  0.3991 -0.2060  0.1282
 9590TIP3    H252966   6.939   4.292  11.421 -0.1255  0.0650  2.8313
 9591TIP3   OH252967   2.195   2.848  11.724  0.4672  0.2726 -0.0131
 9591TIP3    H152968   2.274   2.872  11.676  0.0793  0.2297 -0.6953
 9591TIP3    H252969   2.125   2.898  11.680 -0.2265 -1.3706 -0.8798
 9592TIP3   OH252970   3.444   6.719  11.974  0.3945 -0.6100 -0.2343
 9592TIP3    H152971   3.383   6.667  12.026 -0.1183 -1.8760 -1.9991
 9592TIP3    H252972   3.443   6.806  12.015  0.6330 -1.7249  2.2988
 9593TIP3   OH252973   1.360   6.663  11.600  0.1842 -0.3165 -0.1455
 9593TIP3    H152974   1.369   6.703  11.513 -0.2998  1.9567  0.7697
 9593TIP3    H252975   1.309   6.583  11.584 -0.5526  0.4369 -1.8724
 9594TIP3   OH252976   5.159   7.479  12.264  0.1189  0.1031 -0.0682
 9594TIP3    H152977   5.204   7.401  12.232 -1.3923 -0.4405 -0.9719
 9594TIP3    H252978   5.176   7.479  12.358  1.8847 -0.1160 -0.3413
 9595TIP3   OH252979   0.294   2.274  16.535  0.0305 -0.0484 -0.0950
 9595TIP3    H152980   0.233   2.216  16.489 -1.9012  1.6176  0.2409
 9595TIP3    H252981   0.378   2.260  16.491 -1.1582 -0.4733 -2.3759
 9596TIP3   OH252982   3.583   0.048  10.913 -0.0808 -0.0337 -0.1453
 9596TIP3    H152983   3.584  -0.030  10.858  0.8045 -1.6310  2.0284
 9596TIP3    H252984   3.658   0.038  10.971  0.4740  2.7949 -0.2092
 9597TIP3   OH252985   5.566   2.970  11.977 -0.7303 -0.0087  0.3568
 9597TIP3    H152986   5.576   2.875  11.964 -1.9347 -0.1705  0.5002
 9597TIP3    H252987   5.563   3.005  11.888 -3.7722 -0.5397  0.1359
 9598TIP3   OH252988   1.252   1.476  12.389  0.1880  0.6331  0.1001
 9598TIP3    H152989   1.330   1.426  12.367 -0.6072 -0.4149 -0.4510
 9598TIP3    H252990   1.228   1.521  12.307 -0.9005 -0.6459 -0.3174
 9599TIP3   OH252991   3.993   6.352  10.897  0.0281 -0.1518 -0.3905
 9599TIP3    H152992   4.070   6.341  10.952  0.8416  0.0141 -1.4449
 9599TIP3    H252993   3.958   6.264  10.886  0.2858 -0.2783 -0.2020
 9600TIP3   OH252994   3.883   4.290  11.707 -0.5783 -0.8969  0.0039
 9600TIP3    H152995   3.938   4.343  11.764 -0.9302 -0.5602  0.0369
 9600TIP3    H252996   3.943   4.254  11.642 -0.5478  0.7973 -0.9631
 9601TIP3   OH252997   2.379   1.162  11.673  0.5539  0.2851  0.5665
 9601TIP3    H152998   2.396   1.227  11.605 -0.9744  1.8369  1.5639
 9601TIP3    H252999   2.320   1.099  11.632  0.2883  0.7542  0.2197
 9602TIP3   OH253000   2.835   6.871  11.146  0.3045 -0.8512 -0.6123
 9602TIP3    H153001   2.802   6.786  11.175  0.3812 -0.7552 -0.2386
 9602TIP3    H253002   2.904   6.850  11.083 -0.7852 -1.0530 -1.7639
 9603TIP3   OH253003   3.091   1.325  13.033 -0.3768 -0.1976  0.1166
 9603TIP3    H153004   3.138   1.242  13.030  0.0684 -0.0816  2.1879
 9603TIP3    H253005   3.098   1.360  12.945  0.2426 -1.9119 -0.5525
 9604TIP3   OH253006   0.350   1.152  11.891  0.7323  0.0791 -0.5817
 9604TIP3    H153007   0.408   1.228  11.886 -1.2230  1.6301 -0.7116
 9604TIP3    H253008   0.386   1.099  11.962  1.1177  2.0270  0.7349
 9605TIP3   OH253009   4.273   5.500  12.526  0.6783 -0.0685 -0.2694
 9605TIP3    H153010   4.325   5.577  12.504  3.6198 -2.3031 -1.9077
 9605TIP3    H253011   4.195   5.507  12.470  0.0864  2.3525  0.7280
 9606TIP3   OH253012   3.337   8.065  10.821 -0.0404 -0.1401  0.1462
 9606TIP3    H153013   3.410   8.079  10.882 -0.2877  1.2867  0.1580
 9606TIP3    H253014   3.297   7.983  10.849  1.5021 -0.9260  0.1825
 9607TIP3   OH253015   2.641   1.482  11.508 -0.0431 -0.4884  0.0204
 9607TIP3    H153016   2.606   1.529  11.583 -0.4979 -1.2625  0.3078
 9607TIP3    H253017   2.599   1.523  11.432  1.3853  1.1440  0.0637
 9608TIP3   OH253018   3.208   7.591  11.369  0.3961 -0.3637  0.0961
 9608TIP3    H153019   3.148   7.628  11.305  1.0772  0.0878 -0.2920
 9608TIP3    H253020   3.191   7.497  11.366 -0.1838 -0.2548 -0.1111
 9609TIP3   OH253021   4.108   3.942  11.409 -0.0844 -0.8695 -0.7318
 9609TIP3    H153022   4.072   4.030  11.421 -2.5316 -1.5585 -2.2483
 9609TIP3    H253023   4.043   3.884  11.448  1.2266 -2.0661 -0.2382
 9610TIP3   OH253024   4.078   7.745  11.523  0.1147  0.5787  0.2990
 9610TIP3    H153025   4.130   7.718  11.599  1.1212 -0.4112 -0.6965
 9610TIP3    H253026   3.990   7.758  11.558  0.7003  0.8146  1.7550
 9611TIP3   OH253027   3.911   5.291  11.215  0.7279  0.1779 -0.4687
 9611TIP3    H153028   3.936   5.220  11.275  0.8377  0.0788 -0.6323
 9611TIP3    H253029   3.818   5.277  11.199  0.3070  1.0988  0.9026
 9612TIP3   OH253030   2.951   3.532  12.081 -0.1380 -0.4102  0.5155
 9612TIP3    H153031   3.030   3.478  12.079  1.3661  1.6742 -0.4971
 9612TIP3    H253032   2.978   3.614  12.039 -2.4651  0.9002  1.4342
 9613TIP3   OH253033   4.280   5.066  11.347  0.1684 -0.6290  0.4389
 9613TIP3    H153034   4.308   5.024  11.265 -1.2979  0.6083 -0.7747
 9613TIP3    H253035   4.297   5.160  11.332 -1.0155 -0.2887  1.1480
 9614TIP3   OH253036   2.266   1.000  11.944 -0.4105 -0.1766  0.1704
 9614TIP3    H153037   2.356   0.972  11.961 -0.6323 -0.2832  1.2425
 9614TIP3    H253038   2.233   1.027  12.030 -1.8732 -1.5093  0.0735
 9615TIP3   OH253039   3.322   5.105  10.251 -0.1390  0.3179  0.5113
 9615TIP3    H153040   3.268   5.032  10.282 -0.4943 -0.4165 -1.6977
 9615TIP3    H253041   3.273   5.183  10.276 -1.4615 -0.2963 -0.0537
 9616TIP3   OH253042   3.252   2.353  11.140  0.2087  0.2258  0.4133
 9616TIP3    H153043   3.265   2.403  11.221  0.1037  0.1320  0.4873
 9616TIP3    H253044   3.340   2.344  11.103  0.2685  0.1862  0.5664
 9617TIP3   OH253045   1.871   1.279  11.153 -0.1217  0.3403 -0.0687
 9617TIP3    H153046   1.858   1.280  11.058 -1.5503 -2.2365 -0.0081
 9617TIP3    H253047   1.785   1.303  11.189 -1.0473 -3.1162  0.4357
 9618TIP3   OH253048   6.126   7.147  11.028  0.0431  0.0966  0.3685
 9618TIP3    H153049   6.082   7.201  10.962 -0.3787 -2.5801 -1.7087
 9618TIP3    H253050   6.211   7.126  10.989 -0.4034 -1.9274  0.3940
 9619TIP3   OH253051   6.137   4.471  10.582 -1.0292 -0.1491  0.2572
 9619TIP3    H153052   6.103   4.413  10.650 -1.1622 -0.1626  0.1794
 9619TIP3    H253053   6.176   4.544  10.630 -0.9769 -0.2399  0.3515
 9620TIP3   OH253054   5.168   2.634  11.169  0.3730 -1.4012  0.0368
 9620TIP3    H153055   5.263   2.645  11.177  0.1635  0.3768  0.4766
 9620TIP3    H253056   5.133   2.722  11.178 -1.2106 -1.6968 -2.3292
 9621TIP3   OH253057   5.641   5.776  11.867 -1.0243 -0.0148 -0.0233
 9621TIP3    H153058   5.727   5.797  11.830 -1.0498  0.7605  0.3451
 9621TIP3    H253059   5.583   5.843  11.832 -1.2298  0.1881  0.6989
 9622TIP3   OH253060   6.939   6.698  11.208 -0.3598  0.4138  0.4494
 9622TIP3    H153061   6.944   6.783  11.165  0.6801 -0.5232 -1.3681
 9622TIP3    H253062   7.010   6.646  11.170 -0.7200 -1.1681  1.7814
 9623TIP3   OH253063   0.114   2.247  12.561 -0.2814 -0.1051  0.0396
 9623TIP3    H153064   0.101   2.154  12.578 -0.7970  0.1612  1.1568
 9623TIP3    H253065   0.093   2.257  12.468 -1.5894 -0.8660  0.2230
 9624TIP3   OH253066   3.485   1.835  12.901  0.5486  0.1815  0.1134
 9624TIP3    H153067   3.511   1.861  12.813  0.8506  0.9723  0.4227
 9624TIP3    H253068   3.563   1.791  12.936  0.1131 -0.9779 -0.3316
 9625TIP3   OH253069   1.841   1.794  11.465 -0.3130  0.8972 -0.0719
 9625TIP3    H153070   1.796   1.874  11.493 -0.0245  1.5840 -1.4725
 9625TIP3    H253071   1.851   1.804  11.371 -0.7573 -1.0613 -0.3716
 9626TIP3   OH253072   1.778   0.370  10.563 -0.3921  0.1521  0.7652
 9626TIP3    H153073   1.833   0.323  10.501 -0.2806  0.4639  0.6291
 9626TIP3    H253074   1.710   0.306  10.587 -0.4825  0.0552  0.2659
 9627TIP3   OH253075   5.084   7.152  10.947 -0.3536  0.1867 -0.1950
 9627TIP3    H153076   5.122   7.079  10.898  3.1550  1.9796 -0.5206
 9627TIP3    H253077   5.096   7.128  11.039  0.3050  0.0972 -0.2974
 9628TIP3   OH253078   7.893   6.729  12.764 -0.6212  0.1263  0.2856
 9628TIP3    H153079   7.816   6.742  12.819 -0.6997  0.6263  0.0531
 9628TIP3    H253080   7.859   6.717  12.676 -0.5045 -0.8444  0.3559
 9629TIP3   OH253081   5.364   7.444  11.703 -0.2206 -0.9333  0.2592
 9629TIP3    H153082   5.379   7.534  11.677  1.3689 -1.2341  0.0071
 9629TIP3    H253083   5.292   7.414  11.648  1.8022 -0.9787 -2.5701
 9630TIP3   OH253084   8.037   4.451  11.529  1.1602  0.1671 -0.5896
 9630TIP3    H153085   8.122   4.410  11.516  1.3427  0.5680 -0.6504
 9630TIP3    H253086   8.052   4.522  11.591  0.1911 -2.0942  2.4420
 9631TIP3   OH253087   3.555   4.742  10.500  0.4874  0.2355  0.0559
 9631TIP3    H153088   3.633   4.687  10.492 -0.6573 -1.6511  1.3261
 9631TIP3    H253089   3.589   4.832  10.492  2.9288 -0.4665  1.4159
 9632TIP3   OH253090   4.594   8.160  10.644 -0.2757 -0.1579 -0.2586
 9632TIP3    H153091   4.554   8.075  10.659  0.6447 -1.1023 -2.6068
 9632TIP3    H253092   4.589   8.173  10.549  2.0322  1.1157 -0.3050
 9633TIP3   OH253093   5.513   7.018  11.951  0.3778 -0.1839  0.2691
 9633TIP3    H153094   5.484   6.959  11.882 -0.0195  1.1715 -0.7767
 9633TIP3    H253095   5.514   6.965  12.030 -2.1105 -1.0410 -0.2008
 9634TIP3   OH253096   5.491   5.031  11.439  0.0792  0.2381 -0.6055
 9634TIP3    H153097   5.496   4.993  11.352 -0.3827 -0.7303 -0.2273
 9634TIP3    H253098   5.423   4.980  11.484 -0.1771  1.1719  0.0995
 9635TIP3   OH253099   1.922   6.802  11.229 -0.6303  0.2192  0.0866
 9635TIP3    H153100   1.893   6.893  11.243  1.0711  0.7209  0.5699
 9635TIP3    H253101   1.911   6.761  11.315 -2.0720 -0.2665 -0.3011
 9636TIP3   OH253102   7.611   8.279  10.707  0.1461  0.6994 -0.4270
 9636TIP3    H153103   7.570   8.365  10.707 -0.5326  0.4205  1.4791
 9636TIP3    H253104   7.541   8.218  10.685  0.4644  0.5518 -1.0686
 9637TIP3   OH253105   4.059   8.060  11.203 -0.2990 -0.0602 -0.0832
 9637TIP3    H153106   4.117   8.000  11.155 -1.1367 -0.4668 -0.6143
 9637TIP3    H253107   3.973   8.019  11.198 -0.6386  0.5222  0.7170
 9638TIP3   OH253108   4.849   7.161  10.823 -0.0076  0.0813  0.2449
 9638TIP3    H153109   4.792   7.143  10.898  1.3483  0.6396  1.4403
 9638TIP3    H253110   4.933   7.185  10.861  0.3766  1.6279 -1.4239
 9639TIP3   OH253111   3.670   3.182  11.180 -0.2234 -0.0740 -0.1838
 9639TIP3    H153112   3.689   3.204  11.089 -1.1007 -0.6309 -0.5162
 9639TIP3    H253113   3.592   3.127  11.176 -0.5284  0.2436  0.9417
 9640TIP3   OH253114   3.555   2.508  10.553 -0.2528  0.2678  0.0414
 9640TIP3    H153115   3.479   2.566  10.559 -0.6982 -0.0561 -1.6802
 9640TIP3    H253116   3.627   2.565  10.523  0.2733  0.6180  1.8797
 9641TIP3   OH253117   1.134   1.124  11.306  0.4526 -0.4356  0.0895
 9641TIP3    H153118   1.064   1.189  11.313  1.4398  0.7293 -0.3328
 9641TIP3    H253119   1.214   1.174  11.324  1.2441 -1.5478 -0.2348
 9642TIP3   OH253120   7.718   3.090  11.988  0.1081 -0.2060  0.3087
 9642TIP3    H153121   7.710   3.071  11.894  0.1996 -0.0679  0.2740
 9642TIP3    H253122   7.812   3.093  12.004  0.0930 -0.3891  0.4385
 9643TIP3   OH253123   6.037   2.684  11.208  0.0562 -0.5622  0.6414
 9643TIP3    H153124   6.026   2.643  11.294  1.4816  0.7997  1.5135
 9643TIP3    H253125   6.131   2.701  11.201 -0.2259  0.6331 -0.5982
 9644TIP3   OH253126   7.845   8.121  10.769  0.0826  0.4631 -0.3342
 9644TIP3    H153127   7.777   8.189  10.777  0.1327  0.4222  0.4492
 9644TIP3    H253128   7.871   8.125  10.677 -2.2185 -0.7024 -1.1160
 9645TIP3   OH253129   5.624   1.683  10.841 -0.1085  0.7361 -0.1848
 9645TIP3    H153130   5.588   1.632  10.913 -0.3023  0.2699 -0.6104
 9645TIP3    H253131   5.703   1.635  10.815 -0.9228 -0.0066 -1.3562
 9646TIP3   OH253132   3.493   4.710  11.359 -0.6690  0.1100 -0.3490
 9646TIP3    H153133   3.546   4.749  11.289 -0.5458  0.5047 -0.0386
 9646TIP3    H253134   3.403   4.721  11.330 -0.6023 -2.3668 -1.8745
 9647TIP3   OH253135   0.364   5.935  10.974  0.0418 -0.9102 -0.3785
 9647TIP3    H153136   0.416   5.905  10.899 -0.7912 -1.8990 -0.5760
 9647TIP3    H253137   0.341   5.855  11.020  0.6890 -0.3056  1.0619
 9648TIP3   OH253138   2.500   3.417  11.579  0.0139  0.5190  0.4869
 9648TIP3    H153139   2.551   3.477  11.524 -0.1904  0.0173 -0.2687
 9648TIP3    H253140   2.411   3.453  11.578  0.1357  0.8487  1.0019
 9649TIP3   OH253141   0.120   4.003  12.209  0.5097 -0.0325 -0.4917
 9649TIP3    H153142   0.166   3.922  12.230  0.3748 -0.3640 -1.4156
 9649TIP3    H253143   0.028   3.978  12.206  0.6537 -0.5506 -3.6210
 9650TIP3   OH253144   6.419   4.748  10.522  0.0340  0.6524  0.7022
 9650TIP3    H153145   6.382   4.751  10.435 -0.8969 -0.2990  1.0441
 9650TIP3    H253146   6.345   4.730  10.580  0.5326  1.8271  1.7665
 9651TIP3   OH253147   8.093   0.978  10.568 -0.7765  0.2218  0.4958
 9651TIP3    H153148   8.107   0.996  10.661 -0.0570 -0.3518  0.4974
 9651TIP3    H253149   8.113   0.886  10.557  1.6729  0.8199 -0.7040
 9652TIP3   OH253150   7.267   1.097  11.329 -0.4872  0.1321  0.5407
 9652TIP3    H153151   7.297   1.026  11.273  0.0970 -0.6101  1.7408
 9652TIP3    H253152   7.339   1.160  11.329 -0.5563  0.2106  0.3280
 9653TIP3   OH253153   6.486   6.815  10.520  0.3274 -0.1043  0.2550
 9653TIP3    H153154   6.487   6.721  10.502 -0.1043 -0.5758  2.4396
 9653TIP3    H253155   6.413   6.849  10.467 -0.3581 -1.2364  0.4499
 9654TIP3   OH253156   5.156   4.289  11.183 -0.1025  0.1223 -0.2756
 9654TIP3    H153157   5.205   4.215  11.218  0.2844 -0.7347 -2.4725
 9654TIP3    H253158   5.064   4.263  11.190  0.0219 -0.4827 -0.8276
 9655TIP3   OH253159   0.600   2.457  11.882  0.0369 -0.0378 -0.1525
 9655TIP3    H153160   0.622   2.525  11.946 -1.1441  1.3070 -1.1271
 9655TIP3    H253161   0.518   2.420  11.914  0.4016 -0.6537  0.0852
 9656TIP3   OH253162   7.945   8.164  11.179  0.1896  0.4086 -0.4258
 9656TIP3    H153163   7.971   8.140  11.091  0.5728 -2.1281  0.3022
 9656TIP3    H253164   7.852   8.139  11.185  0.4379 -0.4190  0.1762
 9657TIP3   OH253165   0.744   6.634  11.443 -0.4114 -0.2470 -0.3218
 9657TIP3    H153166   0.757   6.657  11.352  0.5250  1.7740  0.2803
 9657TIP3    H253167   0.682   6.699  11.476 -0.2281 -0.5463  0.6459
 9658TIP3   OH253168   0.672   6.561  12.166 -0.2591  0.0418 -0.1828
 9658TIP3    H153169   0.627   6.481  12.141 -0.5268 -0.3170  1.3110
 9658TIP3    H253170   0.746   6.567  12.106  0.5586 -2.0714  0.5012
 9659TIP3   OH253171   4.182   6.866  11.943  0.4842 -0.1054 -0.5836
 9659TIP3    H153172   4.088   6.854  11.936  0.0390  1.4402  1.8531
 9659TIP3    H253173   4.194   6.960  11.954  2.3077 -0.2914 -0.6489
 9660TIP3   OH253174   1.925   3.975  11.629 -0.0171 -0.0623 -0.0110
 9660TIP3    H153175   1.850   3.944  11.578 -0.3954  1.0758 -0.1744
 9660TIP3    H253176   1.990   3.905  11.621 -1.5357 -1.6919  1.2669
 9661TIP3   OH253177   1.949   2.608  11.819 -0.3678 -0.1495  0.1065
 9661TIP3    H153178   1.919   2.676  11.758 -0.0263  0.6677  0.8174
 9661TIP3    H253179   1.911   2.527  11.786  1.0291  0.0053 -2.0579
 9662TIP3   OH253180   7.409   0.157  12.563 -0.3190  0.0179 -0.0239
 9662TIP3    H153181   7.463   0.182  12.638 -0.9665 -0.2377  0.5344
 9662TIP3    H253182   7.472   0.133  12.495  0.2852  0.9326  0.1964
 9663TIP3   OH253183   0.758   2.215  11.261 -0.2289  0.8744 -0.2258
 9663TIP3    H153184   0.745   2.159  11.338 -1.0078  0.6218 -0.5270
 9663TIP3    H253185   0.784   2.300  11.297  1.1298  0.2888  0.2313
 9664TIP3   OH253186   0.202   0.888  11.037 -0.3723  0.0040  0.2397
 9664TIP3    H153187   0.173   0.974  11.066 -0.2395  0.4359 -0.8521
 9664TIP3    H253188   0.267   0.861  11.103 -0.5927  0.6244  0.7215
 9665TIP3   OH253189   4.873   1.770  11.953  0.1525 -0.6244 -0.0826
 9665TIP3    H153190   4.813   1.729  11.891  1.4096 -2.2745 -0.3016
 9665TIP3    H253191   4.818   1.825  12.008 -1.2723 -0.6647 -1.4017
 9666TIP3   OH253192   2.120   2.002  10.546  0.6803 -0.4497  0.0478
 9666TIP3    H153193   2.030   1.990  10.517  1.2068 -2.5867 -0.9392
 9666TIP3    H253194   2.170   2.018  10.465  1.3163 -0.2314  0.4734
 9667TIP3   OH253195   0.366   7.645  11.347  0.0568 -0.8691  0.1783
 9667TIP3    H153196   0.371   7.585  11.273  0.2670 -1.5000  0.6887
 9667TIP3    H253197   0.399   7.593  11.421 -1.4340 -0.7126  0.9787
 9668TIP3   OH253198   3.345   6.170  12.162  0.0965 -0.3082 -0.0554
 9668TIP3    H153199   3.418   6.211  12.208  2.7137 -1.1145 -3.0853
 9668TIP3    H253200   3.269   6.223  12.186  2.2394  2.7499  0.6820
 9669TIP3   OH253201   4.560   4.445  10.553 -0.0895  0.6025 -0.4082
 9669TIP3    H153202   4.473   4.483  10.547 -1.4913 -1.6694  2.7615
 9669TIP3    H253203   4.561   4.401  10.638  3.7412 -0.5526 -0.8713
 9670TIP3   OH253204   4.066   4.516  10.685 -0.0533 -0.5119 -0.3543
 9670TIP3    H153205   4.010   4.495  10.759  0.1098 -0.7121 -0.2843
 9670TIP3    H253206   4.120   4.589  10.715 -1.1838  0.5790 -0.8761
 9671TIP3   OH253207   8.288   4.687  10.763  0.3644 -0.1006 -0.4357
 9671TIP3    H153208   8.255   4.759  10.818 -0.3446  0.2335 -1.2792
 9671TIP3    H253209   8.383   4.701  10.761  0.6446 -1.0632  1.9967
 9672TIP3   OH253210   1.707   2.157  11.831  0.5906  0.5017  0.1862
 9672TIP3    H153211   1.723   2.232  11.888 -1.6817  0.4192  1.0159
 9672TIP3    H253212   1.706   2.081  11.889 -0.0490  0.2104 -0.1858
 9673TIP3   OH253213   1.789   5.572  10.820 -0.4400  0.8506  0.3520
 9673TIP3    H153214   1.820   5.609  10.902  0.8991 -1.2234  0.8312
 9673TIP3    H253215   1.727   5.504  10.845  1.2961 -1.0329 -0.1810
 9674TIP3   OH253216   7.439   0.888  12.811  0.0957 -0.3483  0.1522
 9674TIP3    H153217   7.426   0.810  12.757 -2.0602  1.1434 -1.6475
 9674TIP3    H253218   7.490   0.947  12.755 -0.3699  0.4364  0.5380
 9675TIP3   OH253219   2.755   4.407  11.350  0.3053 -0.2954  0.2086
 9675TIP3    H153220   2.776   4.467  11.421  0.2051  0.3025 -0.2547
 9675TIP3    H253221   2.840   4.383  11.313  0.2899  0.9352 -0.7018
 9676TIP3   OH253222   7.438   4.245  11.678 -0.1982  0.0630 -0.3227
 9676TIP3    H153223   7.484   4.299  11.742  1.7539 -1.2567 -0.4980
 9676TIP3    H253224   7.369   4.202  11.728  0.5603 -0.0668  0.6481
 9677TIP3   OH253225   5.391   4.091  10.840  0.1569  0.7195  0.6631
 9677TIP3    H153226   5.439   4.092  10.923 -0.4406  0.2413  1.0251
 9677TIP3    H253227   5.434   4.022  10.789 -0.3693  0.0375  1.1288
 9678TIP3   OH253228   3.015   4.496  11.168  0.1048  0.3481  0.2006
 9678TIP3    H153229   3.103   4.483  11.203  0.1206  1.4737  0.6279
 9678TIP3    H253230   2.974   4.410  11.173  0.5018  0.2190  1.9144
 9679TIP3   OH253231   1.678   3.744  11.801  0.0952 -0.2466  0.3009
 9679TIP3    H153232   1.622   3.788  11.737  0.2614 -0.6327 -0.1132
 9679TIP3    H253233   1.741   3.695  11.748 -0.6643 -1.7496  0.7458
 9680TIP3   OH253234   4.389   6.596  10.748 -0.5845 -0.0246  0.9010
 9680TIP3    H153235   4.384   6.629  10.838  0.7438 -0.4240  1.1479
 9680TIP3    H253236   4.372   6.502  10.757 -0.9108  0.0112  0.6639
 9681TIP3   OH253237   2.972   5.401  12.049  0.3079 -0.3783 -0.6329
 9681TIP3    H153238   2.878   5.408  12.033  0.0663  1.9887  1.2012
 9681TIP3    H253239   3.009   5.481  12.010  1.1610 -0.0437  0.7887
 9682TIP3   OH253240   5.627   6.863  11.078  0.8032  0.1382 -0.0122
 9682TIP3    H153241   5.706   6.912  11.055  0.1787  0.3670 -1.8508
 9682TIP3    H253242   5.633   6.782  11.026 -0.8039  0.7896 -1.3317
 9683TIP3   OH253243   7.724   2.862  11.233  0.3056 -0.0668  0.1182
 9683TIP3    H153244   7.665   2.789  11.249 -1.0024  0.6936 -1.0095
 9683TIP3    H253245   7.674   2.922  11.178  1.9580  0.8558 -0.4623
 9684TIP3   OH253246   7.278   2.291  11.141 -0.3876 -0.4299 -0.0705
 9684TIP3    H153247   7.362   2.252  11.118 -0.9131 -1.2725 -0.6092
 9684TIP3    H253248   7.217   2.217  11.140 -1.1446  0.1887  0.2388
 9685TIP3   OH253249   5.161   2.931  10.945  0.0094  0.2678  0.4525
 9685TIP3    H153250   5.169   2.891  11.032 -0.5612 -0.7522  0.0419
 9685TIP3    H253251   5.077   2.901  10.912  0.0749  0.9098 -0.3361
 9686TIP3   OH253252   4.524   2.237  12.216  0.1743  0.0699 -0.0840
 9686TIP3    H153253   4.607   2.193  12.235 -0.7537 -1.4565  0.6006
 9686TIP3    H253254   4.473   2.173  12.167 -0.5692  1.0258 -0.5893
 9687TIP3   OH253255   4.684   0.935  11.107  0.4502 -0.3237  0.4154
 9687TIP3    H153256   4.671   0.855  11.157 -1.5522 -0.0917  0.3645
 9687TIP3    H253257   4.595   0.961  11.079  1.0951  1.6019 -0.0407
 9688TIP3   OH253258   2.887   4.558  10.792  0.5212 -0.4957  0.1603
 9688TIP3    H153259   2.969   4.544  10.839  0.6142  0.1188  0.1912
 9688TIP3    H253260   2.912   4.609  10.715  0.1418 -0.1028  0.2908
 9689TIP3   OH253261   1.650   5.880  11.230  0.0122 -0.2696  0.7124
 9689TIP3    H153262   1.727   5.924  11.195  0.3239 -0.3077  1.3350
 9689TIP3    H253263   1.587   5.880  11.158  0.5975 -0.2483  0.1975
 9690TIP3   OH253264   6.129   4.055  12.442 -0.2342 -0.2266  0.0623
 9690TIP3    H153265   6.094   4.057  12.353  0.3630  1.1654 -0.1703
 9690TIP3    H253266   6.080   3.986  12.486 -2.4242  0.8341 -0.5791
 9691TIP3   OH253267   1.478   5.707  12.107  0.7375 -0.7077  0.4398
 9691TIP3    H153268   1.466   5.635  12.169 -1.5251 -1.4951 -0.8278
 9691TIP3    H253269   1.432   5.781  12.148  0.3510 -0.8651  0.2888
 9692TIP3   OH253270   5.724   3.769  11.634  0.1143 -0.1851  0.4632
 9692TIP3    H153271   5.686   3.725  11.710 -3.2625  0.8244 -0.4370
 9692TIP3    H253272   5.719   3.863  11.655  1.8568  0.0196  0.1029
 9693TIP3   OH253273   2.483   4.737  11.884 -0.0852  0.1695 -0.2385
 9693TIP3    H153274   2.570   4.697  11.887  0.0746  0.4286 -1.0571
 9693TIP3    H253275   2.435   4.685  11.819 -0.4361  0.2239 -0.0245
 9694TIP3   OH253276   3.345   6.928  12.458  0.0205  0.5402  0.4044
 9694TIP3    H153277   3.297   6.960  12.534  0.4934 -1.5071  1.6521
 9694TIP3    H253278   3.435   6.920  12.489  0.0575 -1.1843 -0.0368
 9695TIP3   OH253279   1.814   4.001  11.379 -0.1832  0.0364  0.0097
 9695TIP3    H153280   1.720   4.018  11.383  0.0574  1.8768 -0.9889
 9695TIP3    H253281   1.827   3.958  11.295  0.3386  4.2991 -2.3905
 9696TIP3   OH253282   5.209   7.256  10.652  0.2081  0.1880  0.1788
 9696TIP3    H153283   5.131   7.310  10.664 -0.6348 -0.0880 -3.0354
 9696TIP3    H253284   5.194   7.179  10.706 -1.4005  0.5154  0.2546
 9697TIP3   OH253285   7.981   5.955  10.808 -0.1735 -0.2205 -0.0580
 9697TIP3    H153286   7.933   5.970  10.889 -1.2598  0.4938 -0.7990
 9697TIP3    H253287   8.011   5.865  10.814 -1.0516 -0.4756  0.7367
 9698TIP3   OH253288   7.497   4.788  10.578  0.0244  0.1920 -0.0168
 9698TIP3    H153289   7.432   4.851  10.548 -0.4760 -0.2254  0.1731
 9698TIP3    H253290   7.446   4.711  10.604  0.4972  0.2353  1.1120
 9699TIP3   OH253291   7.439   1.759  10.597 -0.0252 -0.3235 -0.0829
 9699TIP3    H153292   7.452   1.853  10.602 -1.7558 -0.0770  0.5501
 9699TIP3    H253293   7.385   1.746  10.519  0.4556 -0.8401 -0.3418
 9700TIP3   OH253294   6.498   2.331  12.382  0.4239  0.2201  0.1374
 9700TIP3    H153295   6.454   2.407  12.343 -1.6416 -1.5859 -1.3054
 9700TIP3    H253296   6.488   2.343  12.476 -1.6150  0.8191 -0.1084
 9701TIP3   OH253297   7.175   8.437  11.665  0.3522  0.5998 -0.2007
 9701TIP3    H153298   7.207   8.521  11.699 -1.4190  1.0448  0.4458
 9701TIP3    H253299   7.167   8.451  11.570  1.7338  0.5602 -0.3490
 9702TIP3   OH253300   4.564   6.561  12.217 -0.0081  0.2320 -0.1413
 9702TIP3    H153301   4.510   6.626  12.172  1.3257  1.2287 -0.3617
 9702TIP3    H253302   4.532   6.561  12.307 -0.0315  1.1898 -0.1449
 9703TIP3   OH253303   0.849   0.712  10.492 -0.0891  0.2463  0.2415
 9703TIP3    H153304   0.894   0.734  10.573  1.1925 -0.2921 -0.2871
 9703TIP3    H253305   0.859   0.790  10.437  3.3232 -0.9558 -1.1498
 9704TIP3   OH253306   2.476   1.382  11.031  0.0210 -0.6245  0.1781
 9704TIP3    H153307   2.388   1.396  10.997  0.7464  0.4002 -1.4055
 9704TIP3    H253308   2.506   1.302  10.988  0.4278 -0.1001 -0.5287
 9705TIP3   OH253309   2.336   0.066  12.395 -0.2650  0.2204  0.0674
 9705TIP3    H153310   2.345   0.142  12.454  0.5574 -0.6635  1.1127
 9705TIP3    H253311   2.269   0.093  12.332 -1.5482  1.0193  1.7038
 9706TIP3   OH253312   3.321   7.011  10.734 -0.3165  0.9674  0.4405
 9706TIP3    H153313   3.261   7.085  10.740  1.4204  2.3640  1.9382
 9706TIP3    H253314   3.403   7.049  10.702  0.0478 -0.7145 -0.7711
 9707TIP3   OH253315   4.051   6.635  11.775  0.0619 -0.0745  0.4971
 9707TIP3    H153316   4.056   6.727  11.801  1.6990  0.3102 -0.9995
 9707TIP3    H253317   4.013   6.637  11.687 -2.0948 -1.0663  1.3253
 9708TIP3   OH253318   1.110   3.587  12.070 -0.3685  0.2885  0.2481
 9708TIP3    H153319   1.144   3.504  12.038  0.4115  0.3207  0.9684
 9708TIP3    H253320   1.084   3.569  12.160 -0.1863  0.8262  0.4116
 9709TIP3   OH253321   4.427   7.394  10.398  0.9379  0.1465  0.2707
 9709TIP3    H153322   4.478   7.407  10.318 -0.1858 -0.2041 -0.5308
 9709TIP3    H253323   4.469   7.450  10.463  1.6327  0.7512 -0.6737
 9710TIP3   OH253324   2.465   5.787  11.497  0.1001  0.2103 -0.0612
 9710TIP3    H153325   2.450   5.696  11.522 -0.3132  0.4634  0.6353
 9710TIP3    H253326   2.392   5.835  11.535  0.9605  1.0102  0.6383
 9711TIP3   OH253327   3.606   2.885  10.602  0.1503  0.6189  0.3124
 9711TIP3    H153328   3.520   2.846  10.613 -0.1998  1.4525  0.6240
 9711TIP3    H253329   3.618   2.940  10.680  2.1381 -1.5621  1.7155
 9712TIP3   OH253330   5.421   5.330  10.323  0.5721  0.5893 -0.2783
 9712TIP3    H153331   5.476   5.403  10.294  1.0168  0.3087 -0.1529
 9712TIP3    H253332   5.474   5.286  10.390  0.1417  0.3897 -0.0710
 9713TIP3   OH253333   1.355   4.128  11.600  0.0804  0.2776 -0.0110
 9713TIP3    H153334   1.281   4.189  11.609 -0.0541  0.1236 -0.0674
 9713TIP3    H253335   1.314   4.042  11.599  0.4663 -0.0770  3.2322
 9714TIP3   OH253336   7.527   8.115  11.564  0.2549 -0.2972 -1.3043
 9714TIP3    H153337   7.546   8.066  11.645 -2.3763  0.5271 -0.0758
 9714TIP3    H253338   7.452   8.070  11.526  1.0321 -0.2473 -2.9880
 9715TIP3   OH253339   6.284   3.493  11.535 -0.2563 -0.6041  0.0216
 9715TIP3    H153340   6.231   3.567  11.568  1.0366  0.1118  0.5943
 9715TIP3    H253341   6.283   3.430  11.607 -2.1244 -1.6148 -0.8148
 9716TIP3   OH253342   5.234   0.663  11.585  0.5758  0.0135  0.2822
 9716TIP3    H153343   5.249   0.757  11.576  0.6904 -0.1432 -1.3980
 9716TIP3    H253344   5.308   0.632  11.637  1.0835  0.6903 -0.0197
 9717TIP3   OH253345   3.699   3.248  11.979 -0.4430  0.3941 -0.0206
 9717TIP3    H153346   3.765   3.300  11.932 -1.7606 -0.1147 -2.6481
 9717TIP3    H253347   3.667   3.186  11.914 -0.9040 -1.9076  2.2342
 9718TIP3   OH253348   2.150   8.321  12.836  0.7920 -0.0240 -0.1528
 9718TIP3    H153349   2.178   8.260  12.767 -1.6624  0.3473 -1.5947
 9718TIP3    H253350   2.089   8.380  12.792 -2.0642 -0.6762  2.6011
 9719TIP3   OH253351   2.107   4.212  12.058 -0.4853  0.2837  0.1106
 9719TIP3    H153352   2.190   4.239  12.017 -0.1635 -0.3563  0.3219
 9719TIP3    H253353   2.054   4.291  12.060  0.8794  1.2281  1.8096
 9720TIP3   OH253354   7.110   6.167  11.765  0.0899  0.5392 -0.2300
 9720TIP3    H153355   7.119   6.083  11.721 -1.3932 -0.0506  0.5359
 9720TIP3    H253356   7.042   6.213  11.716  0.0172  0.7817  0.0930
 9721TIP3   OH253357   2.339   6.638  10.732 -0.4477 -0.4727  0.0040
 9721TIP3    H153358   2.328   6.723  10.775 -0.8728 -1.0038  0.9659
 9721TIP3    H253359   2.285   6.645  10.653  0.3701  0.5232 -0.4956
 9722TIP3   OH253360   3.469   5.189  11.562  0.2670  0.0559  0.1366
 9722TIP3    H153361   3.532   5.166  11.630 -0.7034  1.1733  1.4757
 9722TIP3    H253362   3.383   5.176  11.603 -0.3544  3.0918  0.0320
 9723TIP3   OH253363   3.238   0.628  11.450  0.6080 -0.1625  0.4523
 9723TIP3    H153364   3.278   0.588  11.373  1.5716  0.0166  0.8424
 9723TIP3    H253365   3.291   0.597  11.523  0.7809  1.0398  0.8571
 9724TIP3   OH253366   3.854   0.506  12.505  0.2901 -0.4459  0.9831
 9724TIP3    H153367   3.830   0.414  12.516  0.1260 -0.5685 -0.2614
 9724TIP3    H253368   3.946   0.504  12.479 -0.3000 -0.4569 -1.3804
 9725TIP3   OH253369   4.504   1.519  11.429  0.3466 -0.0898  0.3573
 9725TIP3    H153370   4.466   1.571  11.358 -0.5392 -3.2034 -1.6198
 9725TIP3    H253371   4.599   1.522  11.412  0.1107 -1.2790 -1.4187
 9726TIP3   OH253372   7.975   0.591  11.902  0.0040 -0.3364  0.2859
 9726TIP3    H153373   7.886   0.626  11.890  0.7330  1.2680 -0.7981
 9726TIP3    H253374   7.962   0.512  11.954 -1.9406  0.5645  1.3037
 9727TIP3   OH253375   4.253   0.608  12.716  0.0669  0.2601  0.2073
 9727TIP3    H153376   4.184   0.636  12.777 -0.2739 -0.3894  0.1311
 9727TIP3    H253377   4.248   0.513  12.716  0.0685  0.2440 -0.8267
 9728TIP3   OH253378   4.517   2.471  11.734 -0.1843 -0.3215  0.0874
 9728TIP3    H153379   4.571   2.516  11.799 -0.8761 -0.9971  1.1643
 9728TIP3    H253380   4.569   2.473  11.654  0.8815  0.1581  0.7709
 9729TIP3   OH253381   4.528   0.484  11.122  0.1114  0.6811  0.3272
 9729TIP3    H153382   4.599   0.441  11.075 -0.4213 -0.5779  0.6382
 9729TIP3    H253383   4.504   0.423  11.192  1.0521  2.5885  2.4379
 9730TIP3   OH253384   6.934   0.233  12.500  0.5096 -0.2823  0.1289
 9730TIP3    H153385   6.886   0.302  12.545  2.0233  1.4828 -0.7743
 9730TIP3    H253386   7.020   0.232  12.543  0.0026 -2.8638  1.2551
 9731TIP3   OH253387   6.775   7.498  10.748 -0.4877 -0.0122  0.6048
 9731TIP3    H153388   6.756   7.433  10.680 -0.5386  0.1611  0.4534
 9731TIP3    H253389   6.859   7.470  10.784 -0.2744  0.1144  0.2074
 9732TIP3   OH253390   4.598   1.985  11.935  0.1721  0.3087  0.2649
 9732TIP3    H153391   4.661   1.990  12.007 -0.6103 -0.1659  0.9916
 9732TIP3    H253392   4.513   1.998  11.976 -0.4527 -1.6725 -0.2758
 9733TIP3   OH253393   7.085   8.436  12.060  0.3787  0.3529 -0.3898
 9733TIP3    H153394   7.052   8.418  11.972  1.2236  0.8139 -0.8138
 9733TIP3    H253395   7.164   8.383  12.068  0.7838  0.9713 -0.2312
 9734TIP3   OH253396   2.645   7.414  11.694  0.0286 -0.3196 -0.1042
 9734TIP3    H153397   2.692   7.347  11.644  1.1489  2.0449 -2.4637
 9734TIP3    H253398   2.568   7.368  11.729  1.5426 -3.1676 -0.2174
 9735TIP3   OH253399   7.279   0.802  11.432  0.3479 -0.2618  0.9067
 9735TIP3    H153400   7.247   0.890  11.454  0.2361  0.0668 -0.5018
 9735TIP3    H253401   7.211   0.743  11.462 -1.3429  0.3798 -1.4084
 9736TIP3   OH253402   1.777   1.552  11.100 -0.4178 -0.1702  0.5881
 9736TIP3    H153403   1.700   1.573  11.047  0.6212 -0.8750 -1.3017
 9736TIP3    H253404   1.747   1.562  11.190 -2.8480 -0.7897 -0.0560
 9737TIP3   OH253405   3.042   1.294  11.167  0.2375  0.2082 -0.2711
 9737TIP3    H153406   3.114   1.246  11.126  0.2698 -0.9618  1.0634
 9737TIP3    H253407   2.991   1.226  11.212 -0.5671  1.2591  0.4487
 9738TIP3   OH253408   6.535   0.747  11.868 -0.6572  0.2685  0.8704
 9738TIP3    H153409   6.594   0.799  11.922  2.5565  0.8904 -2.7164
 9738TIP3    H253410   6.462   0.804  11.848  0.6872  1.9221  0.4631
 9739TIP3   OH253411   5.777   2.228  11.703  0.2881 -0.2335  0.1294
 9739TIP3    H153412   5.872   2.235  11.702  0.3069 -0.4981 -0.0030
 9739TIP3    H253413   5.759   2.144  11.746  0.0938  0.1391  0.7989
 9740TIP3   OH253414   4.781   6.483  10.688  0.0623 -0.1299 -0.7554
 9740TIP3    H153415   4.786   6.458  10.596 -0.6633  0.7057 -1.0347
 9740TIP3    H253416   4.694   6.456  10.717  0.0488  0.1812 -0.4925
 9741TIP3   OH253417   5.696   8.026  11.904 -0.1125  0.0867  0.6161
 9741TIP3    H153418   5.602   8.039  11.914 -0.1669  0.1999 -0.0115
 9741TIP3    H253419   5.733   8.114  11.909 -0.1066  0.1088  0.1671
 9742TIP3   OH253420   7.868   2.017  11.103 -0.0564  0.5729 -0.0105
 9742TIP3    H153421   7.883   2.010  11.197  1.3289  1.5273 -0.1204
 9742TIP3    H253422   7.949   2.055  11.069 -1.2720  2.1877 -1.2963
 9743TIP3   OH253423   3.333   2.126  11.788 -0.1350  0.4027 -0.7898
 9743TIP3    H153424   3.392   2.171  11.728  0.9594  0.3352  0.2146
 9743TIP3    H253425   3.332   2.180  11.867  1.5766 -1.5022  0.6287
 9744TIP3   OH253426   4.734   8.363  12.362  0.6424 -0.6087 -0.6606
 9744TIP3    H153427   4.720   8.331  12.451  0.3747  0.4832 -0.2958
 9744TIP3    H253428   4.699   8.452  12.363  1.4768 -0.2516 -1.6056
 9745TIP3   OH253429   0.508   6.134  11.649 -0.2577  0.3179  0.4806
 9745TIP3    H153430   0.499   6.149  11.555 -0.2840 -0.9696  0.2589
 9745TIP3    H253431   0.425   6.095  11.675 -0.2566  0.6912  1.0513
 9746TIP3   OH253432   6.345   3.434  12.109 -0.7969 -0.1079 -0.1520
 9746TIP3    H153433   6.281   3.390  12.165 -0.7870 -1.0528 -0.8601
 9746TIP3    H253434   6.380   3.504  12.164  0.5425 -2.0988  1.6924
 9747TIP3   OH253435   3.910   1.055  10.932 -0.0910 -0.0181  0.0689
 9747TIP3    H153436   3.926   1.136  10.884  0.2409  0.0752  0.3358
 9747TIP3    H253437   3.838   1.013  10.885  0.8160 -0.3665 -1.0327
 9748TIP3   OH253438   6.466   5.405  12.314  0.3394 -0.1602  0.1349
 9748TIP3    H153439   6.529   5.402  12.242 -2.0776 -3.0826 -2.1167
 9748TIP3    H253440   6.518   5.387  12.393  2.6194  0.0379 -1.2406
 9749TIP3   OH253441   0.567   0.124  12.469  0.3039 -0.2433 -0.1851
 9749TIP3    H153442   0.593   0.197  12.414 -0.1294  0.5073  0.5916
 9749TIP3    H253443   0.474   0.137  12.485  0.3076 -0.7510  0.2872
 9750TIP3   OH253444   2.725   2.188  10.816 -0.3466 -0.3027 -0.4558
 9750TIP3    H153445   2.665   2.177  10.743 -1.0418 -0.7762  0.1792
 9750TIP3    H253446   2.687   2.259  10.868 -0.2954 -0.5273 -0.1109
 9751TIP3   OH253447   3.269   3.576  11.963  0.1033  0.1547  0.3783
 9751TIP3    H153448   3.228   3.511  12.020 -0.5221  0.4263  0.2465
 9751TIP3    H253449   3.221   3.657  11.980  0.8152  0.5642  0.4675
 9752TIP3   OH253450   4.899   7.276  12.401  0.1977  0.1155 -0.3671
 9752TIP3    H153451   4.808   7.307  12.401 -0.6104 -2.0654  0.7167
 9752TIP3    H253452   4.950   7.352  12.428 -1.3239  1.2910 -0.6530
 9753TIP3   OH253453   7.983   7.652  10.921  0.2423 -0.1220  0.4270
 9753TIP3    H153454   7.935   7.729  10.951 -3.0495 -1.2092 -1.5535
 9753TIP3    H253455   8.029   7.682  10.842 -0.4772  0.0095  0.0487
 9754TIP3   OH253456   7.704   6.995  10.985 -0.2601 -0.0998  0.5726
 9754TIP3    H153457   7.770   6.936  11.021  0.8164  0.2384 -0.7677
 9754TIP3    H253458   7.656   6.943  10.922 -0.3940  0.0242  0.5696
 9755TIP3   OH253459   5.068   3.714  11.519 -0.1046  0.1751 -0.3635
 9755TIP3    H153460   5.065   3.640  11.459 -1.1977  0.4083 -0.6228
 9755TIP3    H253461   4.978   3.747  11.521  0.2530  1.1738  0.1514
 9756TIP3   OH253462   3.269   2.806  11.373  0.2350 -0.0489 -0.9513
 9756TIP3    H153463   3.221   2.867  11.429 -0.4888 -0.0294 -1.5827
 9756TIP3    H253464   3.235   2.822  11.285  0.1342 -1.2689 -1.1520
 9757TIP3   OH253465   2.875   7.689  12.078 -0.7194 -0.0281 -0.2336
 9757TIP3    H153466   2.835   7.645  12.003 -1.2103  0.3905 -0.2167
 9757TIP3    H253467   2.892   7.778  12.047  0.9781 -0.4100 -0.5269
 9758TIP3   OH253468   3.087   4.148  11.554 -0.4827  0.2691 -0.6199
 9758TIP3    H153469   3.150   4.111  11.493  2.2619 -0.0763  2.1652
 9758TIP3    H253470   3.104   4.242  11.553 -0.1045  0.2137 -0.1205
 9759TIP3   OH253471   8.170   1.745  12.493  0.4078  0.5151  0.1729
 9759TIP3    H153472   8.084   1.769  12.460  0.0772 -1.1789 -0.2878
 9759TIP3    H253473   8.213   1.828  12.511 -1.0417  1.3980 -0.3079
 9760TIP3   OH253474   3.275   1.957  10.364  0.3702 -0.2418  0.5578
 9760TIP3    H153475   3.362   1.926  10.391  0.2507 -0.4609  0.6925
 9760TIP3    H253476   3.293   2.013  10.288  0.4152 -2.4102 -1.1428
 9761TIP3   OH253477   3.490   5.733  11.987 -0.5998  0.6449 -0.1954
 9761TIP3    H153478   3.500   5.656  11.931  1.2602  1.5054 -1.1228
 9761TIP3    H253479   3.413   5.714  12.041 -1.2785 -1.0474 -1.6882
 9762TIP3   OH253480   0.926   0.933  11.299  0.6031  0.2070  0.1090
 9762TIP3    H153481   1.019   0.954  11.310  0.5660  0.8134 -0.6195
 9762TIP3    H253482   0.889   0.941  11.387  1.1987  0.1818  0.3659
 9763TIP3   OH253483   1.697   4.820  10.680 -0.1978 -1.1750  0.2008
 9763TIP3    H153484   1.774   4.861  10.639 -0.6096  1.6122  1.9161
 9763TIP3    H253485   1.727   4.797  10.768 -0.9060 -1.5121  0.3569
 9764TIP3   OH253486   5.269   0.250  12.135 -0.1224 -0.3647 -0.0931
 9764TIP3    H153487   5.351   0.202  12.119 -0.2022 -1.5326  2.4151
 9764TIP3    H253488   5.279   0.285  12.223 -1.4300  1.4930 -0.6351
 9765TIP3   OH253489   5.028   6.037  10.205  0.0793  0.0593  0.3098
 9765TIP3    H153490   4.953   6.095  10.192  0.2683  0.2568  0.0933
 9765TIP3    H253491   5.024   6.013  10.298  1.4200  2.4334  1.0666
 9766TIP3   OH253492   0.050   6.744  11.210 -0.1452  0.0023  0.1158
 9766TIP3    H153493   0.010   6.727  11.125 -1.6816  0.0280  0.7995
 9766TIP3    H253494   0.083   6.834  11.203  0.5773 -0.3133 -0.7397
 9767TIP3   OH253495   6.821   6.641  12.073 -0.4484 -0.6252  0.0596
 9767TIP3    H153496   6.814   6.602  12.160  0.0670 -2.2817 -0.5980
 9767TIP3    H253497   6.766   6.585  12.018 -0.8181  0.4386 -0.6781
 9768TIP3   OH253498   7.141   0.857  11.678 -0.0476 -0.0670  0.0529
 9768TIP3    H153499   7.212   0.823  11.733  1.0648  1.0605 -0.6341
 9768TIP3    H253500   7.081   0.783  11.668  1.6247 -1.4500 -0.3324
 9769TIP3   OH253501   6.620   4.153  12.304  0.0705 -0.5233 -0.1863
 9769TIP3    H153502   6.641   4.242  12.332  1.4072 -0.9453  0.2513
 9769TIP3    H253503   6.537   4.132  12.347 -1.0748  1.0310 -1.5158
 9770TIP3   OH253504   4.848   1.118  11.236 -0.3624  0.0522 -0.2079
 9770TIP3    H153505   4.790   1.064  11.182 -1.6296  0.1071  1.0443
 9770TIP3    H253506   4.790   1.157  11.302  0.7782  1.7070 -0.1261
 9771TIP3   OH253507   5.757   3.580  12.360  0.0728  0.1876  0.3235
 9771TIP3    H153508   5.850   3.561  12.348  0.0964  0.6370 -0.2946
 9771TIP3    H253509   5.736   3.546  12.446  0.9343  0.5228  0.6761
 9772TIP3   OH253510   7.126   1.274  11.827 -0.0089 -0.0853 -0.0288
 9772TIP3    H153511   7.120   1.256  11.733 -2.8253  0.4297 -0.0333
 9772TIP3    H253512   7.078   1.202  11.868 -1.7759  1.4215  0.7138
 9773TIP3   OH253513   3.340   2.110  10.136  0.1116  0.2672 -0.4882
 9773TIP3    H153514   3.313   2.132  10.047  0.3149  0.7769 -0.4235
 9773TIP3    H253515   3.333   2.191  10.185  0.3367  0.0678 -0.1198
 9774TIP3   OH253516   1.516   0.387  11.377 -0.3450  0.2643  0.3497
 9774TIP3    H153517   1.528   0.380  11.283 -0.8502  0.2550  0.2838
 9774TIP3    H253518   1.536   0.300  11.411 -1.0800  0.0093  0.1465
 9775TIP3   OH253519   7.467   7.901  12.255 -0.1666  0.1412  0.3742
 9775TIP3    H153520   7.439   7.949  12.333 -0.1773  0.7253  0.0221
 9775TIP3    H253521   7.390   7.904  12.197 -0.4184 -0.9476  0.6409
 9776TIP3   OH253522   2.714   4.331  10.876 -0.2183 -0.2505 -0.2290
 9776TIP3    H153523   2.718   4.282  10.794  0.9010 -1.2113  0.3630
 9776TIP3    H253524   2.781   4.399  10.867  1.3522 -1.6093  0.6157
 9777TIP3   OH253525   7.232   8.180  11.758  0.5842  0.1644  0.0913
 9777TIP3    H153526   7.235   8.274  11.739 -0.8763  0.3773  0.7517
 9777TIP3    H253527   7.181   8.142  11.686  0.1071  0.0789  0.4669
 9778TIP3   OH253528   4.159   0.569  10.912 -0.5102 -0.1135 -0.7167
 9778TIP3    H153529   4.095   0.528  10.970 -0.3206 -0.0349 -0.4515
 9778TIP3    H253530   4.138   0.663  10.916  1.6310  0.3593  1.9223
 9779TIP3   OH253531   1.051   6.797  11.445  0.1047  0.4332  0.2479
 9779TIP3    H153532   1.039   6.783  11.539  2.5915 -1.0783  0.4409
 9779TIP3    H253533   1.061   6.708  11.409  0.9307  1.0515 -1.1424
 9780TIP3   OH253534   6.018   5.381  11.575  0.1349 -0.0046 -0.1347
 9780TIP3    H153535   5.923   5.387  11.579  0.0491 -1.2153  0.0738
 9780TIP3    H253536   6.040   5.311  11.637  0.7209 -3.2883 -3.7295
 9781TIP3   OH253537   4.650   3.238  11.604  0.4308  0.5907 -0.6690
 9781TIP3    H153538   4.648   3.200  11.692 -3.1902  2.4136  0.2444
 9781TIP3    H253539   4.678   3.328  11.617  0.0679  0.8200 -1.4254
 9782TIP3   OH253540   4.502   2.328  12.800 -0.1658 -0.1553 -0.3086
 9782TIP3    H153541   4.464   2.395  12.743 -0.3666 -0.8877 -1.0476
 9782TIP3    H253542   4.437   2.258  12.802  1.0524 -1.3829 -1.4930
 9783TIP3   OH253543   3.055   3.140  12.148  0.0643 -0.1155  0.4052
 9783TIP3    H153544   3.069   3.102  12.235  1.0292  0.1581  0.3814
 9783TIP3    H253545   2.963   3.165  12.148  0.2112  0.5664  1.6367
 9784TIP3   OH253546   2.170   7.496  10.924  0.0655 -0.2511  0.3302
 9784TIP3    H153547   2.149   7.415  10.971 -0.5297 -0.5960 -0.5078
 9784TIP3    H253548   2.234   7.470  10.858 -1.0748 -0.3103 -0.7816
 9785TIP3   OH253549   6.244   3.658  10.909 -0.1319  1.0843 -0.4856
 9785TIP3    H153550   6.156   3.647  10.947  0.2476  0.7241  0.3051
 9785TIP3    H253551   6.256   3.580  10.854 -0.6682  1.5897 -1.3467
 9786TIP3   OH253552   1.025   6.442  10.980 -0.1190 -0.4701  1.0578
 9786TIP3    H153553   0.992   6.459  11.068  0.5189 -0.3477  1.2808
 9786TIP3    H253554   1.057   6.352  10.984 -2.1622 -1.3022  0.2896
 9787TIP3   OH253555   6.357   2.057  11.422 -0.9508  0.3261 -0.3175
 9787TIP3    H153556   6.293   1.993  11.453 -0.4855 -0.4270 -0.8642
 9787TIP3    H253557   6.308   2.115  11.364 -1.8145  1.6990  1.6691
 9788TIP3   OH253558   4.952   8.424  12.139  0.0367  0.2765 -0.1774
 9788TIP3    H153559   5.042   8.392  12.149  0.4338  1.6850  0.9824
 9788TIP3    H253560   4.924   8.447  12.228 -1.8748 -1.0970 -0.3397
 9789TIP3   OH253561   2.231   2.635  11.227  0.3787  0.4321  0.6659
 9789TIP3    H153562   2.164   2.655  11.293  1.2497 -0.1144  1.7627
 9789TIP3    H253563   2.268   2.550  11.255 -0.8347 -1.0453 -1.8745
 9790TIP3   OH253564   0.094   4.458  12.257 -0.6388 -0.5870  0.0846
 9790TIP3    H153565   0.160   4.516  12.217 -1.0500  0.7386  1.2566
 9790TIP3    H253566   0.118   4.454  12.349 -1.0016 -1.8025  0.1441
 9791TIP3   OH253567   1.576   3.069  10.454 -0.4649 -0.3501 -0.0913
 9791TIP3    H153568   1.577   2.979  10.422  0.9868 -0.4820  0.2498
 9791TIP3    H253569   1.489   3.080  10.492 -0.0815 -2.2308  1.5137
 9792TIP3   OH253570   1.980   4.656  10.656  0.0563  0.1316 -0.0984
 9792TIP3    H153571   1.888   4.668  10.632 -0.1126 -0.6110  0.1534
 9792TIP3    H253572   2.009   4.743  10.683 -0.5999  0.3558 -0.0856
 9793TIP3   OH253573   4.387   7.937  11.243 -0.6292 -0.0351 -0.1376
 9793TIP3    H153574   4.299   7.903  11.230 -0.2338 -2.2140  2.1251
 9793TIP3    H253575   4.395   7.948  11.338  1.0702  1.5101 -0.3997
 9794TIP3   OH253576   4.482   7.924  10.673 -0.9068 -0.4111 -0.3424
 9794TIP3    H153577   4.555   7.871  10.703 -1.2106  0.9111  3.0785
 9794TIP3    H253578   4.427   7.862  10.624  1.4066 -1.8773 -1.2544
 9795TIP3   OH253579   4.781   0.093  11.720  0.2449 -0.8015 -0.3948
 9795TIP3    H153580   4.823   0.131  11.797 -0.0332 -0.5437 -0.3683
 9795TIP3    H253581   4.701   0.053  11.755  1.9307 -4.0536  0.1039
 9796TIP3   OH253582   2.598   1.931  11.208  0.0443  0.7099  0.0017
 9796TIP3    H153583   2.572   1.911  11.298 -0.6065 -0.6619 -0.4786
 9796TIP3    H253584   2.626   2.023  11.212 -1.5687  1.1860  1.2558
 9797TIP3   OH253585   3.102   6.699  11.369 -0.2413 -0.3550 -0.5862
 9797TIP3    H153586   3.039   6.665  11.305 -1.3661  0.1443  0.2145
 9797TIP3    H253587   3.170   6.632  11.374 -1.2864 -1.4633 -0.6678
 9798TIP3   OH253588   5.642   4.795  11.145 -0.1843 -0.0983 -0.3665
 9798TIP3    H153589   5.554   4.758  11.146 -0.7169  1.1401  0.4852
 9798TIP3    H253590   5.630   4.889  11.146  1.1555  0.1045 -0.4434
 9799TIP3   OH253591   7.291   4.405  12.181  0.2689 -0.3150  0.3738
 9799TIP3    H153592   7.349   4.481  12.184 -1.4080  1.0100  0.4469
 9799TIP3    H253593   7.342   4.334  12.220  2.4030  0.3730 -1.0218
 9800TIP3   OH253594   8.391   4.164  10.825  0.2558  0.4950  0.5030
 9800TIP3    H153595   8.353   4.090  10.778  0.3877  0.1721  0.9006
 9800TIP3    H253596   8.339   4.239  10.798 -0.5528  0.0893  0.9097
 9801TIP3   OH253597   1.201   4.294  11.385  0.0432  0.0969  0.3688
 9801TIP3    H153598   1.162   4.345  11.456 -1.7843  0.8267 -1.0652
 9801TIP3    H253599   1.247   4.359  11.332  0.3156 -0.2402  0.1891
 9802TIP3   OH253600   1.677   2.004  11.604 -1.0303  0.8958  0.7186
 9802TIP3    H153601   1.675   2.037  11.694 -0.5130 -0.1759  1.1389
 9802TIP3    H253602   1.619   2.063  11.556 -1.1657  1.6003  1.7121
 9803TIP3   OH253603   1.209   2.140  10.993  0.2511 -0.4597 -0.1555
 9803TIP3    H153604   1.293   2.108  10.960 -0.1032 -0.3777 -1.1957
 9803TIP3    H253605   1.204   2.230  10.960 -0.2838 -0.5048 -0.1987
 9804TIP3   OH253606   6.868   0.412  10.862  0.1285 -0.1746  0.2643
 9804TIP3    H153607   6.784   0.372  10.839  0.3350 -1.3571  1.3737
 9804TIP3    H253608   6.846   0.501  10.889 -0.7145 -0.3417  0.1565
 9805TIP3   OH253609   6.876   1.923  11.119  0.1364  0.1007  0.5406
 9805TIP3    H153610   6.964   1.885  11.125 -0.3571 -1.0327  0.7692
 9805TIP3    H253611   6.825   1.857  11.072 -0.4121  1.0930 -0.2800
 9806TIP3   OH253612   7.964   5.413  11.683  0.3182  0.2757  0.4708
 9806TIP3    H153613   7.970   5.507  11.694 -0.0827  0.3208  0.3243
 9806TIP3    H253614   8.046   5.389  11.638  0.1543  0.6352 -0.0305
 9807TIP3   OH253615   3.688   1.707  12.210 -0.2504 -0.1184 -0.4230
 9807TIP3    H153616   3.679   1.618  12.245  1.0554 -0.0130  0.2036
 9807TIP3    H253617   3.650   1.763  12.278  2.1463  0.0735  0.8407
 9808TIP3   OH253618   3.717   7.030  11.864  0.4016  0.6010  0.6833
 9808TIP3    H153619   3.778   7.089  11.908  1.7688 -0.6093  0.5022
 9808TIP3    H253620   3.682   6.975  11.934  2.5008 -1.2573  0.3801
 9809TIP3   OH253621   3.210   5.807  11.854 -0.5639 -0.0847  0.2565
 9809TIP3    H153622   3.259   5.728  11.876  1.0519  0.8628  0.1969
 9809TIP3    H253623   3.256   5.843  11.778 -0.1757  1.8221  1.3428
 9810TIP3   OH253624   3.792   1.926  11.093 -0.4985  0.9040 -0.1304
 9810TIP3    H153625   3.775   1.932  10.999  0.6489  0.3827 -0.3983
 9810TIP3    H253626   3.786   1.832  11.112  3.7328  0.3481 -0.6706
 9811TIP3   OH253627   0.568   3.788  11.402 -0.4839 -0.3900 -0.1410
 9811TIP3    H153628   0.502   3.729  11.364  0.0063  0.4518 -2.4821
 9811TIP3    H253629   0.629   3.805  11.330  1.2923  0.3029  1.4427
 9812TIP3   OH253630   1.843   1.951  11.225  0.0475  0.1366 -0.2996
 9812TIP3    H153631   1.755   1.980  11.202 -0.5658 -1.9066 -0.7004
 9812TIP3    H253632   1.873   2.016  11.289 -2.1350  0.3478  0.6120
 9813TIP3   OH253633   1.396   5.193  11.260  0.0465  0.3972  0.1187
 9813TIP3    H153634   1.484   5.154  11.258  0.9360  2.3190 -0.6277
 9813TIP3    H253635   1.391   5.235  11.346 -1.3190 -2.0571  1.3687
 9814TIP3   OH253636   3.686   8.150  11.677 -0.2747 -0.2289  0.7019
 9814TIP3    H153637   3.763   8.194  11.715 -0.1938  1.6227 -1.4130
 9814TIP3    H253638   3.664   8.082  11.741  3.9547 -1.8324  0.8205
 9815TIP3   OH253639   0.931   7.830  11.327  0.1539 -0.3305  0.2089
 9815TIP3    H153640   0.877   7.789  11.394  0.0483 -0.5674 -0.0194
 9815TIP3    H253641   0.990   7.888  11.375  0.5844 -1.0539  0.5688
 9816TIP3   OH253642   3.892   4.644  12.547 -0.1974 -0.1183  0.0082
 9816TIP3    H153643   3.940   4.563  12.562  2.1837  1.2189  0.1406
 9816TIP3    H253644   3.802   4.624  12.573  0.7704 -2.0544  2.2275
 9817TIP3   OH253645   8.113   6.826  10.586 -0.3565  0.0809  0.5222
 9817TIP3    H153646   8.055   6.832  10.662 -0.7475  0.2464  0.2129
 9817TIP3    H253647   8.099   6.737  10.554 -0.7306  0.2436  0.2222
 9818TIP3   OH253648   0.529   4.983  11.206  0.0298  0.2017 -0.4937
 9818TIP3    H153649   0.460   5.047  11.224 -1.0220 -0.7383 -1.0330
 9818TIP3    H253650   0.580   5.021  11.134  0.3250  1.0816  0.1722
 9819TIP3   OH253651   3.666   2.086  10.886 -0.8361 -0.2857 -0.1484
 9819TIP3    H153652   3.603   2.043  10.944 -2.0401 -0.1283 -1.3087
 9819TIP3    H253653   3.617   2.157  10.845  0.3042  0.3061 -0.5320
 9820TIP3   OH253654   5.855   0.035  12.752  0.7316  0.3010  0.5517
 9820TIP3    H153655   5.840  -0.060  12.761  0.7513  0.1228 -1.0660
 9820TIP3    H253656   5.938   0.041  12.705  0.3409  1.1195 -0.0393
 9821TIP3   OH253657   4.163   7.794  12.149  0.4138 -0.5016 -0.1401
 9821TIP3    H153658   4.213   7.833  12.222  0.0101  0.8112 -0.5293
 9821TIP3    H253659   4.188   7.702  12.149  3.1349  0.1446 -0.5420
 9822TIP3   OH253660   0.057   1.719  11.398 -0.0692 -0.2524  0.3674
 9822TIP3    H153661  -0.028   1.720  11.354  0.3432  0.9061 -0.4614
 9822TIP3    H253662   0.035   1.712  11.491 -1.2133  1.8555  0.3371
 9823TIP3   OH253663   4.858   7.892  11.819 -0.1308 -0.2578 -0.2449
 9823TIP3    H153664   4.922   7.926  11.881 -0.7928 -2.7738  1.9855
 9823TIP3    H253665   4.814   7.970  11.784  0.5653  1.2901  2.1270
 9824TIP3   OH253666   5.482   5.141  11.772 -0.0691  0.3932 -0.3468
 9824TIP3    H153667   5.438   5.131  11.856 -0.0831 -0.9386 -0.4990
 9824TIP3    H253668   5.418   5.112  11.707  0.5877 -0.3770 -0.6670
 9825TIP3   OH253669   1.159   0.449  12.383  0.5424 -0.5151 -0.1370
 9825TIP3    H153670   1.137   0.357  12.393  0.5615 -0.5568 -0.4893
 9825TIP3    H253671   1.247   0.457  12.421 -0.0093 -0.3658  1.1831
 9826TIP3   OH253672   0.333   5.203  10.906  0.0415  0.1406 -0.1778
 9826TIP3    H153673   0.303   5.117  10.937  3.0289 -1.3664 -1.0505
 9826TIP3    H253674   0.362   5.186  10.816 -0.8301  2.5106 -0.9718
 9827TIP3   OH253675   1.260   5.574  11.778  0.3065  0.0821 -0.2940
 9827TIP3    H153676   1.229   5.614  11.859 -0.7556 -1.4771  0.1337
 9827TIP3    H253677   1.287   5.647  11.723 -0.4523  1.2781  0.8637
 9828TIP3   OH253678   0.615   7.459  10.994 -0.3376 -0.0840 -0.1234
 9828TIP3    H153679   0.659   7.375  10.980 -0.7947 -0.3909  0.2508
 9828TIP3    H253680   0.681   7.514  11.037 -0.8511 -1.1139  2.1029
 9829TIP3   OH253681   0.514   7.752  11.701 -0.2567  0.2572 -0.1615
 9829TIP3    H153682   0.601   7.793  11.697  0.3335 -1.0400 -1.5034
 9829TIP3    H253683   0.520   7.677  11.643 -1.3900 -1.6283  2.0010
 9830TIP3   OH253684   3.974   1.543  12.295  0.1000 -0.4414 -0.0545
 9830TIP3    H153685   3.897   1.489  12.314  0.6219 -0.9663  0.5769
 9830TIP3    H253686   4.045   1.481  12.282  0.6894  0.0769  0.5859
 9831TIP3   OH253687   7.620   8.169  12.170 -0.3588  0.4541 -0.0948
 9831TIP3    H153688   7.662   8.200  12.250  1.5815  1.2026 -1.3273
 9831TIP3    H253689   7.612   8.074  12.182  1.9811  0.2248  0.1273
 9832TIP3   OH253690   7.024   5.279  10.646  0.1998 -0.4865 -0.1903
 9832TIP3    H153691   7.106   5.249  10.608 -0.1971 -1.3923 -0.3744
 9832TIP3    H253692   7.023   5.242  10.735  0.2184 -0.0524 -0.0055
 9833TIP3   OH253693   7.487   6.930  11.831  0.0771  0.2364  0.2486
 9833TIP3    H153694   7.476   7.022  11.807 -0.5524  0.0047 -0.3927
 9833TIP3    H253695   7.544   6.931  11.908 -0.6409  1.2175  0.7822
 9834TIP3   OH253696   4.793   7.429  11.648 -0.1063 -0.1288 -0.0989
 9834TIP3    H153697   4.698   7.419  11.648  0.0065 -2.4232  2.3457
 9834TIP3    H253698   4.809   7.509  11.597 -3.3463  0.6181 -0.1619
 9835TIP3   OH253699   0.024   0.354  12.614  0.3446 -0.4456  0.1435
 9835TIP3    H153700   0.027   0.258  12.621  0.4340 -0.3840  1.1107
 9835TIP3    H253701   0.049   0.372  12.524  1.2985 -1.2959  0.2195
 9836TIP3   OH253702   8.126   6.698  11.078  0.0396 -0.5827 -0.2541
 9836TIP3    H153703   8.064   6.629  11.101  0.1519 -0.8005 -0.6070
 9836TIP3    H253704   8.098   6.773  11.130  0.6781 -1.2495  1.1324
 9837TIP3   OH253705   1.765   6.652  12.273  0.3933 -0.1310  0.1282
 9837TIP3    H153706   1.773   6.560  12.248 -0.8900 -0.6027  1.3334
 9837TIP3    H253707   1.672   6.664  12.292  0.8055  0.9809  1.6113
 9838TIP3   OH253708   0.340   4.474  11.850  0.4804  0.3620  0.3810
 9838TIP3    H153709   0.270   4.491  11.913 -1.0248  1.9858 -1.5850
 9838TIP3    H253710   0.335   4.380  11.833  0.4202  0.0355  2.0701
 9839TIP3   OH253711   5.199   5.960  10.945 -0.2538  0.0075 -0.1982
 9839TIP3    H153712   5.293   5.950  10.931  0.1885  0.5361  2.0851
 9839TIP3    H253713   5.188   5.960  11.040 -2.4545  0.9850 -0.3906
 9840TIP3   OH253714   4.910   2.893  10.841 -0.2004 -0.0241  0.0153
 9840TIP3    H153715   4.894   2.975  10.888  0.1342  0.6709 -1.0598
 9840TIP3    H253716   4.837   2.887  10.779 -1.0045 -1.2723  1.0364
 9841TIP3   OH253717   7.184   0.035  11.393  0.0454  0.9760  0.7586
 9841TIP3    H153718   7.244   0.066  11.325 -0.9033  2.1235  0.4291
 9841TIP3    H253719   7.169  -0.057  11.370 -2.2020  1.8970 -2.1432
 9842TIP3   OH253720   5.501   1.197  12.530  0.0156 -0.0087  0.7424
 9842TIP3    H153721   5.435   1.213  12.597 -2.8943 -2.2054 -1.3939
 9842TIP3    H253722   5.500   1.277  12.477 -0.9784 -0.0490  0.6866
 9843TIP3   OH253723   7.144   6.313  10.723 -0.3488 -0.2711  0.0728
 9843TIP3    H153724   7.071   6.273  10.772 -1.2219 -0.0892 -1.0367
 9843TIP3    H253725   7.170   6.246  10.660  0.4471 -0.3244  0.4486
 9844TIP3   OH253726   7.555   2.664  11.332 -0.4809  0.8006 -0.2494
 9844TIP3    H153727   7.516   2.696  11.413 -0.6996 -0.2624  0.0797
 9844TIP3    H253728   7.488   2.606  11.295  0.4063 -0.3285 -0.1427
 9845TIP3   OH253729   1.722   6.080  10.313 -0.1003  0.0454 -0.5462
 9845TIP3    H153730   1.746   6.016  10.381  1.7583  1.3232  0.0779
 9845TIP3    H253731   1.749   6.039  10.231 -1.5460 -1.1383 -0.4632
 9846TIP3   OH253732   5.327   2.292  11.067  0.0886  0.2267  0.0865
 9846TIP3    H153733   5.417   2.286  11.099  0.1327 -0.1327 -0.0943
 9846TIP3    H253734   5.321   2.380  11.029  0.3777  0.2339  0.0555
 9847TIP3   OH253735   7.334   2.940  11.834  0.4169  0.1831  0.4202
 9847TIP3    H153736   7.412   2.952  11.779 -0.2389  0.7785 -0.3973
 9847TIP3    H253737   7.366   2.888  11.908  1.0697 -1.7755 -1.1156
 9848TIP3   OH253738   1.443   7.529  11.441  0.6369  0.0778  0.0588
 9848TIP3    H153739   1.391   7.543  11.362  0.0409  4.2204  0.9813
 9848TIP3    H253740   1.378   7.513  11.510  0.8275  1.0441  0.4748
 9849TIP3   OH253741   7.013   2.672  12.296  0.1578 -0.3122 -0.3183
 9849TIP3    H153742   7.000   2.607  12.365 -2.2783  0.2879 -0.0998
 9849TIP3    H253743   6.961   2.638  12.222  0.5818  0.3557 -0.9353
 9850TIP3   OH253744   8.295   5.483  12.521  0.1433 -0.0001 -0.8193
 9850TIP3    H153745   8.245   5.434  12.456  0.2665 -0.1326 -0.8148
 9850TIP3    H253746   8.248   5.469  12.603  0.4176 -0.4626 -0.7388
 9851TIP3   OH253747   1.357   3.205  11.679  0.1502  0.4801 -0.0243
 9851TIP3    H153748   1.320   3.141  11.618 -0.7155  1.3164 -0.4124
 9851TIP3    H253749   1.341   3.168  11.765  1.4629 -0.7617 -0.2710
 9852TIP3   OH253750   2.389   2.893  11.511 -0.1524  0.2027 -0.3643
 9852TIP3    H153751   2.448   2.842  11.566 -0.9710 -0.1886  0.1652
 9852TIP3    H253752   2.437   2.904  11.429  1.0308  0.6758  0.3510
 9853TIP3   OH253753   2.229   5.812  11.273  0.1304  0.2217 -0.2484
 9853TIP3    H153754   2.259   5.829  11.362  1.2495 -2.2089 -0.0829
 9853TIP3    H253755   2.176   5.732  11.280  2.6201 -1.7720 -2.0690
 9854TIP3   OH253756   4.875   5.734  11.607  0.2380 -0.0607  1.0491
 9854TIP3    H153757   4.927   5.658  11.583  1.3920  0.3008  2.3052
 9854TIP3    H253758   4.806   5.700  11.664  0.9401 -0.1334  1.8641
 9855TIP3   OH253759   0.350   0.816  10.594  0.0322 -0.1438 -0.5104
 9855TIP3    H153760   0.405   0.868  10.653  0.4777 -0.4139 -0.6774
 9855TIP3    H253761   0.305   0.880  10.540 -0.1578  0.0995 -0.0743
 9856TIP3   OH253762   0.164   1.497  12.005  0.4430  0.3665  0.4970
 9856TIP3    H153763   0.167   1.500  11.909  1.3319 -1.2435  0.4378
 9856TIP3    H253764   0.178   1.405  12.026  0.7204  0.7754  2.1988
 9857TIP3   OH253765   2.407   2.430  11.311 -0.1172 -0.2333 -0.1230
 9857TIP3    H153766   2.457   2.351  11.332  2.0564  1.0477 -0.1343
 9857TIP3    H253767   2.471   2.500  11.317 -1.9784  1.5527 -0.1255
 9858TIP3   OH253768   1.849   4.425  10.970  0.0460 -0.0627 -0.4030
 9858TIP3    H153769   1.813   4.337  10.983  1.1652 -0.4698  0.0632
 9858TIP3    H253770   1.866   4.457  11.058  0.7124  0.1540 -0.6029
 9859TIP3   OH253771   1.822   2.433  12.311  0.3046 -0.0350  0.4121
 9859TIP3    H153772   1.793   2.492  12.241  1.3437 -0.0631 -0.0662
 9859TIP3    H253773   1.763   2.358  12.304 -0.0180  0.2499 -0.0182
 9860TIP3   OH253774   4.739   0.069  11.989 -0.2383 -0.4828 -0.7723
 9860TIP3    H153775   4.703  -0.013  11.955  1.3817 -1.3664 -0.4458
 9860TIP3    H253776   4.814   0.043  12.042  0.1544  1.2051 -0.4209
 9861TIP3   OH253777   3.654   2.656  11.845 -0.3312 -0.0634 -0.4619
 9861TIP3    H153778   3.608   2.730  11.885  1.3372  1.7829 -1.8171
 9861TIP3    H253779   3.658   2.590  11.915  2.3927  2.9512  2.5272
 9862TIP3   OH253780   7.003   4.515  12.512  0.1326 -0.0858  0.2216
 9862TIP3    H153781   7.065   4.536  12.442  0.6595  2.2281  1.2716
 9862TIP3    H253782   7.053   4.525  12.592 -0.9559 -0.7405  1.0050
 9863TIP3   OH253783   6.068   7.181  12.903  0.0704 -0.5205 -0.0159
 9863TIP3    H153784   6.145   7.222  12.943  0.5377 -1.1929 -0.2138
 9863TIP3    H253785   6.012   7.254  12.878  0.6980 -0.0162  0.0307
 9864TIP3   OH253786   5.523   0.174  12.070  0.3638  0.0891 -0.5356
 9864TIP3    H153787   5.550   0.224  12.148  1.5613  1.4556 -1.7602
 9864TIP3    H253788   5.565   0.089  12.080 -0.4077 -0.1635  0.8291
 9865TIP3   OH253789   8.068   5.972  11.240  0.3293  0.0730 -0.0868
 9865TIP3    H153790   8.005   5.969  11.313  0.4849  0.1522  0.0517
 9865TIP3    H253791   8.045   6.051  11.192  0.3094  0.0909 -0.0479
 9866TIP3   OH253792   3.508   1.803  10.386  0.8327  0.1821 -0.5158
 9866TIP3    H153793   3.527   1.712  10.362  0.7051 -0.1394  0.5562
 9866TIP3    H253794   3.593   1.838  10.414  0.5095 -0.2779  1.1510
 9867TIP3   OH253795   7.079   6.808  12.122  0.3138 -0.4007 -0.0289
 9867TIP3    H153796   7.101   6.715  12.122  1.6014 -0.1135 -0.1778
 9867TIP3    H253797   6.998   6.814  12.071 -0.9502 -1.6779  1.7395
 9868TIP3   OH253798   7.277   7.558  11.543 -0.0151 -0.1065  0.4012
 9868TIP3    H153799   7.330   7.567  11.464  0.3119 -2.2709  0.3293
 9868TIP3    H253800   7.191   7.532  11.511  0.1164 -0.9828  0.7450
 9869TIP3   OH253801   6.897   0.117  11.413 -0.1796 -0.4480 -0.3083
 9869TIP3    H153802   6.985   0.079  11.415 -0.7123 -1.9207  2.8179
 9869TIP3    H253803   6.904   0.194  11.358  3.1442 -0.3719  0.0704
 9870TIP3   OH253804   3.028   7.567  11.732 -0.2421 -0.1223  0.1954
 9870TIP3    H153805   3.044   7.641  11.791 -1.9274 -0.2143  0.8061
 9870TIP3    H253806   2.970   7.602  11.665  0.5826 -0.3767 -0.6629
 9871TIP3   OH253807   1.510   6.307  10.847 -0.8204 -0.1115  0.0693
 9871TIP3    H153808   1.476   6.218  10.845  1.1320 -0.9099  0.3973
 9871TIP3    H253809   1.488   6.340  10.934 -1.2535 -0.3834  0.0646
 9872TIP3   OH253810   1.203   4.505  11.840  0.6762 -0.7917 -0.7025
 9872TIP3    H153811   1.177   4.588  11.880  0.9655 -0.1852 -1.7309
 9872TIP3    H253812   1.204   4.443  11.913 -2.0026 -0.4989 -0.3348
 9873TIP3   OH253813   4.595   2.829  11.873  0.0052  0.7512 -0.0612
 9873TIP3    H153814   4.632   2.745  11.844 -1.1087 -0.0023  0.5871
 9873TIP3    H253815   4.669   2.888  11.877  1.0850 -0.6019  0.8752
 9874TIP3   OH253816   8.259   4.406  10.520 -0.5746 -0.6373  0.0395
 9874TIP3    H153817   8.209   4.481  10.487  0.1455 -0.2404 -0.1822
 9874TIP3    H253818   8.193   4.348  10.558 -1.4111 -0.9303 -1.7441
 9875TIP3   OH253819   6.457   7.645  11.624  0.0552  0.1832  0.2208
 9875TIP3    H153820   6.427   7.557  11.645  1.0511 -0.3893 -0.6761
 9875TIP3    H253821   6.506   7.673  11.701  2.1025 -1.1670 -0.5033
 9876TIP3   OH253822   1.215   1.950  11.589 -0.0471  0.3288 -0.6088
 9876TIP3    H153823   1.153   1.931  11.659  1.3525  0.4886  0.7167
 9876TIP3    H253824   1.214   2.045  11.580  2.5929  0.7741  2.0225
 9877TIP3   OH253825   7.725   5.075  10.837 -0.1018 -0.3561  0.2417
 9877TIP3    H153826   7.717   4.986  10.803  0.9056  0.2046 -1.6043
 9877TIP3    H253827   7.642   5.092  10.881 -1.1649 -1.4550 -1.2665
 9878TIP3   OH253828   7.163   4.482  11.629 -0.7722 -0.1983  0.4700
 9878TIP3    H153829   7.126   4.566  11.654 -0.5824  0.2014 -0.5220
 9878TIP3    H253830   7.195   4.444  11.711 -1.3751  0.4359  1.0098
 9879TIP3   OH253831   0.836   2.776  11.124  0.0796 -0.4998  0.6370
 9879TIP3    H153832   0.786   2.782  11.206  0.6649 -1.3141  1.0674
 9879TIP3    H253833   0.906   2.840  11.134  0.8111 -1.3773  1.2612
 9880TIP3   OH253834   3.066   4.964  12.204 -0.2961 -0.3497 -0.2096
 9880TIP3    H153835   3.109   4.885  12.236 -1.1098 -0.1280  1.5625
 9880TIP3    H253836   2.995   4.980  12.266 -0.6991  1.2935 -1.0205
 9881TIP3   OH253837   2.308   8.043  11.428  0.2250 -0.6259  0.4804
 9881TIP3    H153838   2.249   8.098  11.481 -0.1448 -0.6782  0.1272
 9881TIP3    H253839   2.266   8.038  11.342  0.4272 -1.1891  0.4101
 9882TIP3   OH253840   2.246   1.078  11.173  0.2068  0.2973  0.2819
 9882TIP3    H153841   2.217   1.087  11.082 -0.7930 -1.1651  0.4172
 9882TIP3    H253842   2.198   1.147  11.219 -1.5283 -0.7341  0.1335
 9883TIP3   OH253843   2.716   2.449  11.769 -0.9030 -0.2157 -0.0932
 9883TIP3    H153844   2.632   2.459  11.726 -1.4738 -1.0802  0.7799
 9883TIP3    H253845   2.717   2.518  11.836 -0.7028  0.1124 -0.4352
 9884TIP3   OH253846   1.082   3.890  10.959  0.1640 -0.1320  0.0182
 9884TIP3    H153847   1.048   3.980  10.954 -0.9606 -0.5685 -0.6801
 9884TIP3    H253848   1.120   3.875  10.873  0.0318 -0.4332  0.0111
 9885TIP3   OH253849   5.299   2.288  10.723 -0.6515  0.0517  0.1782
 9885TIP3    H153850   5.323   2.208  10.676  0.4571  0.5295 -0.0901
 9885TIP3    H253851   5.323   2.270  10.814 -1.0051 -0.1513  0.2353
 9886TIP3   OH253852   6.300   0.952  11.883 -0.6298 -0.4822  0.3844
 9886TIP3    H153853   6.324   1.028  11.937  1.0073 -0.3485 -0.4605
 9886TIP3    H253854   6.247   0.989  11.813  0.8975  0.0915 -0.5315
 9887TIP3   OH253855   2.788   0.370  11.745  0.3373  0.2634 -0.2255
 9887TIP3    H153856   2.774   0.437  11.677  0.6706 -1.0001 -1.6049
 9887TIP3    H253857   2.782   0.287  11.698  1.4081 -0.6441  1.1478
 9888TIP3   OH253858   2.898   3.310  11.359  0.2590  0.3666 -0.9905
 9888TIP3    H153859   2.945   3.245  11.410  1.4838  0.0489 -2.4454
 9888TIP3    H253860   2.806   3.292  11.376  0.6068  0.2051  0.9582
 9889TIP3   OH253861   1.254   6.978  11.430  0.2428  0.0476 -0.5123
 9889TIP3    H153862   1.312   6.969  11.506  0.8105  2.5774 -0.5704
 9889TIP3    H253863   1.201   6.898  11.431  0.2909 -0.0541  2.4634
 9890TIP3   OH253864   5.011   8.146  12.627 -0.2218  0.2276  0.5468
 9890TIP3    H153865   5.072   8.196  12.574 -0.1448 -0.5732 -0.1512
 9890TIP3    H253866   4.933   8.138  12.573  0.4931 -2.1404 -0.2629
 9891TIP3   OH253867   5.534   3.594  10.832 -0.1721  0.2755  0.1932
 9891TIP3    H153868   5.600   3.566  10.896  0.2053  0.1296 -0.2539
 9891TIP3    H253869   5.532   3.689  10.839 -1.4269  0.1949  1.6939
 9892TIP3   OH253870   5.263   0.725  12.473 -0.5417  0.1731 -0.5435
 9892TIP3    H153871   5.298   0.794  12.417 -1.0673  0.0499 -1.0281
 9892TIP3    H253872   5.290   0.644  12.430  0.0884  0.0639  0.0335
 9893TIP3   OH253873   0.336   8.264  10.460  0.2299 -0.3873  0.3236
 9893TIP3    H153874   0.257   8.234  10.505 -0.7861 -1.1601 -1.8453
 9893TIP3    H253875   0.375   8.183  10.427  1.5963  0.0588  0.7847
 9894TIP3   OH253876   6.375   7.033  11.945 -0.3222 -0.1232 -0.2800
 9894TIP3    H153877   6.408   7.021  12.034 -0.4635  1.4323  0.0099
 9894TIP3    H253878   6.429   6.976  11.891  1.3788  0.6963  0.4823
 9895TIP3   OH253879   7.671   7.916  10.680 -0.3455  0.4378 -0.2372
 9895TIP3    H153880   7.645   7.889  10.768 -0.7840  2.5636  0.3441
 9895TIP3    H253881   7.756   7.958  10.693 -1.2586  2.4513 -0.4753
 9896TIP3   OH253882   7.171   5.118  12.121 -0.1178  0.4031 -0.0079
 9896TIP3    H153883   7.258   5.156  12.117  1.6458 -3.0728  1.1887
 9896TIP3    H253884   7.147   5.102  12.029 -0.2964  2.7899 -0.4412
 9897TIP3   OH253885   4.084   0.889  11.569  0.1133 -0.0531 -0.2955
 9897TIP3    H153886   4.174   0.914  11.592 -0.0748  0.2996  0.0720
 9897TIP3    H253887   4.030   0.959  11.605 -0.4949 -1.3478  1.4386
 9898TIP3   OH253888   7.347   6.778  11.050  0.1265 -0.2717  0.2152
 9898TIP3    H153889   7.358   6.873  11.055  1.5500 -0.3662 -0.6066
 9898TIP3    H253890   7.343   6.759  10.957  0.5281 -1.0733  0.3534
 9899TIP3   OH253891   3.816   4.942  12.110  0.0270  0.2926 -0.3070
 9899TIP3    H153892   3.898   4.930  12.157  0.5867  0.1346 -1.3119
 9899TIP3    H253893   3.837   4.924  12.019 -1.0802  0.4429 -0.6081
 9900TIP3   OH253894   3.182   7.559  10.383 -0.2222  0.2053  0.0094
 9900TIP3    H153895   3.264   7.607  10.367  0.1183 -0.1162  0.7574
 9900TIP3    H253896   3.205   7.495  10.450 -0.8402 -0.5637 -0.5089
 9901TIP3   OH253897   6.461   0.282  12.643  0.5990 -0.3136  0.2928
 9901TIP3    H153898   6.519   0.230  12.699  2.2994  0.5140 -0.6041
 9901TIP3    H253899   6.487   0.373  12.659 -0.5578  0.0972 -0.0494
 9902TIP3   OH253900   2.718   0.534  10.995  0.0517  0.0047 -0.1900
 9902TIP3    H153901   2.725   0.462  11.058 -0.9266 -0.9430 -1.1203
 9902TIP3    H253902   2.796   0.527  10.941 -0.2757 -0.6921 -0.5894
 9903TIP3   OH253903   2.074   6.260  10.600 -0.2451  0.2890  0.4907
 9903TIP3    H153904   2.039   6.273  10.511  0.4123  2.8084  0.5095
 9903TIP3    H253905   2.038   6.333  10.650  1.0150  0.0778  1.7624
 9904TIP3   OH253906   4.677   2.514  12.457  0.5687 -0.3208 -0.1860
 9904TIP3    H153907   4.674   2.554  12.544  0.5084 -2.2045  0.7365
 9904TIP3    H253908   4.643   2.425  12.471  3.5764 -1.7988 -1.4845
 9905TIP3   OH253909   7.678   2.061  11.505 -0.4362 -0.7965  0.4648
 9905TIP3    H153910   7.666   2.144  11.551 -0.1057 -0.5502  0.1125
 9905TIP3    H253911   7.589   2.035  11.479 -0.9115 -2.0084  3.0511
 9906TIP3   OH253912   1.221   7.584  12.115 -0.2652 -0.3890 -0.1437
 9906TIP3    H153913   1.182   7.509  12.069 -1.8725 -0.4639  1.2553
 9906TIP3    H253914   1.240   7.551  12.203 -0.3675  0.6464  0.2824
 9907TIP3   OH253915   7.944   7.161  11.108 -0.1050 -0.2921  0.4640
 9907TIP3    H153916   7.897   7.195  11.032  0.7494  0.1769  0.1246
 9907TIP3    H253917   8.036   7.182  11.090  0.1472 -0.4991  1.4639
 9908TIP3   OH253918   0.210   4.209  10.814 -0.2064  0.2773  0.1184
 9908TIP3    H153919   0.116   4.210  10.796 -0.4963 -1.1736  1.3224
 9908TIP3    H253920   0.232   4.116  10.823  2.0657  0.2817 -3.3882
 9909TIP3   OH253921   3.208   1.488  10.878  0.0842 -0.0523 -0.1866
 9909TIP3    H153922   3.301   1.470  10.892 -0.2529 -1.7918  0.0747
 9909TIP3    H253923   3.201   1.511  10.786  0.3347 -3.7903 -1.3177
 9910TIP3   OH253924   5.829   6.239  12.210 -0.8762  0.4953  0.4872
 9910TIP3    H153925   5.806   6.177  12.279 -0.1778  0.3008  0.5548
 9910TIP3    H253926   5.820   6.188  12.129 -0.4409  0.3402  0.5322
 9911TIP3   OH253927   5.411   7.412  10.812  0.1672 -0.3286 -0.0394
 9911TIP3    H153928   5.381   7.428  10.902 -0.5168 -0.8804 -0.1536
 9911TIP3    H253929   5.340   7.360  10.773  0.3582  0.0910 -0.9643
 9912TIP3   OH253930   5.081   4.336  11.613 -0.2723 -0.2391  0.0637
 9912TIP3    H153931   5.015   4.370  11.553 -1.3155 -3.7083 -0.9817
 9912TIP3    H253932   5.044   4.348  11.700 -0.6614  1.0306 -0.2606
 9913TIP3   OH253933   1.730   2.519  11.598 -0.1871  0.0663  0.2956
 9913TIP3    H153934   1.645   2.547  11.632 -1.9408 -2.5404 -1.5793
 9913TIP3    H253935   1.751   2.583  11.529  0.0440  1.4098  1.5632
 9914TIP3   OH253936   3.134   7.621  12.108  0.4529 -0.0510 -0.2049
 9914TIP3    H153937   3.144   7.586  12.196 -1.6078 -1.1633 -0.3420
 9914TIP3    H253938   3.052   7.672  12.111  0.6454  0.3658 -1.3273
 9915TIP3   OH253939   5.487   5.339  11.026 -0.8856 -0.4740 -0.0081
 9915TIP3    H153940   5.525   5.422  11.054  1.9438 -0.7838 -2.4323
 9915TIP3    H253941   5.392   5.352  11.036 -0.4341  1.6834  3.0011
 9916TIP3   OH253942   7.897   3.460  11.876 -0.2790 -0.7596  0.0785
 9916TIP3    H153943   7.810   3.426  11.896 -0.1302 -0.9015  0.4923
 9916TIP3    H253944   7.955   3.415  11.938 -0.2179  1.1166  1.4781
 9917TIP3   OH253945   5.718   7.756  10.792 -0.5313  0.3730  0.5102
 9917TIP3    H153946   5.645   7.818  10.794  0.2897  1.3735  1.8573
 9917TIP3    H253947   5.794   7.810  10.772 -0.1141 -0.6426 -0.8032
 9918TIP3   OH253948   3.402   0.483  10.796 -0.1373  0.3201  0.4315
 9918TIP3    H153949   3.333   0.457  10.736  0.0599 -0.3474  0.4890
 9918TIP3    H253950   3.471   0.418  10.785 -0.2424 -0.0250  1.6212
 9919TIP3   OH253951   5.835   5.463  12.559 -0.1595  0.6315  0.8980
 9919TIP3    H153952   5.858   5.380  12.518  2.0388  2.1696 -1.2474
 9919TIP3    H253953   5.739   5.460  12.566 -0.3974 -1.0259 -1.6034
 9920TIP3   OH253954   8.006   2.290  11.203  0.5856 -0.0571 -0.4088
 9920TIP3    H153955   8.032   2.370  11.158 -0.2844 -0.1303 -1.0727
 9920TIP3    H253956   8.031   2.219  11.144 -2.0940 -0.0846 -1.6654
 9921TIP3   OH253957   2.397   5.342  11.162  0.2764  0.5531 -0.5190
 9921TIP3    H153958   2.464   5.355  11.228  0.1999  0.5094 -0.4325
 9921TIP3    H253959   2.392   5.248  11.150  0.9256  0.6023 -1.2482
 9922TIP3   OH253960   3.265   4.916  10.540 -0.3149  0.2456  0.3414
 9922TIP3    H153961   3.272   4.836  10.489  2.0874  1.3289 -1.1836
 9922TIP3    H253962   3.210   4.892  10.615  0.0839 -2.7162 -0.2031
 9923TIP3   OH253963   3.791   3.790  12.510  0.3045  0.3868  0.2655
 9923TIP3    H153964   3.735   3.722  12.473 -0.3574 -0.1260  2.1129
 9923TIP3    H253965   3.789   3.861  12.446 -1.6260 -0.0377 -0.1809
 9924TIP3   OH253966   5.438   0.539  11.012 -0.4068  0.2338 -0.1401
 9924TIP3    H153967   5.482   0.581  11.085  0.0845 -0.0145 -0.2860
 9924TIP3    H253968   5.444   0.602  10.940  1.7111 -0.6487 -0.8274
 9925TIP3   OH253969   4.683   2.308  11.243 -0.6349 -0.2376 -0.1308
 9925TIP3    H153970   4.626   2.373  11.202 -0.5325 -0.1773 -0.1776
 9925TIP3    H253971   4.623   2.246  11.283 -0.7388 -0.4399 -0.5917
 9926TIP3   OH253972   5.236   1.222  11.344 -0.2980 -0.3073 -0.3669
 9926TIP3    H153973   5.324   1.186  11.333  0.6332  1.5121  0.7071
 9926TIP3    H253974   5.246   1.316  11.332 -2.3348 -0.1547 -1.3523
 9927TIP3   OH253975   7.960   1.146  11.311 -0.5032  0.2982 -0.2759
 9927TIP3    H153976   7.883   1.143  11.255 -1.0192 -0.2604  0.4365
 9927TIP3    H253977   8.012   1.218  11.277 -0.0676 -0.9353 -2.3885
 9928TIP3   OH253978   3.954   6.021  10.417 -0.0236 -0.0683  0.3004
 9928TIP3    H153979   4.019   6.084  10.449 -0.7314 -0.3978  2.5536
 9928TIP3    H253980   4.005   5.943  10.396  0.4976  0.2033  0.5185
 9929TIP3   OH253981   5.376   6.165  10.635 -0.3926  0.1712 -0.0055
 9929TIP3    H153982   5.326   6.154  10.716  1.9886  1.1883  1.7093
 9929TIP3    H253983   5.448   6.103  10.642 -1.2208 -1.2092 -2.3919
 9930TIP3   OH253984   2.322   1.724  11.174  0.0135  0.0214  0.5223
 9930TIP3    H153985   2.311   1.786  11.246  2.0945 -0.4434  1.3313
 9930TIP3    H253986   2.253   1.746  11.112 -0.9731  1.3618  2.0065
 9931TIP3   OH253987   4.662   7.726  10.779  0.2401  0.3951  0.2612
 9931TIP3    H153988   4.671   7.635  10.806 -1.4628  0.1672  0.1713
 9931TIP3    H253989   4.623   7.770  10.855 -0.7383  0.6258 -0.3588
 9932TIP3   OH253990   0.467   7.829  12.124 -0.5045 -0.0969  0.2987
 9932TIP3    H153991   0.498   7.899  12.067 -3.2807  0.1687 -1.0682
 9932TIP3    H253992   0.465   7.868  12.211  0.0355  0.8087 -0.0776
 9933TIP3   OH253993   4.218   3.044  11.502  0.2169  0.6392 -0.6186
 9933TIP3    H153994   4.223   3.002  11.417 -0.9656 -1.5510  0.3212
 9933TIP3    H253995   4.263   2.984  11.561 -3.1386 -0.4360  1.1181
 9934TIP3   OH253996   7.118   1.647  11.650 -0.2312  0.1825 -0.3855
 9934TIP3    H153997   7.032   1.686  11.637 -0.8732 -0.9214  0.2969
 9934TIP3    H253998   7.132   1.653  11.745  1.0173  1.4638 -0.6223
 9935TIP3   OH253999   2.065   7.275  11.051  0.4924  0.7010 -0.0874
 9935TIP3    H154000   2.102   7.239  11.132 -0.2007  3.1946  1.4495
 9935TIP3    H254001   1.974   7.244  11.051  1.0926 -1.2145 -1.1998
 9936TIP3   OH254002   6.652   7.449  12.610  0.0523 -0.0138  0.8315
 9936TIP3    H154003   6.733   7.487  12.644  0.5313 -0.5701  0.3228
 9936TIP3    H254004   6.680   7.388  12.543 -0.8050 -0.0936  0.5340
 9937TIP3   OH254005   5.974   6.795  12.563 -0.3297  0.1445  0.1937
 9937TIP3    H154006   5.882   6.818  12.554 -0.5017 -0.5428  0.1524
 9937TIP3    H254007   6.015   6.827  12.482 -0.6812 -0.2735 -0.1512
 9938TIP3   OH254008   1.701   1.591  11.601 -0.0899 -0.2807 -0.1476
 9938TIP3    H154009   1.754   1.660  11.560  0.6405 -0.2334  0.8408
 9938TIP3    H254010   1.616   1.632  11.615 -0.0027  0.0600 -0.5880
 9939TIP3   OH254011   7.150   4.710  10.791  0.1161  0.0138  0.1657
 9939TIP3    H154012   7.074   4.652  10.786 -0.7946  0.8419  2.9848
 9939TIP3    H254013   7.225   4.651  10.785 -0.7761 -1.4682  2.3404
 9940TIP3   OH254014   7.573   3.026  12.255 -0.1631  0.4057  0.2719
 9940TIP3    H154015   7.529   3.088  12.314 -2.0793  0.3002 -0.9410
 9940TIP3    H254016   7.603   3.080  12.182  3.0092  0.6897  1.6166
 9941TIP3   OH254017   5.210   3.447  11.652  0.7393 -0.4430  0.1572
 9941TIP3    H154018   5.129   3.448  11.702  0.8330  1.1408  0.3340
 9941TIP3    H254019   5.183   3.438  11.561  0.3414  0.3642  0.1919
 9942TIP3   OH254020   1.706   5.542  12.526  0.5537 -0.1926  0.4971
 9942TIP3    H154021   1.627   5.528  12.475  2.2395  0.5920 -2.6311
 9942TIP3    H254022   1.691   5.625  12.571 -0.5675 -0.3084  0.3669
 9943TIP3   OH254023   0.073   3.271  10.791  0.3819  0.1085 -0.0327
 9943TIP3    H154024   0.054   3.201  10.729  1.3402 -1.1096  0.9806
 9943TIP3    H254025   0.049   3.234  10.876 -0.0727  1.4079  0.4274
 9944TIP3   OH254026   3.814   8.112  12.161 -0.6294 -0.5137 -0.3236
 9944TIP3    H154027   3.837   8.048  12.228 -0.8057 -0.6575 -0.4002
 9944TIP3    H254028   3.861   8.192  12.187 -1.9176 -0.0930  0.8630
 9945TIP3   OH254029   0.254   3.863  11.631  0.1548 -1.0577  0.1704
 9945TIP3    H154030   0.238   3.788  11.574 -2.8841 -0.9696  0.7558
 9945TIP3    H254031   0.266   3.937  11.571  2.7881 -1.8581 -0.3960
 9946TIP3   OH254032   0.232   6.002  11.655 -0.0171 -0.4175 -0.5888
 9946TIP3    H154033   0.160   5.956  11.611  0.0760  0.1914 -1.4045
 9946TIP3    H254034   0.211   6.095  11.644 -1.0785 -0.1609  2.4240
 9947TIP3   OH254035   7.873   7.436  11.248  0.4564 -0.0877  0.5972
 9947TIP3    H154036   7.784   7.419  11.279  0.4927  0.6022  1.1196
 9947TIP3    H254037   7.889   7.368  11.182 -0.8485  0.4487 -0.3097
 9948TIP3   OH254038   0.062   7.204  11.011 -0.1414 -0.1695  0.0213
 9948TIP3    H154039   0.131   7.159  11.060 -1.6501 -1.5008  1.0025
 9948TIP3    H254040   0.053   7.153  10.931 -1.4406 -1.3438  0.8690
 9949TIP3   OH254041   3.437   3.065  11.577  0.0574 -0.1171 -0.6764
 9949TIP3    H154042   3.487   3.012  11.515 -0.8867 -0.4199 -1.1966
 9949TIP3    H254043   3.349   3.068  11.541 -0.3355  0.3324  0.2756
 9950TIP3   OH254044   1.873   2.050  10.368 -0.1353  0.3782  0.6357
 9950TIP3    H154045   1.795   2.096  10.399 -1.0959 -0.4186 -0.4798
 9950TIP3    H254046   1.883   2.078  10.277  0.8705  0.4310  0.7486
 9951TIP3   OH254047   2.891   6.577  11.805  0.6319  0.5158  0.0412
 9951TIP3    H154048   2.928   6.651  11.756  1.1929 -0.8089 -1.6432
 9951TIP3    H254049   2.910   6.501  11.751 -1.7706 -0.6434  0.6762
 9952TIP3   OH254050   6.223   7.915  10.499 -0.0644 -0.1579 -0.0507
 9952TIP3    H154051   6.216   7.965  10.581 -0.7772 -1.0240  0.4301
 9952TIP3    H254052   6.286   7.846  10.518  1.9545  1.2765 -1.1229
 9953TIP3   OH254053   0.355   7.695  11.929 -0.3226  0.0064 -0.3599
 9953TIP3    H154054   0.411   7.702  11.852 -1.7456 -0.6244 -1.5210
 9953TIP3    H254055   0.405   7.734  12.000  1.2133  0.2173 -1.5170
 9954TIP3   OH254056   7.788   7.757  11.852 -0.2955  0.0110  0.5066
 9954TIP3    H154057   7.746   7.681  11.813 -2.0127  0.7827  0.7395
 9954TIP3    H254058   7.871   7.765  11.805 -0.3139 -1.6675  0.1177
 9955TIP3   OH254059   5.406   2.395  11.397  0.1523  0.6451  0.3478
 9955TIP3    H154060   5.475   2.437  11.449  1.7110 -1.3736  0.0580
 9955TIP3    H254061   5.387   2.457  11.327 -0.9378  2.7834  2.4142
 9956TIP3   OH254062   7.005   8.031  11.892  0.4885 -0.1371 -0.8287
 9956TIP3    H154063   7.083   8.076  11.860  0.0029  0.5431 -1.0905
 9956TIP3    H254064   6.993   8.063  11.981  1.0974 -1.0409 -0.4082
 9957TIP3   OH254065   3.174   5.626  12.406 -0.0934 -0.1360  0.4440
 9957TIP3    H154066   3.192   5.717  12.384  0.7893 -0.3243  0.3359
 9957TIP3    H254067   3.220   5.612  12.488 -1.3218 -0.1285  1.1553
 9958TIP3   OH254068   4.814   7.831  12.102 -0.8340 -0.0020  0.1310
 9958TIP3    H154069   4.873   7.759  12.123 -0.0967  0.7020  0.5183
 9958TIP3    H254070   4.777   7.808  12.017 -0.4649 -0.7362  0.1621
 9959TIP3   OH254071   6.239   1.126  10.935 -0.1096 -0.5836  0.3085
 9959TIP3    H154072   6.329   1.111  10.963 -0.1929  0.6758  1.3854
 9959TIP3    H254073   6.238   1.103  10.842  1.2148 -0.9943  0.3821
 9960TIP3   OH254074   6.564   6.545  10.502  0.1728  0.8820  0.4508
 9960TIP3    H154075   6.573   6.462  10.454  0.1231  0.5840  0.9424
 9960TIP3    H254076   6.600   6.525  10.589  0.3372  1.4361  0.5093
 9961TIP3   OH254077   2.979   1.696  12.642  0.0969 -0.3155  0.6150
 9961TIP3    H154078   3.059   1.745  12.623  0.5605 -0.6135  1.7196
 9961TIP3    H254079   2.972   1.632  12.572  0.5475  0.0417  0.2372
 9962TIP3   OH254080   2.471   3.289  11.190  0.3049  0.0955  0.2874
 9962TIP3    H154081   2.437   3.300  11.102  1.7268 -1.1972 -0.4644
 9962TIP3    H254082   2.530   3.363  11.203 -0.7268  0.8888  0.6009
 9963TIP3   OH254083   1.455   1.798  10.775 -0.2293 -0.2942 -0.3058
 9963TIP3    H154084   1.527   1.815  10.714  0.3737 -1.6919 -0.0398
 9963TIP3    H254085   1.404   1.729  10.733 -1.8599  1.1402 -0.8009
 9964TIP3   OH254086   0.304   3.482  11.939 -0.1640 -0.1352  0.6903
 9964TIP3    H154087   0.348   3.554  11.984 -0.1068 -0.9890  2.0844
 9964TIP3    H254088   0.356   3.405  11.961  0.0150 -0.5807 -1.1008
 9965TIP3   OH254089   1.192   6.862  12.462 -0.1941  0.6434 -0.0624
 9965TIP3    H154090   1.151   6.937  12.418  0.8524  0.8004 -0.8056
 9965TIP3    H254091   1.273   6.896  12.498  0.6631 -0.2747 -1.0502
 9966TIP3   OH254092   3.805   3.567  12.704 -0.3895  0.2740  0.0430
 9966TIP3    H154093   3.823   3.659  12.682 -1.5255  0.7050  0.8465
 9966TIP3    H254094   3.720   3.549  12.664 -0.7364 -0.0565  0.9035
 9967TIP3   OH254095   0.132   6.522  11.356 -0.0139 -0.7892 -0.0745
 9967TIP3    H154096   0.211   6.528  11.302  0.1411 -0.6077  0.1681
 9967TIP3    H254097   0.074   6.590  11.322  0.7877  0.5571  1.1156
 9968TIP3   OH254098   4.206   5.050  12.431 -0.5240  0.5054 -0.8434
 9968TIP3    H154099   4.217   5.129  12.483 -0.1680  0.7097 -1.2161
 9968TIP3    H254100   4.119   5.017  12.453 -0.8371  1.2271 -0.9927
 9969TIP3   OH254101   1.720   3.689  11.387 -0.0201  0.1657  0.5027
 9969TIP3    H154102   1.795   3.644  11.348  2.1051  2.8747  1.1640
 9969TIP3    H254103   1.708   3.648  11.472 -0.8117 -1.7637 -0.4780
 9970TIP3   OH254104   2.211   4.325  10.476 -0.2605  0.5529 -0.3426
 9970TIP3    H154105   2.256   4.314  10.560  0.4842  0.1372 -0.7895
 9970TIP3    H254106   2.145   4.392  10.493 -0.0564  0.5383  0.5528
 9971TIP3   OH254107   7.007   1.234  11.207  0.6761 -0.0874 -0.0771
 9971TIP3    H154108   7.061   1.202  11.279  0.5609  1.5659  0.7869
 9971TIP3    H254109   6.921   1.249  11.246  1.1223  2.7403  0.0140
 9972TIP3   OH254110   3.443   3.574  11.080 -0.4468  0.4003 -0.2634
 9972TIP3    H154111   3.457   3.657  11.125  0.1037 -0.4243  1.1794
 9972TIP3    H254112   3.459   3.508  11.147 -0.4635 -0.8890 -1.4790
 9973TIP3   OH254113   5.269   4.076  11.325  0.1982 -0.2100  0.0521
 9973TIP3    H154114   5.219   4.086  11.407 -0.9775  0.3983 -0.6986
 9973TIP3    H254115   5.253   3.986  11.298 -1.2409  0.2035 -0.6029
 9974TIP3   OH254116   2.072   5.523  10.490 -0.0639 -0.2725  0.0013
 9974TIP3    H154117   2.090   5.545  10.582 -0.0839  0.3903 -0.1470
 9974TIP3    H254118   1.980   5.545  10.479 -0.1835 -0.7887 -0.0604
 9975TIP3   OH254119   2.434   1.247  12.369 -0.3568  0.2550  0.2122
 9975TIP3    H154120   2.401   1.316  12.427  0.1169  1.1982 -0.6217
 9975TIP3    H254121   2.485   1.190  12.426 -1.1532  0.3131  1.0037
 9976TIP3   OH254122   6.094   7.617  12.430 -0.3471  0.1382 -0.2769
 9976TIP3    H154123   6.189   7.625  12.423 -0.2358  0.3441  1.0891
 9976TIP3    H254124   6.062   7.707  12.419 -0.0952  0.6390  2.4178
 9977TIP3   OH254125   0.768   1.960  11.852  0.8617 -0.4338 -0.4507
 9977TIP3    H154126   0.784   1.866  11.857  2.3216 -0.1658  0.9871
 9977TIP3    H254127   0.679   1.968  11.819  1.1545 -2.2829 -1.8361
 9978TIP3   OH254128   6.369   2.860  11.086  0.1842  0.5169 -0.2448
 9978TIP3    H154129   6.398   2.950  11.073  0.4534  0.6724  1.2006
 9978TIP3    H254130   6.449   2.809  11.087  0.0225  0.2378 -1.1862
 9979TIP3   OH254131   7.003   3.251  11.312  0.3800 -0.0323  0.1536
 9979TIP3    H154132   6.935   3.279  11.374  1.0523  1.1481  0.4002
 9979TIP3    H254133   7.039   3.172  11.350 -0.3213 -0.2328  0.4220
 9980TIP3   OH254134   4.349   2.474  11.214 -0.5385  0.0661  0.0941
 9980TIP3    H154135   4.420   2.467  11.150  0.3748  0.2591  1.0495
 9980TIP3    H254136   4.274   2.507  11.164  0.7713  2.4374 -0.4404
 9981TIP3   OH254137   1.855   6.095  11.725  0.1890  0.4495 -0.4714
 9981TIP3    H154138   1.846   6.074  11.632 -0.9968  1.3822 -0.5975
 9981TIP3    H254139   1.923   6.161  11.729  0.5697  0.0683 -0.6202
 9982TIP3   OH254140   2.232   7.136  10.853  0.2013  0.0772  0.6422
 9982TIP3    H154141   2.303   7.198  10.837  0.0026  0.1342 -0.0641
 9982TIP3    H254142   2.183   7.174  10.926  0.2425  0.6239  0.3942
 9983TIP3   OH254143   4.303   2.646  12.150 -0.0039  0.0284 -0.0294
 9983TIP3    H154144   4.302   2.569  12.207  0.7210  0.3627  0.4482
 9983TIP3    H254145   4.385   2.690  12.171  0.0346  0.4348 -0.9684
 9984TIP3   OH254146   0.170   0.469  11.092 -0.2273 -0.5118 -0.5224
 9984TIP3    H154147   0.236   0.418  11.138  0.5364  0.1836 -0.8347
 9984TIP3    H254148   0.133   0.408  11.028  1.7343 -0.2923 -1.9381
 9985TIP3   OH254149   1.134   2.481  11.382 -0.0511  0.1301 -0.3999
 9985TIP3    H154150   1.087   2.470  11.465 -1.6628  0.5988 -1.2173
 9985TIP3    H254151   1.157   2.573  11.379 -0.1376  0.1461 -0.5545
 9986TIP3   OH254152   2.171   2.910  10.668  0.4922  0.8751  0.4231
 9986TIP3    H154153   2.254   2.890  10.711  1.0943 -1.8187 -1.7119
 9986TIP3    H254154   2.196   2.955  10.587 -0.0721 -0.1966 -0.3655
 9987TIP3   OH254155   2.007   1.803  11.072 -0.0893 -0.5501  0.3382
 9987TIP3    H154156   1.986   1.710  11.059  0.4782 -0.5090 -1.0437
 9987TIP3    H254157   1.944   1.832  11.138 -0.6093 -1.7920  0.4322
 9988TIP3   OH254158   5.019   1.648  10.078  0.0173 -0.1911 -0.1284
 9988TIP3    H154159   5.009   1.707  10.152  1.2174  1.3741 -1.1510
 9988TIP3    H254160   5.114   1.634  10.071 -0.2559 -2.9819  0.5979
 9989TIP3   OH254161   0.298   5.156  11.270  0.0933  0.0658 -0.0669
 9989TIP3    H154162   0.211   5.150  11.231  0.1445 -0.7486 -0.0875
 9989TIP3    H254163   0.292   5.104  11.351 -0.4338  2.9502  1.8847
 9990TIP3   OH254164   3.751   5.359  10.261 -0.4710 -0.5322  0.1841
 9990TIP3    H154165   3.723   5.434  10.312 -0.2006 -0.6514  0.5161
 9990TIP3    H254166   3.684   5.348  10.193 -0.2694  0.2897 -0.1576
 9991TIP3   OH254167   0.870   4.821  10.700 -0.0485  0.2885  0.1139
 9991TIP3    H154168   0.781   4.791  10.682  0.0310 -0.5307  0.9924
 9991TIP3    H254169   0.924   4.743  10.688  0.3073  0.3249  1.3544
 9992TIP3   OH254170   6.216   5.185  11.796 -0.2667  0.5571 -0.2802
 9992TIP3    H154171   6.135   5.134  11.799 -0.6954  1.2558  0.0644
 9992TIP3    H254172   6.285   5.118  11.794 -0.8328 -0.0432 -0.2702
 9993TIP3   OH254173   5.197   6.507  11.336 -0.3198 -0.3367  0.2571
 9993TIP3    H154174   5.135   6.569  11.374  1.3673  0.8775  1.1907
 9993TIP3    H254175   5.247   6.559  11.273  1.0429 -0.7506  0.9537
 9994TIP3   OH254176   2.067   8.270  11.872  0.0562 -0.5150  0.2363
 9994TIP3    H154177   2.113   8.202  11.822  1.9707  0.7558  0.1761
 9994TIP3    H254178   2.118   8.280  11.952  1.0842  2.2096 -0.6289
 9995TIP3   OH254179   3.310   2.126  10.634 -0.5269  0.0395  0.2002
 9995TIP3    H154180   3.308   2.062  10.564 -0.1385  0.4943 -0.2264
 9995TIP3    H254181   3.271   2.080  10.709  1.3306 -1.2920  0.4241
 9996TIP3   OH254182   6.127   6.444  11.666  0.5370 -0.1196  0.0090
 9996TIP3    H154183   6.051   6.498  11.643 -0.4273 -1.0682  0.8217
 9996TIP3    H254184   6.149   6.471  11.755  0.8539 -0.1842 -0.0495
 9997TIP3   OH254185   3.605   7.354  10.966  0.4910 -0.5227 -0.4819
 9997TIP3    H154186   3.618   7.322  10.877 -0.1258  2.2186 -1.6786
 9997TIP3    H254187   3.660   7.432  10.972 -1.7062  1.0826  0.4181
 9998TIP3   OH254188   7.532   0.152  10.413  0.2389 -0.4853 -0.4090
 9998TIP3    H154189   7.455   0.151  10.357  0.6995 -3.6965 -1.1582
 9998TIP3    H254190   7.503   0.110  10.494  0.2639  1.8412  0.9197
 9999TIP3   OH254191   6.318   1.393  11.961  0.3696  0.0358 -0.5474
 9999TIP3    H154192   6.411   1.384  11.982  1.0995  2.1352 -2.4608
 9999TIP3    H254193   6.303   1.331  11.889  0.1672 -0.5281 -0.0345
10000TIP3   OH254194   3.975   5.724  11.986 -0.4488 -0.0900 -0.1533
10000TIP3    H154195   4.027   5.649  11.959 -0.8287 -0.7204  0.8270
10000TIP3    H254196   4.038   5.783  12.028 -0.0784  0.3443 -1.2842
10001TIP3   OH254197   3.355   8.084  11.670 -0.0432 -0.2469 -0.3636
10001TIP3    H154198   3.385   8.034  11.594 -1.3200 -0.8371 -0.4943
10001TIP3    H254199   3.384   8.032  11.746  1.8801  0.7104 -0.3865
10002TIP3   OH254200   7.598   6.384  11.790  0.2788  0.4666 -0.0461
10002TIP3    H154201   7.503   6.369  11.795  0.3676  0.2855  1.6558
10002TIP3    H254202   7.628   6.323  11.723 -0.4703 -1.4370  1.2586
10003TIP3   OH254203   4.301   6.182  11.639 -0.0915 -0.1453  0.1845
10003TIP3    H154204   4.277   6.274  11.627 -1.3029 -0.5694 -0.8284
10003TIP3    H254205   4.386   6.186  11.684 -1.3662  1.4394  2.7239
10004TIP3   OH254206   4.993   7.439  10.941 -0.2692  0.5231  0.0926
10004TIP3    H154207   5.069   7.492  10.918  0.0689 -0.1974 -0.4852
10004TIP3    H254208   5.028   7.353  10.962 -1.0813 -0.7343 -3.0874
10005TIP3   OH254209   2.001   4.595  11.280 -0.3660  0.1250  0.0980
10005TIP3    H154210   2.081   4.608  11.229  0.5987 -1.8894  1.0177
10005TIP3    H254211   1.985   4.680  11.321  2.6182  0.0250  1.6953
10006TIP3   OH254212   1.716   6.024  11.950  0.7091 -0.3671 -0.2508
10006TIP3    H154213   1.636   6.074  11.931  1.0120  0.3779  0.3719
10006TIP3    H254214   1.766   6.027  11.869  0.9408  0.7848 -0.0896
10007TIP3   OH254215   8.287   6.611  11.352  0.1531 -0.0892  0.0432
10007TIP3    H154216   8.275   6.517  11.336 -2.8143  0.2984 -0.6064
10007TIP3    H254217   8.309   6.647  11.267 -0.5797  0.0241 -0.1042
10008TIP3   OH254218   8.235   2.603  11.968 -0.0171  0.4122  0.6091
10008TIP3    H154219   8.211   2.681  11.918 -1.2981  0.0090  0.5580
10008TIP3    H254220   8.234   2.532  11.904 -1.1522 -0.0148  1.0618
10009TIP3   OH254221   6.896   7.537  12.695  0.6680  0.1472  0.2466
10009TIP3    H154222   6.929   7.567  12.780  0.1794 -1.7499  1.1600
10009TIP3    H254223   6.973   7.504  12.649  0.7397 -0.0033  0.4766
10010TIP3   OH254224   6.160   7.267  10.754 -0.0188  0.1207 -0.1272
10010TIP3    H154225   6.084   7.233  10.707 -0.0007 -2.1573  1.3522
10010TIP3    H254226   6.235   7.224  10.713  0.3018  0.7046 -0.1693
10011TIP3   OH254227   5.270   1.474  11.263 -0.0891 -0.6360 -0.3952
10011TIP3    H154228   5.288   1.556  11.309  0.8920 -1.3025  0.4664
10011TIP3    H254229   5.325   1.478  11.186 -2.5632  0.9857 -2.2331
10012TIP3   OH254230   1.451   4.456  10.831 -0.6459 -0.5029  0.3814
10012TIP3    H154231   1.377   4.515  10.846 -0.3178 -0.2958  1.2568
10012TIP3    H254232   1.478   4.430  10.919  0.8290  0.0580  0.1165
10013TIP3   OH254233   8.412   3.367  11.342  0.1303 -0.1757  1.0222
10013TIP3    H154234   8.347   3.437  11.341  0.5689  0.2290  0.6210
10013TIP3    H254235   8.360   3.287  11.334 -0.2599  0.1917 -0.6196
10014TIP3   OH254236   6.219   3.722  11.672  0.2773 -0.3163 -0.3303
10014TIP3    H154237   6.254   3.717  11.761 -0.9814 -1.9651  0.1342
10014TIP3    H254238   6.237   3.811  11.643  0.3512  0.3895  1.7419
10015TIP3   OH254239   1.288   2.329  10.740 -0.3039  0.0443  0.1018
10015TIP3    H154240   1.197   2.342  10.767  0.2676 -0.0079  2.2688
10015TIP3    H254241   1.335   2.404  10.778  0.6740 -0.3327 -0.3193
10016TIP3   OH254242   8.203   3.833  10.931 -0.1399  0.3665 -0.8146
10016TIP3    H154243   8.243   3.755  10.970 -1.1330  0.2762  0.0797
10016TIP3    H254244   8.277   3.890  10.909  0.6222 -0.9717 -1.8516
10017TIP3   OH254245   4.886   8.257  11.879  0.4140 -0.1351 -0.1687
10017TIP3    H154246   4.956   8.318  11.904 -0.9174  1.1647  0.6040
10017TIP3    H254247   4.826   8.258  11.953 -1.8640  1.0389 -1.8656
10018TIP3   OH254248   3.195   6.408  11.384  0.4615  0.4108 -0.2609
10018TIP3    H154249   3.245   6.326  11.386 -0.9401 -0.5246 -1.5824
10018TIP3    H254250   3.117   6.387  11.333 -1.3748  1.7899  1.8416
10019TIP3   OH254251   6.455   4.410  11.982  0.2608 -0.8316  0.7090
10019TIP3    H154252   6.414   4.413  12.068 -1.4331  2.6366 -0.0725
10019TIP3    H254253   6.384   4.424  11.920  1.8563 -0.1045 -1.0637
10020TIP3   OH254254   3.002   3.048  10.875 -0.3370  0.5199 -0.1047
10020TIP3    H154255   3.050   2.975  10.837 -0.6700 -0.8977  2.0676
10020TIP3    H254256   2.910   3.020  10.875 -0.4497  0.8403  0.9243
10021TIP3   OH254257   7.016   3.341  12.067  0.2491  0.6804 -0.3506
10021TIP3    H154258   7.083   3.307  12.007  0.3286  0.5622 -0.1959
10021TIP3    H254259   6.938   3.351  12.013 -0.7213 -2.6371  0.1987
10022TIP3   OH254260   1.051   5.433  11.673  0.1626 -0.6325  0.0116
10022TIP3    H154261   1.003   5.425  11.755 -0.5089  0.0661 -0.2941
10022TIP3    H254262   1.127   5.486  11.695 -0.0693 -0.3620  0.1726
10023TIP3   OH254263   4.658   3.888  10.631 -0.5156  0.4605  0.1045
10023TIP3    H154264   4.609   3.958  10.673 -2.3856  0.8707 -2.4775
10023TIP3    H254265   4.591   3.825  10.604  0.9649 -1.5729  0.9642
10024TIP3   OH254266   2.565   2.981  11.008  0.2917 -0.3398 -0.1855
10024TIP3    H154267   2.549   3.075  10.996  0.2885 -0.2817  0.2563
10024TIP3    H254268   2.647   2.965  10.963  0.3892 -0.0858 -0.1025
10025TIP3   OH254269   0.969   0.536  11.355 -0.3264 -0.0583 -0.5338
10025TIP3    H154270   0.899   0.584  11.309 -1.0657 -1.1949 -0.6358
10025TIP3    H254271   1.043   0.539  11.295 -1.0177 -0.8073 -1.4549
10026TIP3   OH254272   7.179   6.542  12.208  0.3757  0.3409 -0.2636
10026TIP3    H154273   7.262   6.590  12.217  0.4926  0.2308 -0.7164
10026TIP3    H254274   7.197   6.457  12.249  0.1092  0.7455  0.7077
10027TIP3   OH254275   5.647   6.580  11.926 -0.5995  0.6677 -0.0246
10027TIP3    H154276   5.565   6.617  11.894 -1.3044  0.1516  1.1494
10027TIP3    H254277   5.679   6.643  11.990 -0.7489  0.2480  0.4685
10028TIP3   OH254278   2.794   4.684  10.270 -0.2878  0.4510  0.5374
10028TIP3    H154279   2.813   4.595  10.301 -0.8988 -0.3743 -1.3537
10028TIP3    H254280   2.699   4.685  10.256 -0.0351  0.6805 -1.4676
10029TIP3   OH254281   7.373   2.638  11.749 -0.2270  0.0946 -0.1292
10029TIP3    H154282   7.357   2.685  11.667 -1.8846 -0.8608 -0.4085
10029TIP3    H254283   7.463   2.659  11.773 -0.0129  1.0977 -1.7312
10030TIP3   OH254284   0.323   5.173  11.896  0.1760 -0.2580 -0.2198
10030TIP3    H154285   0.330   5.268  11.905  1.0126 -0.4494  1.6465
10030TIP3    H254286   0.240   5.159  11.851 -0.7682  1.3063  0.9252
10031TIP3   OH254287   6.342   5.941  10.558 -0.0065  0.3017 -0.0365
10031TIP3    H154288   6.345   5.845  10.558 -1.4622  0.1738 -2.0961
10031TIP3    H254289   6.421   5.967  10.510  0.0148  0.0872 -0.1194
10032TIP3   OH254290   5.578   2.343  10.842 -0.8640  0.4117 -0.1518
10032TIP3    H154291   5.578   2.251  10.867  0.2120  0.3856 -0.2047
10032TIP3    H254292   5.583   2.341  10.746 -0.2230  0.5197 -0.1242
10033TIP3   OH254293   2.191   0.125  12.943  0.0656 -0.0845 -0.2188
10033TIP3    H154294   2.284   0.136  12.964  0.3800 -0.5300 -1.2707
10033TIP3    H254295   2.186   0.038  12.903 -1.0841 -0.7255  1.2311
10034TIP3   OH254296   3.181   0.024  10.772  0.0815  0.2059 -0.4966
10034TIP3    H154297   3.109   0.006  10.832  0.2899 -1.8723 -0.7749
10034TIP3    H254298   3.233   0.091  10.816 -2.1264  1.9984 -0.4376
10035TIP3   OH254299   2.547   7.415  10.564  0.1715  0.1596  0.9187
10035TIP3    H154300   2.489   7.370  10.503 -0.7255  1.1260  1.0352
10035TIP3    H254301   2.635   7.392  10.534 -0.1419 -3.4168  2.2324
10036TIP3   OH254302   1.673   1.898  11.957  0.0734 -0.0958  0.0249
10036TIP3    H154303   1.753   1.864  11.917  0.5881  0.8975  0.1883
10036TIP3    H254304   1.616   1.821  11.965  0.7332 -0.6843 -0.7440
10037TIP3   OH254305   2.084   4.121  10.804 -0.2189 -0.2742  0.4787
10037TIP3    H154306   2.091   4.208  10.764 -0.2145 -0.0114  1.0458
10037TIP3    H254307   1.990   4.101  10.801 -0.0354 -1.0454 -1.3060
10038TIP3   OH254308   8.207   0.147  11.548 -0.7291 -0.5494  0.1728
10038TIP3    H154309   8.149   0.204  11.498 -0.9386 -1.0761 -0.1974
10038TIP3    H254310   8.158   0.125  11.627 -0.7594 -0.4423  0.1827
10039TIP3   OH254311   2.183   1.541  11.379  0.5992  0.3007  0.0644
10039TIP3    H154312   2.225   1.626  11.365  3.4395 -1.1761 -1.0745
10039TIP3    H254313   2.221   1.508  11.460 -0.8034  0.2175  0.7293
10040TIP3   OH254314   4.522   6.106  10.916  0.1395 -0.0442  0.5454
10040TIP3    H154315   4.564   6.068  10.839 -0.3854  0.7000 -0.1292
10040TIP3    H254316   4.583   6.090  10.988 -0.5509 -3.1520  0.5554
10041TIP3   OH254317   2.251   3.967  11.287  0.0643 -0.2798  0.2073
10041TIP3    H154318   2.263   3.948  11.194  0.9290  2.5180 -0.3810
10041TIP3    H254319   2.338   3.995  11.317 -0.2067 -1.0728  1.8786
10042TIP3   OH254320   7.880   5.018  12.970  0.5499 -0.0024  0.4919
10042TIP3    H154321   7.817   5.035  12.901 -0.3702  0.1108  1.3379
10042TIP3    H254322   7.929   4.942  12.940 -0.0434 -0.1468 -0.1370
10043TIP3   OH254323   8.400   2.087  11.448 -0.1828  1.0068 -0.9779
10043TIP3    H154324   8.319   2.040  11.469 -0.2520  1.5954  0.1741
10043TIP3    H254325   8.460   2.064  11.519  0.5521  0.8379 -1.6514
10044TIP3   OH254326   1.685   4.573  10.584 -0.4440  0.0157 -0.1502
10044TIP3    H154327   1.647   4.660  10.573 -0.7855 -0.1301 -0.1324
10044TIP3    H254328   1.667   4.550  10.675 -1.3466 -0.5356 -0.4524
10045TIP3   OH254329   7.943   0.977  11.987  0.1820  0.1418 -0.2586
10045TIP3    H154330   7.981   0.934  11.910  0.2466 -0.1066 -0.0921
10045TIP3    H254331   7.899   0.906  12.035  0.2654  0.2655  0.0051
10046TIP3   OH254332   0.263   6.510  12.026 -0.4544  0.7599  0.1322
10046TIP3    H154333   0.244   6.433  11.972 -2.7174  1.8003 -0.6899
10046TIP3    H254334   0.192   6.571  12.006  0.7632  2.7115  1.4540
10047TIP3   OH254335   5.645   3.402  11.418  0.3818 -0.2254 -0.4120
10047TIP3    H154336   5.604   3.489  11.418 -0.0545 -0.4206  0.0905
10047TIP3    H254337   5.618   3.364  11.502  0.9150 -0.6867 -0.4471
10048TIP3   OH254338   3.181   0.383  10.683 -0.7694  0.3468  0.2525
10048TIP3    H154339   3.227   0.300  10.669 -2.7496 -1.1985  2.1076
10048TIP3    H254340   3.108   0.381  10.622 -2.1292 -0.4323  1.8267
10049TIP3   OH254341   3.129   0.979  11.410  0.1746 -0.0213 -0.7860
10049TIP3    H154342   3.132   0.904  11.350  0.4127 -0.3219 -0.3988
10049TIP3    H254343   3.183   0.953  11.484 -1.2178 -0.2088  0.1953
10050TIP3   OH254344   5.878   1.511  10.801 -0.1231 -0.8065  0.1998
10050TIP3    H154345   5.893   1.501  10.707 -2.4405 -0.4861 -0.2782
10050TIP3    H254346   5.961   1.544  10.836  0.9032 -1.3257 -1.6548
10051TIP3   OH254347   6.140   2.313  12.351  0.2057  0.3126  0.4649
10051TIP3    H154348   6.214   2.292  12.294 -1.1590 -0.1057 -1.2124
10051TIP3    H254349   6.154   2.404  12.376  0.8528  0.4946 -0.5217
10052TIP3   OH254350   4.872   1.430  11.740  0.2597  0.0482  0.5939
10052TIP3    H154351   4.959   1.401  11.712 -0.0510 -0.1587 -0.1980
10052TIP3    H254352   4.831   1.352  11.776 -0.7240 -0.7093 -1.9016
10053TIP3   OH254353   6.919   8.380  10.351  0.6596  0.0260  0.3435
10053TIP3    H154354   6.964   8.460  10.325 -0.5870  0.4761 -0.5418
10053TIP3    H254355   6.835   8.384  10.305 -0.4536 -0.5972  2.2035
10054TIP3   OH254356   0.032   1.716  12.559 -0.2386  0.1917 -0.0177
10054TIP3    H154357   0.040   1.621  12.566  1.4872  0.1812 -1.5499
10054TIP3    H254358  -0.061   1.734  12.575 -0.4381 -1.6523  1.0825
10055TIP3   OH254359   8.096   1.754  11.423  0.5688 -0.0730  0.3827
10055TIP3    H154360   8.094   1.832  11.478  0.3395  0.5814 -0.5425
10055TIP3    H254361   8.062   1.684  11.479  0.8891  0.4590  1.2561
10056TIP3   OH254362   7.352   6.346  11.230 -0.6999 -0.5796 -0.1593
10056TIP3    H154363   7.327   6.281  11.297 -0.1256  0.8947  1.5740
10056TIP3    H254364   7.325   6.430  11.267  1.8658  0.5525 -0.6182
10057TIP3   OH254365   3.172   3.400  12.149  0.3285 -0.3000  0.0284
10057TIP3    H154366   3.233   3.403  12.222  0.1938 -0.3418  0.1439
10057TIP3    H254367   3.160   3.307  12.131  0.0562 -0.3025  0.2125
10058TIP3   OH254368   3.833   1.442  11.679  0.2906 -0.3082  0.3671
10058TIP3    H154369   3.818   1.441  11.585  0.3980 -3.3354  0.2733
10058TIP3    H254370   3.912   1.390  11.691 -2.1633 -4.1084  2.2843
10059TIP3   OH254371   4.724   7.468  10.826 -0.2477  0.2197 -0.5904
10059TIP3    H154372   4.643   7.420  10.842 -0.3926  0.8052  0.5193
10059TIP3    H254373   4.791   7.417  10.871 -0.0114 -0.2081 -1.4191
10060TIP3   OH254374   2.835   2.854  11.877 -0.2261  0.4704 -0.2382
10060TIP3    H154375   2.914   2.907  11.873 -0.7262  1.1878 -0.6980
10060TIP3    H254376   2.772   2.909  11.924  0.3956 -1.2107  2.9018
10061TIP3   OH254377   0.739   1.967  10.821  0.2398 -0.3463  0.0009
10061TIP3    H154378   0.697   2.042  10.862  0.9295  0.3821 -0.5905
10061TIP3    H254379   0.679   1.941  10.751  0.4978  0.3168 -0.4673
10062TIP3   OH254380   0.317   7.798  10.460 -0.2429 -0.1856  0.6022
10062TIP3    H154381   0.398   7.756  10.433 -1.4124 -1.4895 -1.0871
10062TIP3    H254382   0.290   7.750  10.538  1.6929  1.7493  2.6198
10063TIP3   OH254383   3.052   3.658  12.333 -0.1086  0.0966 -0.1369
10063TIP3    H154384   2.985   3.714  12.295 -1.9269 -1.9916 -0.2031
10063TIP3    H254385   3.020   3.569  12.319  2.8021 -1.0299 -0.3672
10064TIP3   OH254386   0.814   4.222  10.502 -0.4780  0.1741  0.2228
10064TIP3    H154387   0.839   4.130  10.503 -0.3265  0.1996  1.7679
10064TIP3    H254388   0.893   4.269  10.532 -1.1646  0.6010  1.4267
10065TIP3   OH254389   6.919   1.110  11.901  0.0853 -0.0693  0.3896
10065TIP3    H154390   6.857   1.163  11.951 -1.1292  0.4648 -1.5623
10065TIP3    H254391   6.865   1.042  11.861  0.7423  0.3357 -1.2686
10066TIP3   OH254392   1.855   2.792  11.635  0.1296  0.4453 -0.2065
10066TIP3    H154393   1.782   2.833  11.682  2.3432  1.0825  2.9575
10066TIP3    H254394   1.893   2.864  11.585  0.8512  1.0774  1.1998
10067TIP3   OH254395   5.012   6.599  10.445 -0.0737  0.1552 -0.6444
10067TIP3    H154396   4.949   6.652  10.494  2.1960  2.1653  0.3171
10067TIP3    H254397   4.979   6.601  10.355 -1.7798  0.4565 -0.0585
10068TIP3   OH254398   1.553   4.484  11.384 -0.2523 -0.1023 -0.1737
10068TIP3    H154399   1.504   4.549  11.435  0.1285  0.5595 -0.6305
10068TIP3    H254400   1.523   4.400  11.418 -0.6570  0.3084  0.5298
10069TIP3   OH254401   1.486   7.125  11.279 -0.0885 -0.1913 -0.0283
10069TIP3    H154402   1.393   7.140  11.267  0.1232 -0.7278 -3.0850
10069TIP3    H254403   1.493   7.033  11.302 -0.2884 -0.4922 -1.1068
10070TIP3   OH254404   6.724   6.487  11.154  0.8268 -0.0834  0.6769
10070TIP3    H154405   6.762   6.554  11.211 -2.7498  2.6385  0.2924
10070TIP3    H254406   6.770   6.497  11.071  0.2485  2.1613  0.5684
10071TIP3   OH254407   4.687   5.032  11.149 -0.7692 -0.5502  0.9021
10071TIP3    H154408   4.780   5.012  11.139 -1.0752 -1.7112  0.0774
10071TIP3    H254409   4.685   5.116  11.195  0.6553 -1.5048  2.8884
10072TIP3   OH254410   0.767   1.397  10.908  0.6498  0.0925  0.1566
10072TIP3    H154411   0.800   1.467  10.853 -1.0377  1.0168  0.2428
10072TIP3    H254412   0.777   1.429  10.998 -1.8547  1.1387  0.1487
10073TIP3   OH254413   7.644   5.386  10.812  0.5671 -0.3035 -0.1814
10073TIP3    H154414   7.688   5.387  10.897  2.3371 -0.7168 -1.0526
10073TIP3    H254415   7.575   5.320  10.822  0.3581  0.0856  1.1096
10074TIP3   OH254416   2.278   5.408  12.419  0.5702 -0.3006  0.7709
10074TIP3    H154417   2.296   5.456  12.338 -0.8282 -0.9970  0.0152
10074TIP3    H254418   2.190   5.435  12.444  0.2624 -1.5013  1.0257
10075TIP3   OH254419   2.340   1.323  11.889  0.1951 -0.2285  0.0293
10075TIP3    H154420   2.316   1.272  11.811  1.1382  1.2097 -1.2579
10075TIP3    H254421   2.396   1.264  11.939 -2.8555 -2.3183  1.2800
10076TIP3   OH254422   1.555   3.912  11.634 -0.5967 -0.2529 -0.4205
10076TIP3    H154423   1.587   4.002  11.631  0.4129 -0.5957 -0.2461
10076TIP3    H254424   1.545   3.886  11.543 -1.5617  0.2611 -0.4703
10077TIP3   OH254425   5.231   4.517  11.042 -0.1698  0.0886  0.0051
10077TIP3    H154426   5.239   4.451  10.972  1.3934 -0.0561  0.2877
10077TIP3    H254427   5.208   4.466  11.120 -0.1330  0.0321 -0.0212
10078TIP3   OH254428   6.613   5.339  11.726 -0.7125 -0.1610  0.0562
10078TIP3    H154429   6.657   5.256  11.741  0.3409  0.4994  0.7915
10078TIP3    H254430   6.596   5.342  11.632  0.6946 -0.5079 -0.2233
10079TIP3   OH254431   7.227   2.554  11.971  0.1821  0.2766 -0.4742
10079TIP3    H154432   7.288   2.589  11.906  0.1632  0.3877 -0.4329
10079TIP3    H254433   7.282   2.502  12.030  0.2445  0.4051 -0.4167
10080TIP3   OH254434   0.533   0.574  11.932 -0.0960 -0.1102 -0.4315
10080TIP3    H154435   0.597   0.507  11.958  0.8408  0.8808 -0.1122
10080TIP3    H254436   0.568   0.610  11.850  0.1013  0.8506  0.0568
10081TIP3   OH254437   6.339   3.533  11.280  0.0001  0.6273  0.4107
10081TIP3    H154438   6.332   3.521  11.374 -1.7215  0.5052  0.3029
10081TIP3    H254439   6.248   3.541  11.250  0.1691 -2.9662 -1.6796
10082TIP3   OH254440   6.935   0.232  12.029 -0.3739  0.1280 -0.0810
10082TIP3    H154441   7.006   0.175  12.059 -0.6778 -1.8961 -2.8721
10082TIP3    H254442   6.855   0.188  12.059 -0.5656 -0.0969 -0.9084
10083TIP3   OH254443   1.490   2.565  11.445  0.1638  0.2261  0.1110
10083TIP3    H154444   1.566   2.611  11.409  0.0837 -0.1658 -0.5709
10083TIP3    H254445   1.414   2.615  11.414  0.1188  0.3769  0.4503
10084TIP3   OH254446   1.988   4.507  12.085 -0.6739 -0.1047 -0.2250
10084TIP3    H154447   1.991   4.601  12.103  0.0589 -0.3712  1.2341
10084TIP3    H254448   1.951   4.468  12.165  0.7943 -1.2048 -0.0269
10085TIP3   OH254449   1.037   3.786  12.576  0.2433 -0.2915  0.0539
10085TIP3    H154450   1.088   3.787  12.658  0.6374 -1.5590 -0.1554
10085TIP3    H254451   0.997   3.873  12.572  1.3110  0.2649  0.9085
10086TIP3   OH254452   0.468   3.504  11.683  0.3877 -0.5297  0.2542
10086TIP3    H154453   0.467   3.486  11.777  0.6296 -0.6697  0.2315
10086TIP3    H254454   0.389   3.556  11.667  1.9722  2.3352  1.0776
10087TIP3   OH254455   6.886   4.824  12.237 -0.2001 -0.7494 -0.5715
10087TIP3    H154456   6.805   4.856  12.277 -0.2251  0.0039 -1.1982
10087TIP3    H254457   6.954   4.880  12.273  0.1966 -1.9797  0.6755
10088TIP3   OH254458   7.324   0.312  12.313  0.0212 -0.1243 -0.0349
10088TIP3    H154459   7.239   0.271  12.298 -0.9893  2.0631 -0.6652
10088TIP3    H254460   7.308   0.373  12.386  1.0147  0.4106 -0.2568
10089TIP3   OH254461   8.017   0.573  10.794  0.2059  0.3235  0.4422
10089TIP3    H154462   7.981   0.552  10.707 -0.3990 -1.1536  1.0109
10089TIP3    H254463   8.065   0.654  10.781  0.9813 -0.3892 -1.5234
10090TIP3   OH254464   1.384   7.612  12.684  0.8754 -0.2485  0.3257
10090TIP3    H154465   1.343   7.698  12.676  0.1235 -0.6889 -0.8833
10090TIP3    H254466   1.477   7.630  12.695  0.7022  0.7259  0.2456
10091TIP3   OH254467   5.942   3.482  10.546 -0.3265 -0.2972  0.6422
10091TIP3    H154468   5.959   3.395  10.510  0.1128 -0.9477  2.3316
10091TIP3    H254469   6.029   3.521  10.557 -0.5399  0.5729 -0.5493
10092TIP3   OH254470   2.821   1.288  12.138 -0.1371 -0.1791 -0.1913
10092TIP3    H154471   2.884   1.253  12.075 -0.6542 -0.6554 -0.4510
10092TIP3    H254472   2.782   1.211  12.179 -0.3607  0.1142  0.1531
10093TIP3   OH254473   1.924   4.085  11.898 -0.3930  0.0933 -0.1219
10093TIP3    H154474   1.995   4.143  11.925  0.0142 -0.0559 -0.8454
10093TIP3    H254475   1.940   4.069  11.805  0.0007 -1.8745  0.2420
10094TIP3   OH254476   6.694   3.188  10.473 -0.0119  0.5740  0.0539
10094TIP3    H154477   6.712   3.256  10.538  0.2230  0.3649  0.2106
10094TIP3    H254478   6.600   3.194  10.457 -0.3656 -0.3501  1.5350
10095TIP3   OH254479   2.585   7.299  11.254  0.0908 -0.2986  0.4532
10095TIP3    H154480   2.593   7.204  11.247 -0.9923 -0.3092 -1.3124
10095TIP3    H254481   2.515   7.312  11.317  0.5215 -0.6449  1.0166
10096TIP3   OH254482   0.917   1.622  11.449 -0.5123  0.3996 -0.6053
10096TIP3    H154483   0.877   1.569  11.380  0.9238  0.1438 -1.2766
10096TIP3    H254484   0.941   1.704  11.406  0.5890  0.1528 -0.4793
10097TIP3   OH254485   8.026   6.534  12.535 -0.3011  0.1055  0.0888
10097TIP3    H154486   8.074   6.460  12.496  0.7401  0.1010  1.2901
10097TIP3    H254487   7.953   6.493  12.581  0.4508 -0.2595  1.0181
10098TIP3   OH254488   7.396   6.443  10.820 -0.0092 -0.0278 -0.4514
10098TIP3    H154489   7.426   6.382  10.753 -0.0153 -0.5840  0.0491
10098TIP3    H254490   7.301   6.444  10.811 -0.1658 -1.4349  0.6657
10099TIP3   OH254491   7.200   3.729  11.546 -0.5749  0.1654 -0.2760
10099TIP3    H154492   7.220   3.759  11.457  1.1127  0.4549  0.1702
10099TIP3    H254493   7.180   3.810  11.594 -1.6311 -0.0045 -0.4067
10100TIP3   OH254494   6.131   7.645  11.246 -0.0791  0.4455  0.5669
10100TIP3    H154495   6.111   7.692  11.165 -0.2179  0.5092  0.6373
10100TIP3    H254496   6.218   7.608  11.231 -0.0014  0.6574  0.4776
10101TIP3   OH254497   5.171   4.320  12.137  0.1074 -0.0944 -0.0709
10101TIP3    H154498   5.199   4.327  12.228 -0.8337 -0.6836  0.2797
10101TIP3    H254499   5.208   4.397  12.094 -0.7221  1.0254  1.1587
10102TIP3   OH254500   2.690   6.631  10.373  0.1526  0.5031 -0.2465
10102TIP3    H154501   2.750   6.705  10.358  1.1940  0.0700  1.4631
10102TIP3    H254502   2.727   6.560  10.321  0.3584  0.6099 -0.2496
10103TIP3   OH254503   2.990   1.890  11.291 -0.2069  0.2729 -0.0932
10103TIP3    H154504   2.963   1.971  11.334  0.3109  0.6931 -0.5394
10103TIP3    H254505   3.031   1.838  11.360 -1.0774  0.1289  0.3280
10104TIP3   OH254506   3.743   7.377  11.390 -0.0056 -0.1158 -0.2501
10104TIP3    H154507   3.666   7.426  11.419  0.3308 -0.2524  0.9057
10104TIP3    H254508   3.714   7.286  11.389 -0.3355 -0.0215 -1.4424
10105TIP3   OH254509   7.025   0.045  11.060 -0.0108  0.0409 -0.5700
10105TIP3    H154510   7.082  -0.029  11.041  0.0772  0.2012 -0.9263
10105TIP3    H254511   7.072   0.122  11.028 -0.1993  0.2305 -0.4014
10106TIP3   OH254512   2.575   1.277  12.022 -0.4039 -0.1158 -0.0140
10106TIP3    H154513   2.527   1.298  12.102  0.4526  0.0121  0.4818
10106TIP3    H254514   2.665   1.304  12.041  0.3297 -2.3096 -0.1368
10107TIP3   OH254515   1.815   8.339  11.431  0.1319 -0.3280 -0.0740
10107TIP3    H154516   1.853   8.279  11.366  0.4754  0.1458 -0.3189
10107TIP3    H254517   1.755   8.285  11.482  1.2916 -1.1518  0.4618
10108TIP3   OH254518   0.038   5.354  11.473  0.0312 -0.3423  0.1457
10108TIP3    H154519   0.058   5.379  11.383  1.3634 -1.0272  0.2233
10108TIP3    H254520  -0.001   5.267  11.465  0.1624 -0.4090  0.2314
10109TIP3   OH254521   1.950   2.100  11.423 -0.2147  0.4633 -0.3673
10109TIP3    H154522   2.018   2.084  11.487 -0.6032 -2.4191 -0.5148
10109TIP3    H254523   1.889   2.159  11.466  1.5100  1.7644  0.3752
10110TIP3   OH254524   3.248   0.291  11.587 -0.7848 -0.4629 -0.1842
10110TIP3    H154525   3.169   0.277  11.535 -0.9059 -1.5014  0.2627
10110TIP3    H254526   3.219   0.344  11.661 -0.8574 -0.0017 -0.5398
10111TIP3   OH254527   0.525   0.860  11.367 -0.4040 -0.3772  0.2906
10111TIP3    H154528   0.614   0.826  11.378 -0.4702 -0.5875  0.1759
10111TIP3    H254529   0.486   0.804  11.300  0.0632  1.0094 -1.2225
10112TIP3   OH254530   2.135   7.516  12.670  0.4335 -0.0091 -0.5036
10112TIP3    H154531   2.105   7.469  12.748 -0.9649  1.7374  0.0777
10112TIP3    H254532   2.088   7.474  12.598  0.4385 -0.5347 -0.2107
10113TIP3   OH254533   0.002   1.678  10.919 -0.2592  0.4970 -0.5547
10113TIP3    H154534  -0.091   1.673  10.941 -0.3075  2.5186 -0.0602
10113TIP3    H254535   0.044   1.614  10.976 -1.1944  0.6294  0.3124
10114TIP3   OH254536   7.550   5.381  11.309 -0.4461 -0.0548  0.0180
10114TIP3    H154537   7.589   5.397  11.223 -1.0479  2.7828  0.1915
10114TIP3    H254538   7.625   5.375  11.368 -0.0971  0.7185 -0.3302
10115TIP3   OH254539   1.677   2.978  11.736 -0.2150  0.1997 -0.0588
10115TIP3    H154540   1.595   2.993  11.784 -0.6847 -2.6324  0.2247
10115TIP3    H254541   1.649   2.957  11.647  0.0795 -1.5306  0.2224
10116TIP3   OH254542   7.852   1.060  10.472 -0.7743 -0.4154 -0.4639
10116TIP3    H154543   7.849   1.144  10.518  2.1812  0.0225 -0.8714
10116TIP3    H254544   7.939   1.025  10.491 -1.2795 -2.5690 -1.7439
10117TIP3   OH254545   3.722   3.625  11.712 -0.3596 -0.2337  0.4009
10117TIP3    H154546   3.723   3.690  11.782 -0.6125 -0.5030  0.6545
10117TIP3    H254547   3.643   3.574  11.727 -1.1807  0.5876 -0.8962
10118TIP3   OH254548   6.545   6.951  11.103  0.3000 -0.0250  0.3723
10118TIP3    H154549   6.474   6.980  11.159 -0.5163 -0.1855 -0.5503
10118TIP3    H254550   6.591   6.885  11.154 -0.0826  0.2269  1.0568
10119TIP3   OH254551   4.038   5.177  10.902  0.4844  0.5344  0.4385
10119TIP3    H154552   3.973   5.184  10.832 -1.6562  0.2595  2.2824
10119TIP3    H254553   4.040   5.264  10.942  0.1538  0.1575  1.2945
10120TIP3   OH254554   5.428   7.714  10.930  0.3243  0.2838  0.0654
10120TIP3    H154555   5.452   7.737  10.840  0.7326 -0.3839 -0.0045
10120TIP3    H254556   5.384   7.629  10.922  0.4709  0.1631  0.5088
10121TIP3   OH254557   6.351   4.861  11.035 -0.1189  0.0782 -0.2230
10121TIP3    H154558   6.410   4.923  11.077 -1.4072  2.2515 -1.4443
10121TIP3    H254559   6.376   4.776  11.071  2.9863  1.0189  0.1349
10122TIP3   OH254560   6.892   1.574  10.879 -0.4402  0.2538  0.1796
10122TIP3    H154561   6.896   1.600  10.971 -0.2269  0.5851  0.0772
10122TIP3    H254562   6.942   1.493  10.875  1.6290  1.4703 -0.0719
10123TIP3   OH254563   0.021   0.444  11.744  0.3902  0.4825 -0.2782
10123TIP3    H154564   0.078   0.368  11.753 -0.3183 -0.1153 -0.7427
10123TIP3    H254565   0.056   0.508  11.807  0.7796 -0.3466  0.3664
10124TIP3   OH254566   7.852   2.613  11.275  0.3270 -0.7586 -0.5736
10124TIP3    H154567   7.824   2.703  11.261  0.8905 -0.7042 -1.4931
10124TIP3    H254568   7.777   2.570  11.315  0.0795  0.1325 -0.0584
10125TIP3   OH254569   1.517   1.675  11.923 -0.0881 -0.2743 -0.5731
10125TIP3    H154570   1.435   1.636  11.892 -0.9714  0.5987  0.5854
10125TIP3    H254571   1.585   1.622  11.881 -1.2275 -1.6000 -0.8502
10126TIP3   OH254572   4.352   7.507  10.805  0.1588  0.1135 -0.3276
10126TIP3    H154573   4.406   7.483  10.880 -2.2261 -0.6284  1.2474
10126TIP3    H254574   4.360   7.433  10.745  0.7189 -0.0904 -0.0063
10127TIP3   OH254575   1.975   6.633  11.812  1.0967  0.7403  0.0367
10127TIP3    H154576   1.897   6.617  11.865  2.3702 -0.7511  1.5701
10127TIP3    H254577   1.967   6.724  11.784  0.4139  1.6593  2.9237
10128TIP3   OH254578   7.147   4.791  11.175  0.0287  0.3215 -0.0403
10128TIP3    H154579   7.063   4.836  11.172  0.1564  0.5109 -1.0030
10128TIP3    H254580   7.125   4.698  11.169 -0.1023  0.3807 -0.4870
10129TIP3   OH254581   3.163   6.040  10.813  0.1905  0.0004  0.1392
10129TIP3    H154582   3.088   6.092  10.841  0.0459 -0.4209  0.5429
10129TIP3    H254583   3.227   6.051  10.882  0.7296  0.8088 -0.4692
10130TIP3   OH254584   1.342   3.509  11.096 -0.5323  0.0514 -0.1850
10130TIP3    H154585   1.338   3.531  11.003  0.7915  1.1808  0.0015
10130TIP3    H254586   1.435   3.497  11.114 -0.5574  1.8648  1.4171
10131TIP3   OH254587   8.195   4.165  12.839  0.4867 -0.4758 -0.6475
10131TIP3    H154588   8.138   4.232  12.800 -1.7457  0.0494  3.0124
10131TIP3    H254589   8.283   4.202  12.832 -0.3533  1.5726 -1.2275
10132TIP3   OH254590   5.384   6.417  11.847  0.1709 -0.0514 -0.2358
10132TIP3    H154591   5.350   6.505  11.834  1.0011  0.2943 -0.1646
10132TIP3    H254592   5.333   6.382  11.920 -2.6653 -1.0174 -2.4899
10133TIP3   OH254593   5.618   2.846  10.952  0.6839 -0.1445 -0.6347
10133TIP3    H154594   5.643   2.922  11.006  1.5179 -0.2471 -0.8566
10133TIP3    H254595   5.686   2.781  10.970  0.0599 -0.7851 -0.5691
10134TIP3   OH254596   4.604   1.328  11.916 -0.0670 -0.1749  0.0044
10134TIP3    H154597   4.675   1.338  11.978 -2.2203  2.3064  2.3312
10134TIP3    H254598   4.555   1.251  11.947 -0.0049 -0.1647  0.1252
10135TIP3   OH254599   0.547   5.493  12.220 -0.4192  0.0030  0.2980
10135TIP3    H154600   0.471   5.546  12.198 -0.1069  0.7117  0.8588
10135TIP3    H254601   0.545   5.488  12.316 -1.7799 -3.0347  0.2148
10136TIP3   OH254602   7.508   7.260  11.997 -0.3910 -0.0353  0.8385
10136TIP3    H154603   7.570   7.247  11.925  1.2702  0.6048  2.0681
10136TIP3    H254604   7.563   7.255  12.076 -1.9203  0.6043  1.9863
10137TIP3   OH254605   2.014   0.551  11.190 -0.4276  0.3393 -0.0888
10137TIP3    H154606   2.074   0.625  11.172  0.8012  0.5555  3.9699
10137TIP3    H254607   1.956   0.584  11.259 -2.1591 -1.4489 -0.6269
10138TIP3   OH254608   7.333   0.132  11.153  0.4443  0.1045  0.2416
10138TIP3    H154609   7.398   0.180  11.101 -0.0702  1.5923  0.9047
10138TIP3    H254610   7.371   0.046  11.167  1.5907  0.4453 -0.6621
10139TIP3   OH254611   5.924   2.037  11.030 -0.2932 -0.1092 -0.5468
10139TIP3    H154612   5.828   2.037  11.029 -0.3623  2.1953 -2.6383
10139TIP3    H254613   5.949   1.965  10.972 -0.6979 -1.0815  0.4467
10140TIP3   OH254614   5.736   3.062  11.403 -0.0278 -0.3054 -0.4553
10140TIP3    H154615   5.812   3.061  11.346  0.3781  1.2370  0.0152
10140TIP3    H254616   5.730   2.972  11.436  0.0045 -1.1262 -2.4978
10141TIP3   OH254617   0.747   6.575  10.738 -0.5021 -0.1657  0.3702
10141TIP3    H154618   0.765   6.655  10.787 -0.4316 -0.0596  0.1751
10141TIP3    H254619   0.654   6.560  10.750 -0.9721  1.0816 -1.2437
10142TIP3   OH254620   6.459   7.483  12.786  0.1014  0.4437 -0.1943
10142TIP3    H154621   6.431   7.574  12.776  2.2276  1.2271  0.4923
10142TIP3    H254622   6.528   7.472  12.721 -0.8706 -1.0592 -1.0308
10143TIP3   OH254623   3.047   0.442  11.757 -0.1433 -0.7329 -0.3016
10143TIP3    H154624   2.958   0.408  11.762 -0.3294 -0.0703  1.6928
10143TIP3    H254625   3.036   0.531  11.722 -0.2552 -0.7135 -0.2194
10144TIP3   OH254626   2.496   4.670  11.029 -0.0322  0.1248 -0.6559
10144TIP3    H154627   2.549   4.594  11.054  0.2859  0.3382 -0.6829
10144TIP3    H254628   2.556   4.727  10.982  0.3091  1.3844  1.1805
10145TIP3   OH254629   4.981   0.172  10.811  0.0765 -0.7633 -0.6761
10145TIP3    H154630   5.075   0.152  10.810 -0.2252 -2.3186  0.0563
10145TIP3    H254631   4.977   0.263  10.843  1.2771 -1.0731  0.4635
10146TIP3   OH254632   7.388   0.029  10.632 -0.2425 -0.0287 -0.6952
10146TIP3    H154633   7.316   0.050  10.692  0.7850  0.3058  0.4720
10146TIP3    H254634   7.369  -0.061  10.604 -1.1423  0.0682 -0.4595
10147TIP3   OH254635   6.530   1.697  10.468 -0.2294  0.3427  0.2971
10147TIP3    H154636   6.613   1.734  10.497 -0.4774  1.3071 -0.1764
10147TIP3    H254637   6.463   1.749  10.512 -0.5820  0.2495 -0.1170
10148TIP3   OH254638   7.858   8.329  12.305 -0.1761  0.1199 -0.7241
10148TIP3    H154639   7.908   8.393  12.356 -0.4279 -0.4462  0.2751
10148TIP3    H254640   7.793   8.296  12.367  0.0241 -1.1742 -1.1866
10149TIP3   OH254641   0.754   5.296  11.684 -0.2123 -0.3848 -0.1640
10149TIP3    H154642   0.660   5.282  11.696 -0.1574  0.0717  0.8439
10149TIP3    H254643   0.794   5.211  11.705 -0.3764 -0.5219 -0.4027
10150TIP3   OH254644   0.329   7.000  12.380 -0.0905  0.4242 -0.0559
10150TIP3    H154645   0.303   6.982  12.290  2.2237  0.6291 -0.8324
10150TIP3    H254646   0.352   7.093  12.380  1.6508  0.0301  0.2371
10151TIP3   OH254647   1.641   6.057  11.457 -0.6629 -0.1422 -0.4074
10151TIP3    H154648   1.686   6.040  11.374  0.3122 -0.2079  0.1211
10151TIP3    H254649   1.677   5.992  11.517  1.6309  2.3210  1.1295
10152TIP3   OH254650   2.196   6.945  12.140  0.0380 -0.3450  0.4942
10152TIP3    H154651   2.290   6.925  12.136  0.2213  0.6275 -0.6801
10152TIP3    H254652   2.154   6.859  12.130  0.8142 -0.5400 -1.7802
10153TIP3   OH254653   7.482   1.262  11.269  0.4839  0.0709 -0.4463
10153TIP3    H154654   7.500   1.350  11.304  0.0191  0.0235 -0.0848
10153TIP3    H254655   7.479   1.275  11.174 -0.1176  0.5473 -0.3681
10154TIP3   OH254656   0.843   5.181  11.340  0.2384  0.7401 -0.1451
10154TIP3    H154657   0.792   5.260  11.358 -0.8568 -0.3662  2.0837
10154TIP3    H254658   0.921   5.190  11.395 -1.0192 -0.6821  2.0549
10155TIP3   OH254659   0.361   3.371  12.317 -0.9394  0.4654 -0.4791
10155TIP3    H154660   0.414   3.448  12.338  0.2405 -0.4334 -0.0828
10155TIP3    H254661   0.403   3.334  12.239  0.0312 -1.1686  0.7812
10156TIP3   OH254662   7.588   0.677  11.148  0.2052 -0.0375 -0.8757
10156TIP3    H154663   7.606   0.749  11.208 -0.1846  0.5060 -1.3963
10156TIP3    H254664   7.644   0.694  11.072 -0.5535  0.2326 -1.3896
10157TIP3   OH254665   7.248   1.393  10.830  0.0103 -0.0097  0.0370
10157TIP3    H154666   7.165   1.385  10.877  0.0280  0.5589  0.1734
10157TIP3    H254667   7.305   1.441  10.891  0.5503 -0.7060  0.0870
10158TIP3   OH254668   3.418   2.032  11.390  0.1379  0.0074  0.6715
10158TIP3    H154669   3.497   2.067  11.431 -0.9008 -1.3679  4.2135
10158TIP3    H254670   3.346   2.080  11.431 -0.9875 -0.7256 -0.3595
10159TIP3   OH254671   8.274   5.348  11.946 -0.0651  0.0891 -0.1163
10159TIP3    H154672   8.312   5.396  11.873  2.0428 -0.1206  0.7831
10159TIP3    H254673   8.258   5.415  12.013 -3.7338  0.6124 -1.2996
10160TIP3   OH254674   5.104   8.041  11.541  0.1695 -0.3104 -0.4795
10160TIP3    H154675   5.121   8.014  11.450  1.2852 -0.6534 -0.1848
10160TIP3    H254676   5.185   8.083  11.569 -0.7405  1.3206 -0.1700
10161TIP3   OH254677   1.982   0.743  10.328 -0.4803 -0.0896  0.1263
10161TIP3    H154678   1.938   0.699  10.401 -0.4003 -1.5490 -0.6658
10161TIP3    H254679   1.947   0.832  10.329 -0.5335 -0.0986  1.8874
10162TIP3   OH254680   3.389   7.382  10.592  0.5450 -0.2864 -0.0450
10162TIP3    H154681   3.444   7.305  10.576  2.7123  1.1320  0.2058
10162TIP3    H254682   3.448   7.446  10.633 -1.6979  0.7794  1.7102
10163TIP3   OH254683   7.176   1.411  11.494  0.2995 -0.4059 -0.4411
10163TIP3    H154684   7.152   1.497  11.530 -0.1858 -0.0544 -1.5872
10163TIP3    H254685   7.164   1.351  11.568 -1.0294  0.2415 -0.0925
10164TIP3   OH254686   2.553   6.696  10.967 -0.3437  0.0654  0.0367
10164TIP3    H154687   2.639   6.654  10.962 -0.2328  0.2248  0.6005
10164TIP3    H254688   2.556   6.765  10.901 -1.3685 -2.2789 -2.7089
10165TIP3   OH254689   6.313   6.320  11.044 -0.4577  0.1552 -0.2240
10165TIP3    H154690   6.316   6.224  11.036 -1.1802  0.2251 -1.5847
10165TIP3    H254691   6.359   6.338  11.126 -0.8534 -1.3953  0.3773
10166TIP3   OH254692   5.702   0.240  10.698 -0.2923 -0.9118 -0.1056
10166TIP3    H154693   5.718   0.149  10.672 -0.0620 -0.4082 -1.8417
10166TIP3    H254694   5.695   0.287  10.615 -1.9446  0.4012  0.7249
10167TIP3   OH254695   6.814   0.668  11.564  0.3088 -0.1609 -0.4484
10167TIP3    H154696   6.754   0.596  11.550 -1.6102  0.1989  4.0672
10167TIP3    H254697   6.876   0.635  11.630  0.9428  1.5405 -0.1359
10168TIP3   OH254698   4.663   2.849  10.370 -0.1200 -0.2544  0.0199
10168TIP3    H154699   4.757   2.856  10.354 -0.1694 -1.4964 -0.9810
10168TIP3    H254700   4.645   2.755  10.365 -1.3759 -0.0513  0.4163
10169TIP3   OH254701   1.439   4.686  11.552  0.0586  1.1660 -0.6537
10169TIP3    H154702   1.365   4.729  11.509  0.2432  1.6605 -0.4854
10169TIP3    H254703   1.494   4.758  11.583 -1.1632  0.9357  2.4173
10170TIP3   OH254704   7.144   4.977  10.690  0.1659  0.4372 -0.5380
10170TIP3    H154705   7.055   4.964  10.659  0.2617 -0.3859 -0.5017
10170TIP3    H254706   7.168   4.893  10.730  0.9596  0.6405 -0.5627
10171TIP3   OH254707   8.279   7.641  11.342 -0.3409  0.3483 -0.4625
10171TIP3    H154708   8.268   7.592  11.260 -2.0282  1.3287 -0.8745
10171TIP3    H254709   8.190   7.648  11.378  0.2999  0.4346  1.1753
10172TIP3   OH254710   3.230   1.796  12.635  0.1163  0.4166  0.2960
10172TIP3    H154711   3.307   1.850  12.652  0.9655 -1.1011  1.5075
10172TIP3    H254712   3.263   1.724  12.580 -0.8240  0.6940 -0.6522
10173TIP3   OH254713   0.667   3.253  12.397  0.3174 -0.3725  0.4424
10173TIP3    H154714   0.662   3.333  12.345 -1.3784 -0.5165  0.3560
10173TIP3    H254715   0.741   3.269  12.457  0.0310  1.2404  0.4032
10174TIP3   OH254716   1.515   3.544  11.917 -0.0106 -0.7254  0.1049
10174TIP3    H154717   1.583   3.477  11.914 -0.4647 -1.1616 -1.1009
10174TIP3    H254718   1.544   3.611  11.854  0.1546 -0.0506  0.8788
10175TIP3   OH254719   5.865   2.544  10.558  0.3839  0.0971  0.3097
10175TIP3    H154720   5.837   2.631  10.528 -1.2893 -0.6424 -0.3673
10175TIP3    H254721   5.956   2.537  10.528  0.7764  1.8412  0.9306
10176TIP3   OH254722   7.643   4.776  10.817  0.5188  0.1988  0.2001
10176TIP3    H154723   7.596   4.704  10.858 -0.3839  0.6000 -0.0955
10176TIP3    H254724   7.602   4.784  10.730  3.1067 -1.3722 -1.2904
10177TIP3   OH254725   0.228   2.680  10.494 -0.5330 -0.5641 -0.6010
10177TIP3    H154726   0.243   2.768  10.529  0.0264 -0.6253 -0.6761
10177TIP3    H254727   0.144   2.653  10.531  0.1622 -0.7354  0.9234
10178TIP3   OH254728   6.466   0.199  10.386  0.1512 -0.0683  0.0110
10178TIP3    H154729   6.418   0.204  10.303 -0.0566 -2.6800 -0.0995
10178TIP3    H254730   6.400   0.208  10.454 -0.2556 -1.6165 -0.1458
10179TIP3   OH254731   6.061   2.657  10.739 -0.3085  0.2044 -0.0172
10179TIP3    H154732   6.020   2.577  10.708 -1.8639  0.5541  0.9740
10179TIP3    H254733   5.994   2.724  10.727 -0.7438  0.5192  3.1298
10180TIP3   OH254734   0.955   3.568  10.751 -0.1876 -0.3779 -0.1517
10180TIP3    H154735   0.945   3.663  10.761 -2.7299 -0.7417  1.6638
10180TIP3    H254736   1.050   3.554  10.753  0.2498  2.0866 -0.4157
10181TIP3   OH254737   4.872   7.751  10.612 -0.5178 -0.1294 -0.7272
10181TIP3    H154738   4.897   7.843  10.620 -2.5559  0.5903 -1.9513
10181TIP3    H254739   4.796   7.742  10.670 -0.8911 -0.7934 -1.3069
10182TIP3   OH254740   2.488   1.529  11.282  0.2450 -0.2969  0.0610
10182TIP3    H154741   2.433   1.601  11.253 -0.2507 -0.9417 -0.6295
10182TIP3    H254742   2.486   1.466  11.210  1.6010 -0.4951  0.1696
10183TIP3   OH254743   0.814   3.105  11.369  0.2259 -0.2120  0.0649
10183TIP3    H154744   0.827   3.194  11.402  2.1516 -0.2815 -0.3730
10183TIP3    H254745   0.719   3.092  11.369 -0.0887  1.8595  0.0583
10184TIP3   OH254746   4.141   4.621  11.463 -0.5915 -0.6607 -0.1498
10184TIP3    H154747   4.193   4.553  11.506 -1.4497 -0.3825  1.4395
10184TIP3    H254748   4.190   4.702  11.477 -0.1898 -0.7604 -0.9387
10185TIP3   OH254749   5.391   1.381  12.748 -0.1074  0.1432 -0.5776
10185TIP3    H154750   5.329   1.435  12.700 -0.5343 -0.2870 -0.5210
10185TIP3    H254751   5.343   1.356  12.828 -0.2252 -0.9956 -0.9895
10186TIP3   OH254752   8.237   1.386  11.548 -0.5480 -0.5805 -0.4146
10186TIP3    H154753   8.153   1.430  11.559 -0.0124  0.5419 -0.6983
10186TIP3    H254754   8.261   1.358  11.636 -0.3494  0.7550 -0.0187
10187TIP3   OH254755   1.775   4.646  11.518 -0.3596  0.4262 -0.2529
10187TIP3    H154756   1.682   4.626  11.529  0.3566 -2.4686  1.4762
10187TIP3    H254757   1.796   4.615  11.430 -0.4551 -1.8500  0.4633
10188TIP3   OH254758   1.583   1.302  11.854  0.1950 -0.4033  0.6679
10188TIP3    H154759   1.645   1.373  11.869  0.8342 -0.9298  0.5672
10188TIP3    H254760   1.529   1.301  11.933 -0.8303  1.1688  0.0293
10189TIP3   OH254761   2.008   2.213  11.008 -0.0227  0.1240  0.6736
10189TIP3    H154762   2.077   2.229  11.072 -0.3603  0.9052  0.8443
10189TIP3    H254763   1.927   2.235  11.053 -0.2423  0.9795 -0.1107
10190TIP3   OH254764   6.923   4.423  12.003  0.5000 -0.6432  0.5492
10190TIP3    H154765   6.863   4.358  11.966  2.7358 -1.9751 -0.9523
10190TIP3    H254766   6.951   4.386  12.087 -1.2958  0.3679  1.6593
10191TIP3   OH254767   4.106   1.630  10.956 -0.1176  0.5561  0.3972
10191TIP3    H154768   4.066   1.613  10.871 -0.1195 -0.5048  0.5900
10191TIP3    H254769   4.143   1.718  10.949  1.6053 -0.2315 -1.3832
10192TIP3   OH254770   2.427   2.894  10.782  0.2777  0.0298  0.8053
10192TIP3    H154771   2.458   2.816  10.828  0.8196  0.7703  1.7562
10192TIP3    H254772   2.502   2.921  10.728  0.1765  0.0249  0.6628
10193TIP3   OH254773   1.953   7.898  12.209 -0.4419 -0.1968  0.1804
10193TIP3    H154774   1.983   7.884  12.118  0.5440 -1.3556  0.6479
10193TIP3    H254775   1.878   7.839  12.218  0.1900 -0.9776  0.4514
10194TIP3   OH254776   3.879   6.405  11.213  0.1447 -0.0086  0.0172
10194TIP3    H154777   3.798   6.454  11.194  0.7835  0.2846 -2.2770
10194TIP3    H254778   3.930   6.412  11.132  0.9716 -3.1330  0.1483
10195TIP3   OH254779   2.746   8.355  11.112 -0.1622  0.5479  0.3324
10195TIP3    H154780   2.699   8.273  11.126  0.6181 -0.4199 -2.1782
10195TIP3    H254781   2.679   8.417  11.084 -0.3407 -0.1002 -0.7199
10196TIP3   OH254782   6.176   6.917  11.385  0.2440  0.6464  0.6873
10196TIP3    H154783   6.110   6.952  11.445 -0.5529  0.0408  0.1859
10196TIP3    H254784   6.141   6.833  11.357  1.1189  0.4272  0.2140
10197TIP3   OH254785   1.391   2.392  12.101  0.4819  0.7385 -0.3681
10197TIP3    H154786   1.463   2.351  12.150 -0.3868 -0.2799  0.0888
10197TIP3    H254787   1.333   2.427  12.169 -0.3043  0.0558 -0.6749
10198TIP3   OH254788   4.317   4.874  11.138 -0.4123  0.2834  0.6019
10198TIP3    H154789   4.226   4.883  11.110 -0.5623  2.9392  1.7007
10198TIP3    H254790   4.362   4.947  11.096  1.2753 -0.9954  0.0591
10199TIP3   OH254791   1.328   3.808  12.731 -0.1819 -0.0128  0.1318
10199TIP3    H154792   1.418   3.820  12.760 -0.1175 -0.5353  0.1516
10199TIP3    H254793   1.314   3.877  12.666  0.7300 -0.8984 -1.0212
10200TIP3   OH254794   1.280   0.155  11.599  0.0014  0.0382  0.4950
10200TIP3    H154795   1.374   0.163  11.618 -0.3780 -0.5507  3.0037
10200TIP3    H254796   1.275   0.147  11.504  2.5894 -1.1091  0.3691
10201TIP3   OH254797   2.728   5.212  11.652  0.3172 -0.2215 -0.1640
10201TIP3    H154798   2.694   5.136  11.698 -2.0256  0.2323 -1.0367
10201TIP3    H254799   2.810   5.233  11.697 -0.7302 -1.1601  2.2997
10202TIP3   OH254800   4.600   6.886  12.826 -0.8644 -0.3721 -0.1665
10202TIP3    H154801   4.638   6.843  12.902 -0.1579  1.0608  0.3372
10202TIP3    H254802   4.667   6.879  12.758 -0.6334  0.1342  0.0015
10203TIP3   OH254803   6.951   6.612  12.377  0.4069 -0.0131 -0.0426
10203TIP3    H154804   7.022   6.582  12.320 -0.1727 -1.2595 -0.1546
10203TIP3    H254805   6.878   6.553  12.356 -0.9210  1.6982 -0.4786
10204TIP3   OH254806   2.564   3.800  10.187 -0.4841  0.2393  0.3514
10204TIP3    H154807   2.584   3.709  10.165 -0.3540  0.3088  0.1810
10204TIP3    H254808   2.472   3.812  10.161 -0.0755  0.5813 -1.0233
10205TIP3   OH254809   6.897   4.648  10.905 -0.0920  0.4301 -0.5987
10205TIP3    H154810   6.907   4.677  10.996 -0.7205  0.7529 -0.6256
10205TIP3    H254811   6.804   4.632  10.895  0.1302 -0.7865 -0.8477
10206TIP3   OH254812   5.375   2.914  10.517  0.0844 -0.4601  0.3803
10206TIP3    H154813   5.354   2.823  10.493 -1.1648 -0.1699  0.2826
10206TIP3    H254814   5.465   2.911  10.548 -0.3341 -1.9653  1.5444
10207TIP3   OH254815   5.870   2.815  10.624  0.3687  0.0925  0.1266
10207TIP3    H154816   5.904   2.896  10.585 -0.3831 -0.1725 -1.1574
10207TIP3    H254817   5.795   2.843  10.676  2.4044  0.6855  3.0021
10208TIP3   OH254818   3.409   7.902  11.913  0.4300  0.0442 -0.1317
10208TIP3    H154819   3.331   7.894  11.968  0.4610 -0.5499 -0.1638
10208TIP3    H254820   3.441   7.990  11.928 -0.5511  0.4820 -0.5115
10209TIP3   OH254821   1.504   5.393  11.006 -0.3227 -0.0617 -1.2076
10209TIP3    H154822   1.464   5.323  11.058  1.2549  1.1843  1.9780
10209TIP3    H254823   1.430   5.446  10.977 -1.3033 -0.4272  0.4588
10210TIP3   OH254824   6.445   1.287  11.275 -0.9384  0.1418 -0.4598
10210TIP3    H154825   6.472   1.322  11.360 -1.6098  1.3165 -0.7119
10210TIP3    H254826   6.527   1.273  11.228 -0.4012 -2.3507  1.0205
10211TIP3   OH254827   0.738   5.961  11.085 -0.0683  0.5800  0.1134
10211TIP3    H154828   0.791   6.024  11.133 -0.5029 -1.4530  3.5958
10211TIP3    H254829   0.654   6.005  11.071  0.5115  1.6803  0.0162
10212TIP3   OH254830   7.688   1.931  12.315  0.1173 -0.3320 -0.0317
10212TIP3    H154831   7.620   1.898  12.374 -0.8111 -2.5128 -2.1162
10212TIP3    H254832   7.640   1.970  12.242  1.2156  1.6528  0.2371
10213TIP3   OH254833   5.190   3.532  12.110 -0.6134 -0.4688 -0.3920
10213TIP3    H154834   5.179   3.499  12.199  0.0791 -2.1713 -0.8763
10213TIP3    H254835   5.276   3.497  12.082  0.0738  1.6195 -1.0766
10214TIP3   OH254836   4.338   5.494  12.804  0.6919  0.0442 -0.2673
10214TIP3    H154837   4.271   5.515  12.869  1.5558  1.3897  0.2383
10214TIP3    H254838   4.297   5.515  12.720  0.0920 -0.2575 -0.0552
10215TIP3   OH254839   5.067   7.717  11.699 -0.3036  0.2587  0.7161
10215TIP3    H154840   5.090   7.780  11.766 -0.4115  0.0202  0.9806
10215TIP3    H254841   5.147   7.704  11.649 -0.7751  2.1727 -0.6747
10216TIP3   OH254842   5.202   1.372  12.372  0.1392  0.1840  0.3253
10216TIP3    H154843   5.238   1.429  12.304  2.4442 -0.4247  0.9209
10216TIP3    H254844   5.149   1.429  12.427  1.3659  1.5031  0.1901
10217TIP3   OH254845   7.544   3.263  11.623 -0.2651 -0.0459 -0.8199
10217TIP3    H154846   7.621   3.321  11.629 -0.3295  0.0131 -0.5520
10217TIP3    H254847   7.482   3.311  11.569 -0.6014  0.4612 -0.0052
10218TIP3   OH254848   2.238   6.547  12.334  0.2382  0.3927  0.2691
10218TIP3    H154849   2.284   6.615  12.383 -0.9472  0.8111  0.8261
10218TIP3    H254850   2.145   6.564  12.349 -0.1389 -0.1205 -1.2591
10219TIP3   OH254851   2.160   2.314  10.796 -0.0653  0.4114 -0.0005
10219TIP3    H154852   2.171   2.406  10.820  1.4425 -0.1813  1.8542
10219TIP3    H254853   2.100   2.279  10.862 -0.2289 -0.0653 -0.3964
10220TIP3   OH254854   4.711   1.649  11.751  0.2227 -0.4885 -0.2518
10220TIP3    H154855   4.618   1.628  11.762 -0.3044 -0.0354 -3.1213
10220TIP3    H254856   4.750   1.568  11.718  0.2919  0.0431 -1.5108
10221TIP3   OH254857   0.330   1.747  11.773 -0.1542  0.4541 -0.2771
10221TIP3    H154858   0.289   1.800  11.842  0.4079 -0.0219  0.4378
10221TIP3    H254859   0.422   1.742  11.798 -0.5470 -2.7493  0.9750
10222TIP3   OH254860   4.680   4.163  12.439 -0.0194  0.4268  0.4147
10222TIP3    H154861   4.743   4.125  12.378  0.1705  1.2197  0.1104
10222TIP3    H254862   4.608   4.100  12.442 -0.0839  0.4303 -0.7123
10223TIP3   OH254863   5.519   3.704  11.149  0.3287  0.0124  0.1028
10223TIP3    H154864   5.560   3.703  11.235  0.1194 -1.2185  0.2017
10223TIP3    H254865   5.491   3.614  11.134 -1.3879  0.6040 -0.4240
10224TIP3   OH254866   5.078   2.606  11.527  0.7294  0.0873 -0.2326
10224TIP3    H154867   5.007   2.664  11.499  0.2123 -0.6306 -0.4416
10224TIP3    H254868   5.155   2.639  11.481  0.5798  0.9865  0.1355
10225TIP3   OH254869   1.072   3.342  11.074 -0.2835  0.6775  0.4953
10225TIP3    H154870   1.164   3.368  11.083 -0.0155 -0.6816  2.3449
10225TIP3    H254871   1.074   3.263  11.020 -0.2448  0.0985  1.3319
10226TIP3   OH254872   4.463   2.710  12.429  0.2803  0.4191  0.6090
10226TIP3    H154873   4.526   2.640  12.446 -0.4010 -0.7836 -1.3670
10226TIP3    H254874   4.494   2.750  12.348 -0.6883  0.7413  0.3806
10227TIP3   OH254875   6.650   4.895  10.940  0.2816  0.3236  0.3578
10227TIP3    H154876   6.578   4.842  10.975  1.5854 -1.7214  0.1401
10227TIP3    H254877   6.619   4.924  10.854 -1.1472  1.4547  1.2246
10228TIP3   OH254878   1.632   2.270  10.967 -0.5824 -0.3072 -0.0426
10228TIP3    H154879   1.597   2.356  10.993 -1.6883 -0.7057 -0.1808
10228TIP3    H254880   1.679   2.287  10.885 -0.3624  0.2464  0.1873
10229TIP3   OH254881   6.535   1.412  10.445  0.0841  0.0201  0.0256
10229TIP3    H154882   6.511   1.502  10.421 -0.9346 -0.7805 -2.2298
10229TIP3    H254883   6.630   1.414  10.455  0.3618  0.9307 -2.2349
10230TIP3   OH254884   7.960   8.431  11.127 -1.0315  0.4037 -0.0168
10230TIP3    H154885   7.953   8.473  11.212 -1.4953 -0.5170  0.4082
10230TIP3    H254886   7.925   8.342  11.140  1.3701 -0.6889 -0.4868
10231TIP3   OH254887   0.196   0.918  12.131  0.4810 -0.8261  0.3771
10231TIP3    H154888   0.144   0.974  12.190 -0.4741 -1.1433 -0.1362
10231TIP3    H254889   0.157   0.831  12.141  0.8759 -1.0579 -0.0778
10232TIP3   OH254890   0.889   4.335  11.942  0.1909  0.1713 -0.3123
10232TIP3    H154891   0.983   4.329  11.930  0.3721  2.8886 -0.8511
10232TIP3    H254892   0.855   4.357  11.855 -0.9148 -0.5719 -0.0835
10233TIP3   OH254893   4.016   2.762  11.414 -0.5291 -0.3693 -0.0631
10233TIP3    H154894   3.948   2.709  11.455 -0.0351 -0.8347  0.1564
10233TIP3    H254895   4.063   2.802  11.487 -0.3405 -0.3329 -0.2039
10234TIP3   OH254896   6.394   3.323  11.076  0.1515  0.1292  0.3496
10234TIP3    H154897   6.299   3.335  11.077 -0.2734 -2.5711  1.4707
10234TIP3    H254898   6.426   3.373  11.151 -0.7849 -1.1850  1.6740
10235TIP3   OH254899   7.924   6.193  11.935  0.4750  0.2233 -0.3515
10235TIP3    H154900   7.916   6.203  12.030 -0.7935  1.6228 -0.5724
10235TIP3    H254901   7.909   6.100  11.919 -1.0627  0.2632  0.6781
10236TIP3   OH254902   4.304   5.571  11.190  0.2687 -0.1333 -0.2287
10236TIP3    H154903   4.340   5.649  11.148  1.7105  0.0168  1.1953
10236TIP3    H254904   4.275   5.601  11.277  0.4873 -1.0955  0.1898
10237TIP3   OH254905   2.216   3.096  10.474 -0.0598 -0.6113 -0.3163
10237TIP3    H154906   2.230   3.182  10.436 -1.7039  0.7883  2.0094
10237TIP3    H254907   2.123   3.078  10.460 -0.6206 -0.2544  2.3729
10238TIP3   OH254908   7.322   0.600  11.711  0.2326  0.0495  0.0204
10238TIP3    H154909   7.228   0.593  11.730  0.1060  1.0852 -0.1954
10238TIP3    H254910   7.364   0.557  11.786 -0.3725  1.1492  1.0345
10239TIP3   OH254911   6.422   6.515  10.872 -0.1582  0.2042 -0.0677
10239TIP3    H154912   6.432   6.484  10.962  0.3416  0.8797  0.1160
10239TIP3    H254913   6.345   6.469  10.839  0.1833 -0.7366  0.4044
10240TIP3   OH254914   1.612   6.586  11.670  0.1406 -0.0821 -0.3912
10240TIP3    H154915   1.518   6.573  11.681  0.2098  0.7203  1.4409
10240TIP3    H254916   1.641   6.508  11.624 -1.4076 -0.3559 -0.9745
10241TIP3   OH254917   6.669   4.460  10.812  0.0830 -0.1753 -0.1533
10241TIP3    H154918   6.657   4.470  10.718 -1.9014 -0.0150  0.0748
10241TIP3    H254919   6.682   4.366  10.824 -0.5469 -0.3209 -0.5251
10242TIP3   OH254920   1.166   5.798  10.943 -0.1825  0.5929  0.8246
10242TIP3    H154921   1.114   5.878  10.944 -0.9700  0.0969  1.4106
10242TIP3    H254922   1.101   5.728  10.941  0.4867 -0.0451 -0.5241
10243TIP3   OH254923   3.129   2.952  10.551 -0.6889  0.0704  0.4561
10243TIP3    H154924   3.120   3.047  10.539 -0.0250  0.1922  0.8937
10243TIP3    H254925   3.168   2.922  10.469 -0.0957  0.3038  0.6463
10244TIP3   OH254926   3.186   5.182  11.000  0.0443  0.1780 -0.4632
10244TIP3    H154927   3.170   5.244  10.929  0.3145  0.3841 -0.3445
10244TIP3    H254928   3.201   5.237  11.077  1.3517 -0.0010 -0.5689
10245TIP3   OH254929   6.281   6.105  11.346  0.0719  0.0498  0.6358
10245TIP3    H154930   6.312   6.091  11.257  0.2560 -0.5150  0.7831
10245TIP3    H254931   6.267   6.200  11.352  0.7916  0.1924  0.2500
10246TIP3   OH254932   6.843   6.694  11.465  0.1494 -0.1775 -0.2479
10246TIP3    H154933   6.874   6.709  11.376  0.3882 -2.2142 -0.5429
10246TIP3    H254934   6.921   6.667  11.514 -0.3730 -1.2864  0.0099
10247TIP3   OH254935   0.175   3.756  11.107 -0.1363 -0.5492 -0.6306
10247TIP3    H154936   0.139   3.705  11.034 -1.9219 -0.4955  0.1467
10247TIP3    H254937   0.098   3.790  11.152  0.8919  3.4877 -1.5105
10248TIP3   OH254938   2.843   3.548  11.761 -0.2014  0.1024  0.0366
10248TIP3    H154939   2.785   3.623  11.773  0.4414  0.6757 -0.3950
10248TIP3    H254940   2.907   3.577  11.695  1.2431 -0.1258  1.2964
10249TIP3   OH254941   2.855   3.651  11.105  0.4618  0.4790  0.2979
10249TIP3    H154942   2.936   3.691  11.135  1.2338 -0.6695 -0.1471
10249TIP3    H254943   2.879   3.560  11.087 -0.7627  0.2866 -0.5054
10250TIP3   OH254944   3.004   6.905  12.510 -0.1749 -0.1248 -0.0916
10250TIP3    H154945   3.034   6.873  12.595 -0.2144 -0.0288 -0.0411
10250TIP3    H254946   2.923   6.856  12.493 -0.5080  0.3174  0.2207
10251TIP3   OH254947   0.655   0.008  11.320 -0.5695  0.2665  0.2292
10251TIP3    H154948   0.683   0.082  11.267 -1.2914 -0.0327 -0.5920
10251TIP3    H254949   0.560   0.016  11.325 -0.5889 -0.1831  0.7729
10252TIP3   OH254950   0.792   5.426  11.451  0.2015  0.2404 -0.0336
10252TIP3    H154951   0.706   5.469  11.454  1.4260  2.8284  0.1925
10252TIP3    H254952   0.794   5.373  11.531 -1.1882  0.0515 -0.0872
10253TIP3   OH254953   1.269   1.344  11.387  0.7295 -0.0634  0.2900
10253TIP3    H154954   1.186   1.345  11.434  0.4689 -1.1128 -0.1255
10253TIP3    H254955   1.333   1.372  11.452  0.3374 -1.2659  1.2372
10254TIP3   OH254956   4.268   4.661  12.407  0.1991  0.0209 -0.6066
10254TIP3    H154957   4.335   4.690  12.469  0.5404 -0.0977 -0.9177
10254TIP3    H254958   4.216   4.598  12.456 -0.7268  1.3272  0.1789
10255TIP3   OH254959   2.110   0.267  12.488  0.3186 -0.1822 -0.1340
10255TIP3    H154960   2.036   0.282  12.430  1.3016  1.3217 -1.0785
10255TIP3    H254961   2.085   0.190  12.539 -1.1053 -0.8325 -1.6943
10256TIP3   OH254962   4.059   0.557  10.639 -0.3686  0.1337  0.0425
10256TIP3    H154963   4.040   0.577  10.731 -0.7146  1.0758 -0.2217
10256TIP3    H254964   4.079   0.464  10.639  3.2166  0.7246  1.6811
10257TIP3   OH254965   7.368   2.465  11.323 -0.0980 -0.3706  0.2214
10257TIP3    H154966   7.382   2.405  11.396  0.4433  1.0965  1.4008
10257TIP3    H254967   7.333   2.411  11.253 -0.5524 -1.8576  1.5377
10258TIP3   OH254968   5.395   0.355  11.317 -0.1660 -0.4952 -0.2272
10258TIP3    H154969   5.323   0.296  11.336 -0.4948 -0.4277 -1.2498
10258TIP3    H254970   5.455   0.304  11.264  1.5079 -1.1804  2.1336
10259TIP3   OH254971   7.537   8.251  10.999 -0.3275  0.3620  0.6589
10259TIP3    H154972   7.558   8.341  10.975 -0.1378  0.3044  0.6094
10259TIP3    H254973   7.480   8.220  10.928  0.6292  0.0304  0.0230
10260TIP3   OH254974   1.000   1.371  12.457 -0.0706 -0.0005 -0.2143
10260TIP3    H154975   1.026   1.291  12.411  1.4141  0.4488 -0.2181
10260TIP3    H254976   1.069   1.434  12.436  0.6449  0.2562  2.5270
10261TIP3   OH254977   4.156   2.746  10.627  0.4630 -0.1170 -0.2140
10261TIP3    H154978   4.234   2.692  10.634  0.2017 -0.3245  1.5824
10261TIP3    H254979   4.154   2.797  10.709 -0.1944  1.3839 -1.1194
10262TIP3   OH254980   0.506   5.420  11.655  0.3086  0.4371  0.5709
10262TIP3    H154981   0.417   5.383  11.649  1.2972 -1.8428 -1.9727
10262TIP3    H254982   0.513   5.478  11.580  1.3238 -0.3792  0.0087
10263TIP3   OH254983   6.526   7.882  10.861 -0.0585  0.5060 -0.1158
10263TIP3    H154984   6.566   7.861  10.777 -2.4963  2.3917 -1.9029
10263TIP3    H254985   6.473   7.806  10.882  2.1712 -0.8763  0.9235
10264TIP3   OH254986   0.330   4.801  10.620  0.8942 -0.1249  0.8385
10264TIP3    H154987   0.318   4.896  10.616  0.0608 -0.2073  1.0513
10264TIP3    H254988   0.308   4.770  10.531  1.1121 -0.1235  0.7841
10265TIP3   OH254989   4.699   5.619  10.884 -0.2043 -0.3936 -0.2688
10265TIP3    H154990   4.682   5.686  10.951  1.6838  0.0589 -0.1602
10265TIP3    H254991   4.649   5.648  10.808 -0.5810  0.3528  0.2485
10266TIP3   OH254992   4.694   3.504  11.680 -0.1065 -0.5743  0.2919
10266TIP3    H154993   4.600   3.503  11.699  0.1059 -1.2507  1.3792
10266TIP3    H254994   4.703   3.562  11.605 -1.3839 -0.4171  0.2483
10267TIP3   OH254995   7.934   6.180  11.649  0.1872 -0.3568 -0.7188
10267TIP3    H154996   7.839   6.164  11.644 -0.0540 -0.0664  1.8253
10267TIP3    H254997   7.959   6.147  11.735  2.1902  0.7373 -0.8360
10268TIP3   OH254998   1.026   7.960  10.741  0.7615 -0.5455  0.1516
10268TIP3    H154999   0.971   7.977  10.817  1.9105 -0.3638  0.9687
10268TIP3    H255000   1.009   8.034  10.682 -0.5142 -0.9492 -0.0087
10269TIP3   OH255001   4.156   4.236  12.792  0.8356 -0.7033 -0.0786
10269TIP3    H155002   4.091   4.178  12.752  0.0034 -0.1093  0.3690
10269TIP3    H255003   4.118   4.324  12.784  3.4943  0.3381 -3.6591
10270TIP3   OH255004   3.291   5.759  11.211  0.0651 -0.4371  0.7585
10270TIP3    H155005   3.379   5.722  11.216  0.9681  1.2411 -1.1887
10270TIP3    H255006   3.235   5.685  11.185  0.9753 -1.3955  1.4621
10271TIP3   OH255007   7.026   7.509  10.899  0.2383  0.5439 -0.0659
10271TIP3    H155008   7.119   7.531  10.887  0.2104  0.5212 -0.3403
10271TIP3    H255009   6.989   7.585  10.945 -0.0839  1.6019 -1.9353
10272TIP3   OH255010   7.905   1.333  11.711 -0.2240  0.3458  0.0733
10272TIP3    H155011   7.910   1.250  11.664 -0.5784  0.6156 -0.4491
10272TIP3    H255012   7.826   1.326  11.764 -0.0913  0.2384  0.2629
10273TIP3   OH255013   2.042   7.694  11.078  0.3726 -0.2552  0.0509
10273TIP3    H155014   2.076   7.623  11.022  1.2091  0.7530 -0.7694
10273TIP3    H255015   1.948   7.679  11.081  0.3677 -0.6538 -1.2110
10274TIP3   OH255016   6.517   7.126  11.702 -0.0567 -0.2628 -0.5714
10274TIP3    H155017   6.533   7.114  11.608  1.6033 -0.2041 -0.3223
10274TIP3    H255018   6.443   7.069  11.721 -2.3842  1.8719 -2.4615
10275TIP3   OH255019   1.751   5.458  11.133  0.9693 -0.6591  0.3041
10275TIP3    H155020   1.785   5.372  11.155  0.1803 -1.3849 -1.1686
10275TIP3    H255021   1.664   5.441  11.098  0.5280  0.8100  0.6273
10276TIP3   OH255022   4.953   4.457  11.386 -0.2511  0.0516 -0.5439
10276TIP3    H155023   4.965   4.552  11.386 -1.5085  0.2301 -0.0246
10276TIP3    H255024   5.040   4.422  11.367  0.4204  1.2816  0.1350
10277TIP3   OH255025   3.831   4.960  10.629 -0.1309  0.0676  0.0623
10277TIP3    H155026   3.757   4.989  10.575 -0.9084 -1.8226  0.0072
10277TIP3    H255027   3.869   4.887  10.579 -0.4295 -1.2616  1.6684
10278TIP3   OH255028   4.508   2.137  11.402  0.1353  0.0882 -0.3659
10278TIP3    H155029   4.516   2.139  11.497  1.1263  0.4782 -0.4440
10278TIP3    H255030   4.416   2.154  11.385  0.2805  2.0527  0.4745
10279TIP3   OH255031   6.712   6.433  11.896  0.1891  0.6637 -1.2708
10279TIP3    H155032   6.737   6.354  11.847 -0.0206  0.1093 -0.5018
10279TIP3    H255033   6.617   6.428  11.902  0.0928  1.4261 -1.9512
10280TIP3   OH255034   6.985   6.937  11.102 -0.1072 -0.0503 -0.3092
10280TIP3    H155035   6.969   6.912  11.011 -0.0306  1.2476 -0.7034
10280TIP3    H255036   6.960   7.029  11.106 -0.1237 -0.0943  0.9954
10281TIP3   OH255037   1.554   1.021  11.995  0.0894  0.1583  0.1185
10281TIP3    H155038   1.505   0.939  11.986 -0.8920  0.5893  1.2134
10281TIP3    H255039   1.582   1.043  11.907 -0.2536 -0.9908 -0.2885
10282TIP3   OH255040   5.699   4.862  11.578  0.1131  0.3264  0.2392
10282TIP3    H155041   5.660   4.945  11.551 -1.1419 -0.7817 -1.5690
10282TIP3    H255042   5.673   4.852  11.670 -1.4995  0.9745 -0.1139
10283TIP3   OH255043   3.487   7.920  11.437 -0.3116  0.2309 -0.2828
10283TIP3    H155044   3.405   7.873  11.452 -0.3596  0.7897  1.3921
10283TIP3    H255045   3.551   7.851  11.418 -1.0240 -0.2503 -1.0051
10284TIP3   OH255046   0.201   5.619  10.902 -0.4078  0.0279 -0.0874
10284TIP3    H155047   0.193   5.661  10.987 -0.5196 -1.4095  0.6415
10284TIP3    H255048   0.153   5.537  10.911  2.6669 -1.9557 -0.2546
10285TIP3   OH255049   7.391   0.630  10.911  0.6164  0.0741  0.5747
10285TIP3    H155050   7.416   0.621  11.003  1.8891 -1.2295  0.1223
10285TIP3    H255051   7.461   0.682  10.872  0.2891  0.2671  0.2336
10286TIP3   OH255052   1.399   4.437  11.669 -0.1011  0.0805 -0.4679
10286TIP3    H155053   1.417   4.516  11.619 -0.8349 -0.4579 -1.6052
10286TIP3    H255054   1.327   4.461  11.727 -2.9359 -0.6891 -3.3994
10287TIP3   OH255055   4.369   2.039  12.504 -0.3599  0.2444  0.0762
10287TIP3    H155056   4.424   2.106  12.544 -0.2731  0.9891 -1.2125
10287TIP3    H255057   4.338   1.986  12.577  0.9303  0.6656  0.9692
10288TIP3   OH255058   0.447   8.254  11.598 -0.3457 -0.0164  0.5024
10288TIP3    H155059   0.422   8.334  11.646 -1.3940  0.0281 -0.0813
10288TIP3    H255060   0.412   8.183  11.651  0.3198 -0.0813  0.8636
10289TIP3   OH255061   4.584   3.199  11.874  0.3627 -0.2222 -0.1594
10289TIP3    H155062   4.493   3.190  11.902  0.8865  0.4880  1.9009
10289TIP3    H255063   4.636   3.183  11.953  2.0059  0.2247 -1.0986
10290TIP3   OH255064   3.767   5.669  12.140  0.5580  0.7085 -0.0555
10290TIP3    H155065   3.688   5.706  12.100  0.0268  0.8705  1.0941
10290TIP3    H255066   3.837   5.688  12.077 -0.1925  1.1783 -0.7736
10291TIP3   OH255067   1.209   8.182  12.346 -0.0551  0.1792 -0.5924
10291TIP3    H155068   1.178   8.093  12.328  1.0716 -0.0926 -1.2646
10291TIP3    H255069   1.304   8.175  12.345  0.0536  1.1851  0.4742
10292TIP3   OH255070   4.113   3.642  11.698  0.2849  0.0933  0.2780
10292TIP3    H155071   4.170   3.718  11.686 -0.2064  0.3035 -0.9931
10292TIP3    H255072   4.030   3.680  11.728  0.0860  0.0508 -0.2093
10293TIP3   OH255073   4.341   0.429  11.420  0.3069 -0.4201 -0.2554
10293TIP3    H155074   4.255   0.469  11.408  0.0544 -0.7821  0.2931
10293TIP3    H255075   4.331   0.373  11.497  1.3602  0.4782  0.5793
10294TIP3   OH255076   6.249   1.375  11.079 -0.1155  0.4655  0.4047
10294TIP3    H155077   6.235   1.284  11.052  0.5390  0.6874 -0.7341
10294TIP3    H255078   6.331   1.373  11.129 -0.6601  0.2734  1.3314
10295TIP3   OH255079   7.320   5.442  12.297 -0.5306 -0.0295  0.2649
10295TIP3    H155080   7.259   5.516  12.304 -0.6513  0.0477 -1.2476
10295TIP3    H255081   7.384   5.470  12.232 -0.1449 -0.9736  0.2264
10296TIP3   OH255082   7.903   1.465  10.943 -0.5575  0.2085  0.3186
10296TIP3    H155083   7.893   1.558  10.960 -0.4665  0.2595  0.0911
10296TIP3    H255084   7.939   1.460  10.855 -0.7246 -0.0472  0.2630
10297TIP3   OH255085   1.326   0.704  11.566 -0.0119 -0.1807 -0.5368
10297TIP3    H155086   1.292   0.633  11.511  0.0007  0.3265 -1.2012
10297TIP3    H255087   1.257   0.720  11.630 -0.0618 -0.7150 -0.4502
10298TIP3   OH255088   2.324   5.146  11.691  0.1176 -0.3335  0.1125
10298TIP3    H155089   2.321   5.123  11.784  0.7140  0.5112  0.3454
10298TIP3    H255090   2.379   5.078  11.651  3.3679  1.5449  1.0894
10299TIP3   OH255091   0.215   0.571  10.418  0.0399  0.3268 -0.1060
10299TIP3    H155092   0.240   0.648  10.367 -0.3144  0.9935  0.7010
10299TIP3    H255093   0.232   0.596  10.509  3.3558 -1.8370  0.0331
10300TIP3   OH255094   4.435   5.097  11.037  0.0226  0.9155 -0.1745
10300TIP3    H155095   4.516   5.103  11.086  0.9868  2.5070 -1.8254
10300TIP3    H255096   4.455   5.040  10.963 -0.7313  0.3496  0.0449
10301TIP3   OH255097   3.547   4.422  10.852 -0.7033  0.4588 -0.0734
10301TIP3    H155098   3.496   4.489  10.896  0.7578  0.9168  1.0272
10301TIP3    H255099   3.574   4.362  10.922  0.3729  0.3333 -0.5638
10302TIP3   OH255100   7.852   0.529  10.541 -0.2753 -0.0683  0.3263
10302TIP3    H155101   7.769   0.572  10.520 -0.6938 -0.1875  1.6879
10302TIP3    H255102   7.871   0.475  10.464 -0.5024  1.3589 -0.7853
10303TIP3   OH255103   4.739   3.543  12.573  0.5940  0.4869 -0.2880
10303TIP3    H155104   4.687   3.609  12.619  1.4443  0.8339  0.2135
10303TIP3    H255105   4.778   3.490  12.643 -1.3293 -1.6192 -0.6672
10304TIP3   OH255106   0.685   8.341  12.577  0.1333  0.5116  0.4759
10304TIP3    H155107   0.654   8.424  12.542 -0.7649 -0.1147 -0.2479
10304TIP3    H255108   0.608   8.285  12.578  0.6470 -0.1995  1.3225
10305TIP3   OH255109   6.910   2.836  11.468  0.1044  0.4826 -0.1364
10305TIP3    H155110   6.868   2.791  11.541  0.5490 -1.1067 -0.8380
10305TIP3    H255111   6.884   2.928  11.479 -2.7519 -0.2705  0.0012
10306TIP3   OH255112   3.770   4.136  10.682 -0.2928 -0.1561 -0.4964
10306TIP3    H155113   3.852   4.095  10.708 -0.2990  0.0335 -0.1655
10306TIP3    H255114   3.785   4.166  10.592  0.1453  0.2521 -0.2909
10307TIP3   OH255115   7.411   0.633  12.667  0.7884 -0.3917 -0.1073
10307TIP3    H155116   7.361   0.567  12.620  1.0138  0.0808 -1.0334
10307TIP3    H255117   7.502   0.602  12.662  1.0601  0.5395 -1.5579
10308TIP3   OH255118   6.084   1.581  11.143  0.0053 -0.9240 -0.0260
10308TIP3    H155119   6.004   1.551  11.100 -0.2973 -1.4091  0.8445
10308TIP3    H255120   6.136   1.502  11.155  0.5502 -0.6337 -0.4382
10309TIP3   OH255121   6.125   5.551  11.364  0.0852  0.4378 -0.2374
10309TIP3    H155122   6.217   5.579  11.366 -0.1229  1.1750  1.3909
10309TIP3    H255123   6.121   5.482  11.430 -0.5302  0.4452 -0.2672
10310TIP3   OH255124   3.060   0.817  11.821 -0.4273  0.0527 -0.0684
10310TIP3    H155125   2.990   0.882  11.821 -1.3820 -0.9062 -1.5764
10310TIP3    H255126   3.071   0.793  11.913  0.8300  3.1749  0.7146
10311TIP3   OH255127   1.901   1.766  11.864 -0.1078 -0.2588  0.1238
10311TIP3    H155128   1.954   1.824  11.920 -0.1814  1.5890 -1.6042
10311TIP3    H255129   1.956   1.751  11.787 -0.5050 -1.7396  0.1084
10312TIP3   OH255130   2.831   7.000  12.751 -0.2008  0.4634  0.8754
10312TIP3    H155131   2.888   7.062  12.706  1.3657 -2.2606 -1.2032
10312TIP3    H255132   2.754   6.993  12.695  0.2409 -0.4095  0.3484
10313TIP3   OH255133   4.591   8.184  10.929  0.6451  0.2544  0.2806
10313TIP3    H155134   4.583   8.186  10.833  2.0543  0.5248  0.1457
10313TIP3    H255135   4.572   8.273  10.956 -1.3952 -0.1690  0.4488
10314TIP3   OH255136   0.009   3.097  11.947  0.3322 -0.1790 -0.1386
10314TIP3    H155137   0.074   3.059  11.888  1.1744  2.4585 -1.0326
10314TIP3    H255138   0.008   3.038  12.023  2.7384 -1.0376 -0.7008
10315TIP3   OH255139   7.021   0.903  10.424 -0.1288 -0.3909 -0.2784
10315TIP3    H155140   6.993   0.814  10.442  0.4498 -0.2066  1.8829
10315TIP3    H255141   6.947   0.944  10.381 -1.0094 -1.4857  0.1492
10316TIP3   OH255142   4.389   6.995  11.604 -0.0088 -0.2271  0.0050
10316TIP3    H155143   4.427   6.925  11.550  0.4372 -0.3011  0.4054
10316TIP3    H255144   4.437   6.990  11.687 -0.3418  0.2103  0.2298
10317TIP3   OH255145   5.136   2.998  12.263  0.1674  0.0496  0.1147
10317TIP3    H155146   5.140   3.070  12.201 -0.8841 -0.9909 -1.2191
10317TIP3    H255147   5.150   2.919  12.210 -0.8845 -0.8800  1.1505
10318TIP3   OH255148   5.290   6.575  10.438  0.1548  0.3539  0.0968
10318TIP3    H155149   5.287   6.487  10.399 -0.2122  0.6381 -0.5304
10318TIP3    H255150   5.208   6.616  10.411 -0.2919  0.4415  1.4951
10319TIP3   OH255151   4.600   7.788  12.649 -0.1084 -0.7012 -0.4593
10319TIP3    H155152   4.505   7.788  12.637 -0.4040  1.0821  1.4318
10319TIP3    H255153   4.620   7.698  12.676 -1.3568 -0.9265 -0.2096
10320TIP3   OH255154   8.284   2.208  10.761 -0.2223  0.1890  0.4412
10320TIP3    H155155   8.379   2.208  10.751 -0.2193  0.8107  0.4152
10320TIP3    H255156   8.256   2.123  10.727  0.3232  0.0089  0.4386
10321TIP3   OH255157   7.218   3.196  11.863 -0.2150 -0.8088  0.1000
10321TIP3    H155158   7.139   3.173  11.815  0.1938 -1.0285 -0.4879
10321TIP3    H255159   7.278   3.123  11.848  1.3800  0.8113 -2.4139
10322TIP3   OH255160   3.216   3.454  12.865 -0.5439  0.2304 -0.1273
10322TIP3    H155161   3.145   3.403  12.903 -0.7812 -0.0102 -0.8738
10322TIP3    H255162   3.288   3.392  12.855 -1.1228 -0.2206 -1.8665
10323TIP3   OH255163   8.121   4.991  10.478 -0.6255 -0.1405 -0.4559
10323TIP3    H155164   8.164   4.915  10.439 -1.7203 -0.5938 -0.8306
10323TIP3    H255165   8.027   4.973  10.468 -0.9083  1.4954 -1.0163
10324TIP3   OH255166   6.327   5.268  11.559  0.3344  0.0365 -0.3561
10324TIP3    H155167   6.302   5.263  11.652 -0.3162  2.0220 -0.3733
10324TIP3    H255168   6.252   5.231  11.512 -0.0373  0.5383 -0.1590
10325TIP3   OH255169   6.659   6.701  11.655  0.0241 -0.5604 -0.0316
10325TIP3    H155170   6.588   6.656  11.609  0.9337 -0.8390 -1.2039
10325TIP3    H255171   6.735   6.689  11.599  1.0316 -0.3408  1.2441
10326TIP3   OH255172   5.737   7.590  12.070  0.1330  0.7454  0.5101
10326TIP3    H155173   5.692   7.510  12.098  1.5550  0.4083  1.9432
10326TIP3    H255174   5.788   7.563  11.994 -1.6953  1.0469 -0.9119
10327TIP3   OH255175   3.775   2.524  12.326 -0.1350  0.0445 -0.7646
10327TIP3    H155176   3.767   2.608  12.281 -0.1842 -0.1921 -1.1955
10327TIP3    H255177   3.852   2.534  12.383  0.0677  0.2569 -1.0773
10328TIP3   OH255178   4.641   5.754  11.999  0.4377  0.2626 -0.1259
10328TIP3    H155179   4.645   5.696  11.923 -0.2683 -1.4058  1.0686
10328TIP3    H255180   4.549   5.760  12.021  0.5323  1.5831 -0.0009
10329TIP3   OH255181   6.185   4.245  11.184 -0.0841  0.9475 -0.1204
10329TIP3    H155182   6.276   4.243  11.216 -0.2274  2.2086  0.3977
10329TIP3    H255183   6.187   4.307  11.111 -0.6931  1.6676  0.4597
10330TIP3   OH255184   7.779   1.604  11.833  0.4115  0.4196  0.1993
10330TIP3    H155185   7.862   1.565  11.858 -0.1633 -1.0328 -0.0565
10330TIP3    H255186   7.781   1.605  11.737 -0.5619 -1.2817  0.1270
10331TIP3   OH255187   3.560   0.576  11.472 -0.1461 -0.1528 -0.1465
10331TIP3    H155188   3.550   0.483  11.492 -0.4640 -0.3541 -1.1476
10331TIP3    H255189   3.653   0.594  11.486 -0.5658  0.1191  2.8962
10332TIP3   OH255190   0.804   2.834  12.209  0.2614  0.4875  0.2428
10332TIP3    H155191   0.755   2.897  12.262 -2.3479 -1.7244  0.7585
10332TIP3    H255192   0.842   2.774  12.273 -0.0051 -0.2463 -0.2650
10333TIP3   OH255193   6.453   3.184  11.600 -0.0696 -0.1266 -0.5932
10333TIP3    H155194   6.437   3.234  11.680  2.2672 -0.2369  0.0116
10333TIP3    H255195   6.366   3.162  11.567 -1.1047 -0.4148  2.1341
10334TIP3   OH255196   6.935   3.740  10.942 -1.0334 -0.2994 -0.9306
10334TIP3    H155197   6.994   3.698  11.005 -1.3109 -1.4942 -1.4507
10334TIP3    H255198   6.847   3.717  10.972 -1.2682  1.3798 -0.2295
10335TIP3   OH255199   1.254   7.489  11.618 -0.0403 -0.6355 -0.4277
10335TIP3    H155200   1.313   7.496  11.693  0.6871  1.8677 -1.1514
10335TIP3    H255201   1.173   7.454  11.654 -0.4372  2.4233  2.0053
10336TIP3   OH255202   2.241   1.453  11.621 -0.1841 -0.0061  0.0757
10336TIP3    H155203   2.318   1.433  11.675  0.5719  1.1867 -0.5264
10336TIP3    H255204   2.169   1.407  11.665  0.9765 -1.8061  0.2217
10337TIP3   OH255205   5.816   4.059  11.628  0.2134 -0.1769  0.5013
10337TIP3    H155206   5.901   4.062  11.672  1.6246  1.4216 -2.0838
10337TIP3    H255207   5.775   4.143  11.649 -0.3373 -0.5397  0.9309
10338TIP3   OH255208   8.400   4.902  11.809  0.0543  0.2485  0.3360
10338TIP3    H155209   8.417   4.838  11.740  1.3135  1.8189 -0.8656
10338TIP3    H255210   8.311   4.933  11.791  1.1551  2.2838 -2.0349
10339TIP3   OH255211   5.823   3.931  11.038 -0.4092  0.0922 -0.4747
10339TIP3    H155212   5.797   3.899  11.125 -1.7665 -1.3979 -1.3749
10339TIP3    H255213   5.915   3.907  11.031  0.0123  1.1492  0.9327
10340TIP3   OH255214   6.283   5.896  11.744  0.2155  0.0506 -0.3529
10340TIP3    H155215   6.234   5.911  11.825 -2.4284  2.2689 -2.1613
10340TIP3    H255216   6.259   5.807  11.718  0.1561 -0.2491  0.6746
10341TIP3   OH255217   2.348   0.266  11.545 -0.2290 -0.2974 -0.1031
10341TIP3    H155218   2.329   0.325  11.473 -0.7194  0.3135  0.5166
10341TIP3    H255219   2.337   0.319  11.624  1.3099 -0.6583  0.4019
10342TIP3   OH255220   3.505   1.602  11.998 -0.2344 -0.0696 -0.3778
10342TIP3    H155221   3.571   1.540  11.965 -1.6976 -1.4368 -0.8323
10342TIP3    H255222   3.555   1.662  12.053  1.2787 -1.5609 -0.0255
10343TIP3   OH255223   6.860   3.718  11.236  0.0254 -0.7413  0.0364
10343TIP3    H155224   6.917   3.641  11.236 -0.1412 -0.8733  0.7325
10343TIP3    H255225   6.778   3.687  11.199 -0.4815 -1.2591  1.5061
10344TIP3   OH255226   0.442   6.484  11.253  0.9082  0.0924 -0.2972
10344TIP3    H155227   0.479   6.402  11.219 -0.2340 -1.0138  0.9959
10344TIP3    H255228   0.463   6.483  11.346 -0.6878  0.3492  0.1030
10345TIP3   OH255229   7.594   7.248  12.476 -0.1576 -0.1954 -0.1461
10345TIP3    H155230   7.502   7.270  12.489  0.4741  1.8824  1.4328
10345TIP3    H255231   7.630   7.242  12.565  1.0367 -2.0207 -0.6958
10346TIP3   OH255232   6.414   0.128  11.996  0.4925 -0.1842 -0.0222
10346TIP3    H155233   6.377   0.050  11.954 -1.2865 -0.6102  2.0975
10346TIP3    H255234   6.360   0.200  11.964 -0.1101 -0.3466  0.5956
10347TIP3   OH255235   4.341   2.437  12.316  0.2065  0.1294 -0.0979
10347TIP3    H155236   4.427   2.397  12.303  0.5074  0.4093  0.8895
10347TIP3    H255237   4.282   2.364  12.332  0.1801 -0.0903 -1.1826
10348TIP3   OH255238   2.010   0.041  12.683  0.2516  0.3990  0.3247
10348TIP3    H155239   1.971   0.121  12.719  0.1949  1.1849 -1.3538
10348TIP3    H255240   1.945   0.010  12.620  0.2202 -1.0793  1.0532
10349TIP3   OH255241   5.929   7.422  12.807  0.4933 -0.0151 -1.0331
10349TIP3    H155242   5.926   7.505  12.759  2.0992  1.9971  2.0317
10349TIP3    H255243   5.840   7.388  12.801 -0.7926  2.9808 -0.7790
10350TIP3   OH255244   5.287   0.057  11.127  0.1173  0.4035  0.5230
10350TIP3    H155245   5.243   0.063  11.212 -0.2488  0.2352  0.3467
10350TIP3    H255246   5.354   0.126  11.131 -1.0803  1.6415  0.2628
10351TIP3   OH255247   6.292   6.740  12.078  0.0772 -0.1819  0.7338
10351TIP3    H155248   6.371   6.686  12.078 -0.6351 -1.3389  2.3596
10351TIP3    H255249   6.320   6.824  12.115  0.9650  0.2087 -0.7535
10352TIP3   OH255250   0.387   0.833  11.778  0.3102  0.0313  0.5567
10352TIP3    H155251   0.294   0.857  11.776  0.6659  1.5079 -0.4948
10352TIP3    H255252   0.392   0.752  11.728 -0.4523 -0.2757  0.9569
10353TIP3   OH255253   0.970   2.933  11.975 -0.3821 -0.2079  0.0431
10353TIP3    H155254   0.907   2.919  12.046 -2.1247 -0.2466 -1.4426
10353TIP3    H255255   0.944   2.870  11.908  1.5022 -0.4766 -0.4845
10354TIP3   OH255256   8.200   5.384  10.871  0.6612 -0.1720 -0.2690
10354TIP3    H155257   8.198   5.369  10.777 -1.1132 -1.8679 -0.0350
10354TIP3    H255258   8.248   5.309  10.907 -1.7532 -1.5265  0.3741
10355TIP3   OH255259   6.163   1.523  10.868  0.4478  0.2291 -0.0418
10355TIP3    H155260   6.193   1.476  10.946  1.2366  0.2404 -0.3264
10355TIP3    H255261   6.217   1.489  10.797 -0.3825  0.0997 -0.6223
10356TIP3   OH255262   1.593   7.526  10.641 -0.5393 -0.3698  0.4199
10356TIP3    H155263   1.626   7.613  10.620  1.4322 -0.6180  2.1573
10356TIP3    H255264   1.528   7.540  10.709 -1.4460 -0.1714 -0.4572
10357TIP3   OH255265   1.654   5.105  11.332  0.4351 -0.3864 -0.4998
10357TIP3    H155266   1.707   5.027  11.313  0.2798 -0.8058  0.7349
10357TIP3    H255267   1.693   5.142  11.411 -0.5392 -0.1738 -0.1058
10358TIP3   OH255268   6.877   8.139  11.288  0.3205 -0.2452  0.3088
10358TIP3    H155269   6.861   8.222  11.242 -1.2484 -0.9711 -0.5220
10358TIP3    H255270   6.942   8.094  11.235 -0.0061 -0.2155 -0.1224
10359TIP3   OH255271   2.669   1.858  10.645  0.2442  0.1342  0.3361
10359TIP3    H155272   2.731   1.877  10.714  1.8323 -0.2216 -0.9275
10359TIP3    H255273   2.667   1.762  10.641  2.7916  0.0527 -2.2336
10360TIP3   OH255274   2.035   7.887  11.654  0.2872  0.0017 -0.2379
10360TIP3    H155275   2.124   7.922  11.659 -0.5861  2.3752  0.1692
10360TIP3    H255276   2.028   7.855  11.564  1.0431  1.3303 -0.8018
10361TIP3   OH255277   2.162   2.543  11.572 -0.0778 -0.0398  0.1998
10361TIP3    H155278   2.134   2.580  11.488  2.0612  1.3014  0.0001
10361TIP3    H255279   2.142   2.612  11.636 -1.5535 -0.9969  0.8274
10362TIP3   OH255280   1.368   7.525  11.151  0.0069 -0.4791  0.4683
10362TIP3    H155281   1.295   7.463  11.149 -0.2552 -0.1963  0.9643
10362TIP3    H255282   1.328   7.609  11.127  0.1612 -0.3144  0.7885
10363TIP3   OH255283   7.201   4.478  11.182 -0.3418  0.0923  0.2538
10363TIP3    H155284   7.136   4.471  11.252 -2.5552 -1.1495 -1.7438
10363TIP3    H255285   7.256   4.400  11.192 -0.5730 -0.0187  0.6678
10364TIP3   OH255286   4.831   4.140  12.685 -0.0837  0.1171  0.2702
10364TIP3    H155287   4.845   4.232  12.708 -0.3815  0.2551 -0.0803
10364TIP3    H255288   4.762   4.142  12.618 -0.3186 -0.3867  0.4884
10365TIP3   OH255289   2.382   0.295  12.575  0.3414 -0.0530  0.0195
10365TIP3    H155290   2.289   0.304  12.556 -0.4604 -0.6839  3.0507
10365TIP3    H255291   2.407   0.379  12.613  0.6755 -0.2667  0.2828
10366TIP3   OH255292   0.282   1.141  10.582  0.2856 -0.3904  0.1345
10366TIP3    H155293   0.259   1.231  10.604  0.4855 -0.2250 -0.3160
10366TIP3    H255294   0.361   1.149  10.528  0.8699 -0.8926  0.8966
10367TIP3   OH255295   5.207   1.138  12.477 -0.8228 -0.1941  0.5270
10367TIP3    H155296   5.281   1.122  12.535 -0.8972  0.5633  0.8312
10367TIP3    H255297   5.229   1.219  12.431 -1.3398 -0.1101  0.4223
10368TIP3   OH255298   6.275   0.996  12.459  0.0278  0.0286 -0.3048
10368TIP3    H155299   6.244   0.925  12.402  0.1373  0.0311 -0.3670
10368TIP3    H255300   6.310   0.951  12.536  3.9752 -0.2928 -2.0618
10369TIP3   OH255301   8.184   3.007  11.089  0.7225  0.3876  0.1127
10369TIP3    H155302   8.094   2.999  11.123  1.1190  1.3906  1.5094
10369TIP3    H255303   8.221   2.920  11.098  0.6551  0.5130  1.8868
10370TIP3   OH255304   6.684   7.429  11.665 -0.3852  0.1528 -0.4259
10370TIP3    H155305   6.657   7.493  11.730  0.1685  0.7662 -0.7835
10370TIP3    H255306   6.750   7.376  11.709 -0.4308  0.1922 -0.3099
10371TIP3   OH255307   8.086   6.436  11.597  0.5502 -0.4892  0.8011
10371TIP3    H155308   8.022   6.365  11.593  0.0147  0.0561 -1.8406
10371TIP3    H255309   8.119   6.445  11.508  1.9094  1.4362  1.4153
10372TIP3   OH255310   7.419   5.748  11.034  0.6611  0.2581 -0.0965
10372TIP3    H155311   7.492   5.804  11.011 -0.6992  1.6067 -1.3621
10372TIP3    H255312   7.369   5.739  10.953 -2.2369  1.9809  1.3280
10373TIP3   OH255313   0.408   0.254  11.040  0.6767  0.2647 -0.0570
10373TIP3    H155314   0.472   0.241  10.969 -1.7364  1.2060 -2.5801
10373TIP3    H255315   0.324   0.232  11.001 -1.2456  4.1102  1.3717
10374TIP3   OH255316   6.449   6.482  12.063  0.7010 -0.4676  0.0325
10374TIP3    H155317   6.373   6.424  12.053 -0.5554  1.2234 -0.7261
10374TIP3    H255318   6.470   6.479  12.156  0.0574 -1.3828  0.1624
10375TIP3   OH255319   1.589   4.476  12.520 -0.1312  0.4018 -0.0972
10375TIP3    H155320   1.563   4.519  12.602  2.2878  1.3723  0.2460
10375TIP3    H255321   1.584   4.546  12.454  1.9763  0.7757  0.0891
10376TIP3   OH255322   7.298   7.884  11.379 -0.9150  0.2091  0.0641
10376TIP3    H155323   7.353   7.846  11.448  0.7739 -1.3729 -1.9973
10376TIP3    H255324   7.216   7.835  11.384 -0.1134 -1.2134 -0.2113
10377TIP3   OH255325   4.346   0.597  11.855 -0.5700  0.1541 -0.7249
10377TIP3    H155326   4.362   0.509  11.822  1.7791 -0.0851  0.8891
10377TIP3    H255327   4.352   0.590  11.950  0.0185  2.1146 -0.5722
10378TIP3   OH255328   3.476   1.704  10.850 -0.3890 -0.1156 -0.3382
10378TIP3    H155329   3.546   1.702  10.784 -1.0227 -0.1102 -1.0304
10378TIP3    H255330   3.495   1.782  10.902  0.7100 -0.6939  0.1573
10379TIP3   OH255331   1.047   6.288  11.344 -0.5956 -0.1100  0.3224
10379TIP3    H155332   1.094   6.222  11.394 -0.3058 -0.1756 -0.0306
10379TIP3    H255333   1.022   6.354  11.408 -0.2771 -0.2202  0.5598
10380TIP3   OH255334   1.908   2.162  12.131  0.3105  0.3172  0.6466
10380TIP3    H155335   1.862   2.152  12.214  0.0988  1.0044  0.6238
10380TIP3    H255336   1.842   2.199  12.072  0.7182  0.7415  0.4473
10381TIP3   OH255337   0.887   4.031  12.561  0.2524 -0.3244  0.1783
10381TIP3    H155338   0.800   4.072  12.563  1.0290  1.4122  0.9034
10381TIP3    H255339   0.924   4.058  12.477  1.1725  1.4521  1.1053
10382TIP3   OH255340   8.383   1.990  11.160 -0.2671 -0.5530 -0.1136
10382TIP3    H155341   8.349   1.903  11.184 -0.8143 -0.1372  0.6893
10382TIP3    H255342   8.400   2.032  11.244 -1.6456  0.7357 -0.4491
10383TIP3   OH255343   7.535   6.900  10.797  0.2494  0.2003  0.5589
10383TIP3    H155344   7.475   6.826  10.802  1.3290 -0.7092  0.5457
10383TIP3    H255345   7.540   6.921  10.703 -0.0643  0.3040  0.5639
10384TIP3   OH255346   3.980   3.828  11.055 -0.2778  0.5091  0.3307
10384TIP3    H155347   3.917   3.756  11.057 -0.1106  0.3812  1.0227
10384TIP3    H255348   4.059   3.792  11.095  0.5074  0.4307 -1.1989
10385TIP3   OH255349   6.411   3.843  10.796 -0.2170 -0.5571 -0.2367
10385TIP3    H155350   6.346   3.781  10.829 -0.6399 -0.4755 -0.8901
10385TIP3    H255351   6.456   3.875  10.874 -1.4117 -0.1238  0.3009
10386TIP3   OH255352   1.596   0.813  10.476  0.0738  0.0204 -0.6892
10386TIP3    H155353   1.534   0.880  10.446 -0.0575  0.3405  0.2565
10386TIP3    H255354   1.543   0.756  10.532  0.8276  0.9362  1.0473
10387TIP3   OH255355   3.061   5.672  11.055 -0.4168  0.7253  0.2539
10387TIP3    H155356   2.979   5.711  11.087 -0.4532 -0.1336  1.2511
10387TIP3    H255357   3.035   5.627  10.975 -0.7705  1.0618  0.1717
10388TIP3   OH255358   2.234   3.448  11.645  0.1333  0.4240 -0.5995
10388TIP3    H155359   2.208   3.501  11.720  1.6639  2.6510 -1.5356
10388TIP3    H255360   2.162   3.459  11.582  0.1975  0.9706 -0.5817
10389TIP3   OH255361   3.514   1.417  11.278  0.2773  0.1201  0.4799
10389TIP3    H155362   3.437   1.366  11.303  0.5820  0.3435  1.9615
10389TIP3    H255363   3.518   1.487  11.343  2.0346 -0.1983  0.7433
10390TIP3   OH255364   7.136   0.931  12.019 -0.4099 -0.5454  0.0098
10390TIP3    H155365   7.197   0.976  11.960 -1.5746  0.0488 -0.7872
10390TIP3    H255366   7.053   0.978  12.008 -0.3806  0.4125  3.0956
10391TIP3   OH255367   3.250   5.470  11.425  0.1576 -0.3491  0.2931
10391TIP3    H155368   3.301   5.550  11.434  0.6737 -0.4493 -1.5463
10391TIP3    H255369   3.169   5.489  11.473  0.4435  1.1135  0.2518
10392TIP3   OH255370   8.136   2.093  11.001  0.0395  0.0006  0.4032
10392TIP3    H155371   8.157   2.165  10.940  1.3633  1.8998  2.8987
10392TIP3    H255372   8.221   2.055  11.022 -0.3246 -0.2459  1.4590
10393TIP3   OH255373   0.176   8.039  10.555 -0.1063 -0.5277 -0.4920
10393TIP3    H155374   0.212   7.974  10.494  0.0030 -0.9642  0.0293
10393TIP3    H255375   0.206   8.010  10.641 -0.5994 -0.1470 -0.1886
10394TIP3   OH255376   4.965   5.741  11.255  0.0229 -0.0210 -0.1078
10394TIP3    H155377   4.886   5.787  11.229  0.7058  1.1032 -0.2358
10394TIP3    H255378   4.935   5.653  11.280 -1.4279  0.7845  1.0892
10395TIP3   OH255379   1.158   6.048  10.664 -0.3979 -0.6522  0.2201
10395TIP3    H155380   1.193   6.022  10.579 -2.0513  0.8436 -0.9951
10395TIP3    H255381   1.165   6.144  10.665 -1.2340 -0.5786  1.3750
10396TIP3   OH255382   0.111   2.131  10.814  0.2886 -0.5844  0.0304
10396TIP3    H155383   0.103   2.046  10.857  0.3770 -0.7300 -0.2404
10396TIP3    H255384   0.127   2.110  10.722 -0.7028 -0.2811 -0.2248
10397TIP3   OH255385   3.209   8.124  11.249 -0.1355  0.1097  0.4023
10397TIP3    H155386   3.201   8.208  11.203  0.8356 -0.6928 -1.3539
10397TIP3    H255387   3.156   8.064  11.197  2.9647 -1.4000 -1.3190
10398TIP3   OH255388   7.646   0.893  10.396  0.6357 -0.0908  0.2204
10398TIP3    H155389   7.678   0.901  10.306  0.5769 -0.1246  0.1969
10398TIP3    H255390   7.698   0.957  10.445 -0.3757  1.0076 -0.1068
10399TIP3   OH255391   0.073   2.299  11.213  0.0249 -0.4882  0.6407
10399TIP3    H155392  -0.017   2.290  11.247  0.2130  0.3198  1.3984
10399TIP3    H255393   0.063   2.348  11.132 -0.0635  1.5234  1.8046
10400TIP3   OH255394   3.429   7.239  11.336 -0.1305 -0.5440 -0.0872
10400TIP3    H155395   3.458   7.305  11.399  2.5136 -1.3382 -0.3809
10400TIP3    H255396   3.417   7.160  11.388 -0.7818 -0.4940 -0.1504
10401TIP3   OH255397   2.257   4.480  12.492 -0.2987 -0.4793 -0.1329
10401TIP3    H155398   2.279   4.509  12.404  0.6771  1.3475  0.6649
10401TIP3    H255399   2.163   4.491  12.498 -0.4465 -1.0787 -1.0814
10402TIP3   OH255400   6.295   0.002  12.206  0.3067  0.3457  0.0837
10402TIP3    H155401   6.351   0.056  12.150  2.5850  0.0404  1.9012
10402TIP3    H255402   6.329  -0.086  12.196 -0.5657 -0.0482  0.4490
10403TIP3   OH255403   4.264   2.404  11.763  0.2252  0.6032 -0.4433
10403TIP3    H155404   4.358   2.425  11.763  0.3145  0.2581 -1.6185
10403TIP3    H255405   4.224   2.475  11.813  0.8647  2.0558 -1.9075
10404TIP3   OH255406   5.327   3.404  10.849  0.0986 -0.0101 -0.1976
10404TIP3    H155407   5.397   3.469  10.851  0.4075 -0.3595  0.5215
10404TIP3    H255408   5.292   3.410  10.760  0.9461  0.2643 -0.5237
10405TIP3   OH255409   4.252   3.622  12.955  0.2426 -0.4631  0.5320
10405TIP3    H155410   4.344   3.617  12.928 -0.0130  0.4370 -0.5818
10405TIP3    H255411   4.249   3.699  13.012  0.7320 -2.2123  3.0874
10406TIP3   OH255412   7.203   5.040  10.998 -0.1847  0.4599 -0.0675
10406TIP3    H155413   7.151   4.962  11.016  0.7023 -0.0755  0.2332
10406TIP3    H255414   7.146   5.095  10.944 -0.3826 -0.9250 -1.3264
10407TIP3   OH255415   1.655   6.333  10.630 -0.3255 -0.0173  0.3345
10407TIP3    H155416   1.598   6.280  10.574 -0.8351 -0.0033  0.8374
10407TIP3    H255417   1.613   6.332  10.716 -0.1532  0.9082  0.4404
10408TIP3   OH255418   0.099   4.735  10.766 -0.0139 -0.6760  0.5592
10408TIP3    H155419   0.174   4.792  10.753 -1.6845  1.4728 -0.4052
10408TIP3    H255420   0.115   4.659  10.711  1.7035 -0.5610  0.8688
10409TIP3   OH255421   7.423   1.995  11.401 -0.5595  0.2969  0.0821
10409TIP3    H155422   7.475   1.942  11.339 -0.6720  0.9140 -0.5525
10409TIP3    H255423   7.363   1.932  11.441  1.2286 -0.6102  1.4927
10410TIP3   OH255424   5.438   3.518  11.792  0.4191 -0.0913 -0.2078
10410TIP3    H155425   5.418   3.491  11.882  3.5219 -0.0754  0.5879
10410TIP3    H255426   5.359   3.495  11.742 -2.0150  1.2356  2.6930
10411TIP3   OH255427   3.919   2.339  10.711 -0.1617  0.3154  0.4341
10411TIP3    H155428   3.947   2.364  10.799  1.0830  0.6072 -0.0192
10411TIP3    H255429   3.903   2.422  10.666 -1.7296  0.1545  0.6474
10412TIP3   OH255430   4.207   4.269  12.107  0.0263  0.0931  0.4295
10412TIP3    H155431   4.268   4.274  12.034  0.4962  0.5234  0.8403
10412TIP3    H255432   4.173   4.180  12.104  0.9737 -0.2839  0.4257
10413TIP3   OH255433   0.122   5.249  10.546 -0.2871 -0.1168 -0.2299
10413TIP3    H155434   0.124   5.336  10.507  1.6905  0.0212  0.0742
10413TIP3    H255435   0.060   5.256  10.618  0.0407  1.1243 -0.0531
10414TIP3   OH255436   8.015   6.584  10.526  0.0953  0.5400  0.3614
10414TIP3    H155437   8.033   6.517  10.460  0.4122 -0.1936  1.1818
10414TIP3    H255438   8.018   6.537  10.610  1.0614  1.7026  1.0151
10415TIP3   OH255439   3.042   4.936  10.752  0.7123  0.2005  0.0787
10415TIP3    H155440   2.998   4.877  10.692 -0.3129 -0.5619  1.5134
10415TIP3    H255441   2.975   4.960  10.816  1.7820  0.8754  0.9884
10416TIP3   OH255442   4.093   2.086  11.537 -0.4641 -0.8307  0.4198
10416TIP3    H155443   4.168   2.036  11.568  0.2439 -0.1079 -0.0963
10416TIP3    H255444   4.017   2.034  11.563  0.2530 -2.3750 -0.4462
10417TIP3   OH255445   6.958   0.939  10.801 -0.4178  0.5272  0.6939
10417TIP3    H155446   7.026   0.940  10.733  0.5854  0.1297  1.6719
10417TIP3    H255447   6.986   1.003  10.865  0.7494 -1.8155  2.6840
10418TIP3   OH255448   7.436   1.394  11.778 -0.3023  0.5379  0.6131
10418TIP3    H155449   7.369   1.373  11.842 -0.6445  0.9919  0.4156
10418TIP3    H255450   7.450   1.489  11.788  0.1286  0.4907  0.4857
10419TIP3   OH255451   3.333   4.928  12.711  0.0481  0.1702 -0.1852
10419TIP3    H155452   3.359   4.875  12.636  1.4358  0.9777 -0.3018
10419TIP3    H255453   3.237   4.929  12.708 -0.0754 -2.6290  0.0496
10420TIP3   OH255454   2.521   7.051  10.427  0.2371  0.0948 -0.0604
10420TIP3    H155455   2.455   6.985  10.406  0.9936  0.2216 -3.4549
10420TIP3    H255456   2.471   7.130  10.448 -0.6493 -0.9951  2.2379
10421TIP3   OH255457   0.898   8.407  10.787  0.0072  0.2512 -0.4809
10421TIP3    H155458   0.943   8.479  10.742 -0.3166  0.9415  0.2924
10421TIP3    H255459   0.832   8.450  10.841 -0.2648 -0.6414 -0.0974
10422TIP3   OH255460   6.603   2.621  12.548 -0.1255  0.1114  0.0797
10422TIP3    H155461   6.545   2.557  12.589  0.9318 -1.0832 -0.2258
10422TIP3    H255462   6.691   2.583  12.557  0.2238  0.0635 -2.7458
10423TIP3   OH255463   6.479   7.864  11.991 -0.5262  0.3251  0.0854
10423TIP3    H155464   6.485   7.793  12.054  0.6407  0.0952 -0.2596
10423TIP3    H255465   6.402   7.843  11.938  0.9778 -1.8885 -1.4023
10424TIP3   OH255466   6.585   3.234  12.099 -0.1872 -0.0961  0.5659
10424TIP3    H155467   6.634   3.294  12.042  0.6845 -0.8191  0.5378
10424TIP3    H255468   6.650   3.202  12.162 -0.6675 -0.9108  0.6628
10425TIP3   OH255469   3.359   0.542  12.843 -0.0421 -0.4988  0.0146
10425TIP3    H155470   3.315   0.482  12.783 -0.5932  0.8481 -0.9565
10425TIP3    H255471   3.407   0.603  12.787  0.8170 -0.2351  0.9948
10426TIP3   OH255472   2.349   8.436  10.426 -0.4598 -0.2994  0.3759
10426TIP3    H155473   2.289   8.476  10.489 -1.7530  2.1378 -2.1740
10426TIP3    H255474   2.414   8.504  10.408  0.4557 -1.3000 -0.2300
10427TIP3   OH255475   4.223   1.102  11.923 -0.1268 -0.1813  0.0690
10427TIP3    H155476   4.263   1.032  11.870 -0.0643 -0.6023  0.6535
10427TIP3    H255477   4.293   1.129  11.982  0.0367  0.8233 -0.5724
10428TIP3   OH255478   5.175   7.623  10.852  0.4371 -0.1842  0.4529
10428TIP3    H155479   5.115   7.693  10.876 -0.5002 -1.0386  0.6453
10428TIP3    H255480   5.235   7.663  10.789 -0.3010  0.6826  0.2888
10429TIP3   OH255481   2.408   4.503  12.731 -0.3320 -0.2227 -0.4766
10429TIP3    H155482   2.357   4.492  12.651 -1.3277 -1.9320  0.3217
10429TIP3    H255483   2.496   4.526  12.700 -0.5681 -1.2902 -2.0993
10430TIP3   OH255484   5.670   1.887  11.825 -0.3073  0.3923  0.6315
10430TIP3    H155485   5.603   1.847  11.882 -1.7000  2.1600  0.3336
10430TIP3    H255486   5.620   1.922  11.751  1.2541 -0.1840 -0.7544
10431TIP3   OH255487   5.492   1.437  12.388 -0.2456 -0.0088  0.4080
10431TIP3    H155488   5.521   1.510  12.442  0.1825  0.3128 -0.2388
10431TIP3    H255489   5.397   1.438  12.395 -0.2639  0.8215  0.1512
10432TIP3   OH255490   8.247   5.174  11.049 -0.3771 -0.0970 -0.7150
10432TIP3    H155491   8.183   5.103  11.039 -1.2699  0.5244  0.4266
10432TIP3    H255492   8.332   5.130  11.046 -0.9262 -1.4836  1.7555
10433TIP3   OH255493   6.332   6.952  11.663 -0.3261  1.0131 -0.3620
10433TIP3    H155494   6.270   6.884  11.690  0.3971  0.6291  0.3634
10433TIP3    H255495   6.333   6.946  11.567 -1.3881  1.0225 -0.3916
10434TIP3   OH255496   6.847   1.470  12.382  0.7378 -0.0197 -0.1936
10434TIP3    H155497   6.942   1.484  12.388  0.6068  0.8055  0.1307
10434TIP3    H255498   6.810   1.538  12.438 -0.0123 -1.0717  0.6228
10435TIP3   OH255499   0.499   8.335  11.084  0.7980  0.4685 -0.7973
10435TIP3    H155500   0.492   8.286  11.166  1.4385 -1.3689 -1.7795
10435TIP3    H255501   0.458   8.419  11.103 -0.1055 -0.3289  1.0664
10436TIP3   OH255502   5.680   1.294  10.486 -0.0183  1.0257 -0.6190
10436TIP3    H155503   5.593   1.334  10.496  0.0005  1.3470 -1.6990
10436TIP3    H255504   5.666   1.202  10.510 -0.9268  0.8113 -1.8945
10437TIP3   OH255505   3.904   3.912  11.738 -0.2597  0.0809 -0.1401
10437TIP3    H155506   3.852   3.975  11.688  0.0438  0.5684  0.1422
10437TIP3    H255507   3.843   3.873  11.799 -0.0001  1.8869  1.3775
10438TIP3   OH255508   1.765   7.079  12.310  0.3234 -0.0322 -0.0390
10438TIP3    H155509   1.812   7.074  12.393  1.0759 -0.8436 -0.5016
10438TIP3    H255510   1.676   7.103  12.334  0.3980 -0.7960  1.0556
10439TIP3   OH255511   2.075   0.025  11.531 -1.1104 -0.4628  0.0172
10439TIP3    H155512   1.991  -0.013  11.507 -1.8570  1.1650 -0.0945
10439TIP3    H255513   2.054   0.113  11.563  0.1249 -1.2957  3.7181
   8.44854   8.44854  30.00000
