Title
55513
    1DOPE     N    1   3.742   6.041  16.852 -0.0230  0.8598  0.0195
    1DOPE   HN1    2   3.676   5.961  16.858  1.2641 -0.2790 -0.4377
    1DOPE   HN2    3   3.778   6.043  16.755 -2.3136 -1.0630 -0.9595
    1DOPE   HN3    4   3.820   6.022  16.918 -2.0011 -3.3021  1.5017
    1DOPE   C12    5   3.678   6.178  16.893  0.0950 -0.2128  0.0980
    1DOPE  H12A    6   3.649   6.166  17.000  0.4491 -2.5061 -0.0046
    1DOPE  H12B    7   3.590   6.199  16.829  0.4383  0.1703 -0.2574
    1DOPE   C11    8   3.782   6.294  16.873  0.8630  0.9697  0.1862
    1DOPE  H11A    9   3.716   6.383  16.884  1.6219  1.4969  0.5723
    1DOPE  H11B   10   3.825   6.297  16.770 -0.5950  2.6197 -0.4317
    1DOPE     P   11   4.021   6.377  16.963 -0.1792 -0.1717 -0.0828
    1DOPE   O13   12   4.095   6.345  17.086  0.0409  0.1545  0.1222
    1DOPE   O14   13   3.986   6.517  16.938 -0.1360  0.3626  0.4371
    1DOPE   O11   14   4.088   6.306  16.841 -0.8393  0.6418  0.1072
    1DOPE   O12   15   3.883   6.290  16.970 -0.0729 -0.0401  0.1173
    1DOPE    C1   16   4.105   6.161  16.841 -0.1700  0.0586 -0.1638
    1DOPE    HA   17   4.004   6.117  16.829  0.3461 -1.2538  0.1415
    1DOPE    HB   18   4.139   6.130  16.942 -3.9218 -0.5629  1.0640
    1DOPE    C2   19   4.201   6.106  16.734  0.5873 -0.5661 -0.4147
    1DOPE    HS   20   4.308   6.134  16.749  0.9058 -1.6785 -0.5214
    1DOPE   O21   21   4.149   6.150  16.606 -0.0613  0.3218 -0.1546
    1DOPE   C21   22   4.195   6.269  16.575  0.1871  0.5342 -0.2950
    1DOPE   O22   23   4.304   6.313  16.625  1.0396  0.7459 -0.1916
    1DOPE   C22   24   4.101   6.339  16.482  0.0450 -0.3717  0.0055
    1DOPE   H2R   25   4.107   6.448  16.504 -0.0878 -0.0682 -1.3800
    1DOPE   H2S   26   3.992   6.317  16.492  0.5325 -2.3391  1.6029
    1DOPE    C3   27   4.194   5.954  16.735  0.2487  0.1015  0.1158
    1DOPE    HX   28   4.085   5.934  16.736  0.2839 -0.0671  0.9657
    1DOPE    HY   29   4.237   5.930  16.835  0.1413 -1.5726 -0.2178
    1DOPE   O31   30   4.263   5.899  16.612 -0.0781 -0.0944 -0.1893
    1DOPE   C31   31   4.189   5.879  16.503 -0.5877  0.0328  0.0038
    1DOPE   O32   32   4.069   5.896  16.489  0.1712 -0.2625 -0.2407
    1DOPE   C32   33   4.282   5.842  16.393 -0.0271 -0.4424  0.0975
    1DOPE   H2X   34   4.318   5.941  16.359 -0.0699  0.0281  1.3505
    1DOPE   H2Y   35   4.377   5.796  16.429  2.1793  2.2759 -1.8178
    1DOPE   C23   36   4.145   6.340  16.333  0.5291  0.1719 -0.9049
    1DOPE   H3R   37   4.249   6.377  16.327  1.1961 -1.4684  0.0080
    1DOPE   H3S   38   4.082   6.415  16.281  0.3980  1.6640  1.3053
    1DOPE   C24   39   4.143   6.205  16.264 -0.5210 -0.7995 -0.4859
    1DOPE   H4R   40   4.040   6.166  16.275 -0.1245 -1.3352  1.9319
    1DOPE   H4S   41   4.206   6.139  16.328 -1.9670 -0.3154  1.5247
    1DOPE   C25   42   4.194   6.206  16.109  0.6734 -0.3342 -0.6708
    1DOPE   H5R   43   4.198   6.098  16.082  0.1349 -0.6310  0.4134
    1DOPE   H5S   44   4.303   6.228  16.108  0.3742  1.3713 -2.1649
    1DOPE   C26   45   4.120   6.292  16.015 -0.5566  0.1116  0.4741
    1DOPE   H6R   46   4.061   6.359  16.081  1.2442 -1.0096  3.3705
    1DOPE   H6S   47   4.046   6.235  15.954  0.5755  0.7763 -1.6204
    1DOPE   C27   48   4.233   6.360  15.920  0.6983  0.1551 -0.3374
    1DOPE   H7R   49   4.287   6.270  15.884 -1.2895 -1.3527  0.2627
    1DOPE   H7S   50   4.304   6.421  15.980  0.1846  1.6866 -1.2310
    1DOPE   C28   51   4.178   6.432  15.795 -0.2501 -0.6694  0.1089
    1DOPE   H8R   52   4.106   6.510  15.828  0.4871 -0.2131  0.6654
    1DOPE   H8S   53   4.108   6.369  15.735 -1.4789 -0.6697  1.4770
    1DOPE   C29   54   4.291   6.480  15.704  0.1223  0.3646  0.3727
    1DOPE   H9R   55   4.367   6.402  15.686  1.5915  1.4532  1.6012
    1DOPE  C210   56   4.303   6.596  15.642  0.1082  0.1185 -0.0188
    1DOPE  H10R   57   4.400   6.620  15.595  0.0854 -0.8452 -0.5816
    1DOPE  C211   58   4.216   6.721  15.662  0.5360  0.1349  0.5025
    1DOPE  H11R   59   4.181   6.728  15.768 -0.1377  3.0745  0.1793
    1DOPE  H11S   60   4.117   6.711  15.612  0.4030  1.7460  0.3699
    1DOPE  C212   61   4.274   6.853  15.627  0.1677  0.8183  0.5091
    1DOPE  H12R   62   4.372   6.871  15.676 -0.3653 -0.0133  1.9381
    1DOPE  H12S   63   4.207   6.931  15.668  2.0255  1.5628  2.3542
    1DOPE  C213   64   4.266   6.870  15.474 -0.2653 -0.0335 -0.2987
    1DOPE  H13R   65   4.165   6.834  15.446 -0.0519 -1.1498  0.3144
    1DOPE  H13S   66   4.346   6.822  15.413  0.1624  2.4706 -1.8557
    1DOPE  C214   67   4.282   7.023  15.428  0.2859  0.0924 -0.3309
    1DOPE  H14R   68   4.392   7.040  15.430  0.4607 -0.9299 -0.5634
    1DOPE  H14S   69   4.236   7.080  15.511  1.3202 -2.5203  2.1960
    1DOPE  C215   70   4.223   7.053  15.290 -0.2444  0.7570 -0.5845
    1DOPE  H15R   71   4.112   7.045  15.292 -0.2602  1.0863  0.4421
    1DOPE  H15S   72   4.273   6.975  15.230 -2.5591 -0.4735 -1.0188
    1DOPE  C216   73   4.257   7.190  15.232  0.7474 -0.0536  0.0086
    1DOPE  H16R   74   4.365   7.211  15.252  0.9488 -0.2182 -0.8889
    1DOPE  H16S   75   4.215   7.272  15.294  0.7701 -2.4380  3.4348
    1DOPE  C217   76   4.241   7.195  15.072 -0.4030  0.1012  0.2699
    1DOPE  H17R   77   4.315   7.269  15.036  0.2377  0.8731  2.9021
    1DOPE  H17S   78   4.136   7.225  15.057 -0.7483 -1.5938 -0.9052
    1DOPE  C218   79   4.272   7.065  14.998 -0.4110  0.2538 -0.2256
    1DOPE  H18R   80   4.203   6.989  15.040  1.0999 -1.0365  0.0661
    1DOPE  H18S   81   4.379   7.037  15.014 -0.4843  0.1156  0.0354
    1DOPE  H18T   82   4.261   7.075  14.888  2.9726  5.0624 -0.4812
    1DOPE   C33   83   4.215   5.765  16.270  0.2341  0.7567 -0.1190
    1DOPE   H3X   84   4.130   5.830  16.240  0.0532  1.1408  1.1944
    1DOPE   H3Y   85   4.177   5.668  16.308  2.0984  0.2867  0.6272
    1DOPE   C34   86   4.299   5.749  16.146  0.1554  0.0096 -0.2008
    1DOPE   H4X   87   4.301   5.853  16.108 -1.7586 -0.2474 -1.1416
    1DOPE   H4Y   88   4.404   5.719  16.164  0.1648  0.4343  0.4967
    1DOPE   C35   89   4.235   5.673  16.033 -0.2093 -0.0179 -0.3192
    1DOPE   H5X   90   4.129   5.704  16.017 -0.3177  0.8287  1.6912
    1DOPE   H5Y   91   4.214   5.565  16.051 -2.4050  0.3232 -0.5520
    1DOPE   C36   92   4.297   5.698  15.894  0.8246  0.5299 -0.4597
    1DOPE   H6X   93   4.407   5.696  15.914  0.6875  0.6080  0.3165
    1DOPE   H6Y   94   4.280   5.799  15.851  3.2513  0.5298 -1.5933
    1DOPE   C37   95   4.247   5.580  15.804 -0.1600 -0.3861 -0.1124
    1DOPE   H7X   96   4.246   5.483  15.858 -1.9783 -1.1236 -1.3418
    1DOPE   H7Y   97   4.144   5.600  15.767 -0.6639  0.1492  1.5141
    1DOPE   C38   98   4.346   5.546  15.687 -0.2775 -0.8994 -0.0696
    1DOPE   H8X   99   4.301   5.471  15.619  0.3795 -1.8947  0.5768
    1DOPE   H8Y  100   4.435   5.500  15.734 -0.4599 -3.3908 -1.9464
    1DOPE   C39  101   4.388   5.668  15.607  0.3737  0.0171 -0.1614
    1DOPE   H9X  102   4.456   5.741  15.655 -1.2614  1.0213  0.7104
    1DOPE  C310  103   4.331   5.693  15.488 -0.6858  0.6947 -0.0364
    1DOPE  H10X  104   4.357   5.785  15.432  0.8034 -1.5081 -3.2738
    1DOPE  C311  105   4.217   5.615  15.426  0.3307  0.8527  0.0420
    1DOPE  H11X  106   4.243   5.508  15.416  3.0115  1.3994  0.4237
    1DOPE  H11Y  107   4.126   5.633  15.487  0.6097  0.0374  0.7070
    1DOPE  C312  108   4.185   5.662  15.280 -0.7381  0.3785  0.2644
    1DOPE  H12X  109   4.184   5.773  15.288 -1.3881  0.3035  1.4184
    1DOPE  H12Y  110   4.081   5.632  15.257  0.1872 -1.6020 -1.7948
    1DOPE  C313  111   4.281   5.621  15.165  0.0165 -0.1292 -0.3362
    1DOPE  H13X  112   4.372   5.684  15.178 -2.3391  3.1536  1.4005
    1DOPE  H13Y  113   4.303   5.513  15.182 -0.1319 -0.0210  0.6085
    1DOPE  C314  114   4.224   5.621  15.018  0.7418 -0.4151  0.3683
    1DOPE  H14X  115   4.166   5.714  15.000 -1.5077 -1.4531  1.7080
    1DOPE  H14Y  116   4.148   5.541  15.001  0.7614 -0.1458 -1.0410
    1DOPE  C315  117   4.331   5.597  14.919 -0.4959 -0.1703 -0.0905
    1DOPE  H15X  118   4.404   5.515  14.938 -0.3871  0.1443  0.9142
    1DOPE  H15Y  119   4.392   5.690  14.917  0.5549 -0.8069  0.9637
    1DOPE  C316  120   4.283   5.578  14.776  0.2965  0.6968 -0.2847
    1DOPE  H16X  121   4.228   5.663  14.730 -0.9739 -0.5335 -1.1255
    1DOPE  H16Y  122   4.212   5.495  14.762  0.8062  0.2137 -0.0419
    1DOPE  C317  123   4.398   5.554  14.681 -0.0215 -0.2840 -0.1970
    1DOPE  H17X  124   4.455   5.646  14.654  1.3689 -0.4926  1.8153
    1DOPE  H17Y  125   4.477   5.486  14.720  0.0572 -0.5817 -0.8610
    1DOPE  C318  126   4.347   5.511  14.540  0.0825 -0.3479  0.3044
    1DOPE  H18X  127   4.321   5.403  14.552  2.3943 -1.3341 -2.4503
    1DOPE  H18Y  128   4.252   5.563  14.516 -0.5123 -0.7190  1.7476
    1DOPE  H18Z  129   4.424   5.518  14.460 -0.1874  1.8009  0.1963
    2DOPE     N  130   4.656   5.489  17.189  0.0124  0.1241 -0.5461
    2DOPE   HN1  131   4.633   5.588  17.212  1.9048  0.0659  1.9922
    2DOPE   HN2  132   4.636   5.424  17.268 -0.7033  0.2234 -0.6400
    2DOPE   HN3  133   4.759   5.479  17.181  0.2253 -0.3605  1.9305
    2DOPE   C12  134   4.592   5.454  17.060  0.2790 -0.2918  0.4396
    2DOPE  H12A  135   4.613   5.348  17.032  1.0262 -0.4377  1.5024
    2DOPE  H12B  136   4.640   5.512  16.978 -1.1695 -1.5185 -1.3598
    2DOPE   C11  137   4.445   5.473  17.072 -0.5645  0.0166  0.6974
    2DOPE  H11A  138   4.397   5.488  16.974 -0.1313 -1.8403  0.1616
    2DOPE  H11B  139   4.436   5.571  17.122 -0.1321 -0.3827  1.5917
    2DOPE     P  140   4.239   5.388  17.196  0.1427  0.3501 -0.0487
    2DOPE   O13  141   4.216   5.526  17.244 -0.3833  0.3340  0.3683
    2DOPE   O14  142   4.223   5.282  17.292  0.1156 -0.3914 -0.4563
    2DOPE   O11  143   4.145   5.381  17.069  1.2136  0.1043  0.3926
    2DOPE   O12  144   4.394   5.368  17.151  0.6777 -0.6921 -0.6139
    2DOPE    C1  145   4.164   5.284  16.968  0.8230  0.1444  0.3670
    2DOPE    HA  146   4.168   5.184  17.015 -2.7855  0.1298  0.9004
    2DOPE    HB  147   4.254   5.293  16.902 -0.3751 -1.3034 -1.5825
    2DOPE    C2  148   4.030   5.284  16.886  1.0475  0.2144 -0.1363
    2DOPE    HS  149   4.049   5.225  16.793  0.8691  0.7513 -0.5129
    2DOPE   O21  150   3.975   5.412  16.860 -0.0980 -0.1253 -0.2560
    2DOPE   C21  151   4.037   5.498  16.782  0.7752 -0.4837 -0.3721
    2DOPE   O22  152   4.139   5.471  16.720  0.4195 -0.0398 -0.3537
    2DOPE   C22  153   3.945   5.622  16.765  0.4888 -0.4203  0.6477
    2DOPE   H2R  154   3.988   5.702  16.829  1.9164  1.2213 -2.1723
    2DOPE   H2S  155   3.849   5.600  16.816 -1.3515  2.1281 -1.4744
    2DOPE    C3  156   3.925   5.194  16.960  0.6286 -0.0217 -0.0273
    2DOPE    HX  157   3.903   5.245  17.057 -0.1734 -0.3212 -0.0479
    2DOPE    HY  158   3.973   5.101  16.996  2.7039  0.4063 -1.5047
    2DOPE   O31  159   3.809   5.172  16.883  0.0053  0.1802 -0.7889
    2DOPE   C31  160   3.693   5.174  16.943 -0.2408  0.1751  0.2037
    2DOPE   O32  161   3.670   5.214  17.059 -0.1210 -0.2594 -0.5262
    2DOPE   C32  162   3.585   5.136  16.840 -0.0924 -0.2193  0.1561
    2DOPE   H2X  163   3.634   5.093  16.750 -0.1216  1.0564 -0.4922
    2DOPE   H2Y  164   3.521   5.059  16.888  1.2612 -1.2264  0.3985
    2DOPE   C23  165   3.907   5.651  16.617  0.0557 -0.4087 -0.6489
    2DOPE   H3R  166   3.991   5.652  16.545 -0.3371  0.7163 -1.1080
    2DOPE   H3S  167   3.861   5.752  16.614 -2.5544 -1.4744  0.6985
    2DOPE   C24  168   3.787   5.581  16.559 -0.5283 -0.0052 -0.8177
    2DOPE   H4R  169   3.699   5.617  16.618 -0.6248 -1.2923 -0.1506
    2DOPE   H4S  170   3.806   5.475  16.586 -0.4984  0.6765  2.1480
    2DOPE   C25  171   3.744   5.597  16.418  0.1294  0.0648  0.4799
    2DOPE   H5R  172   3.646   5.551  16.394 -0.5903  2.2559 -1.0803
    2DOPE   H5S  173   3.813   5.536  16.356 -0.1122 -1.0631  1.2892
    2DOPE   C26  174   3.728   5.741  16.353  0.0722 -0.3546  0.6505
    2DOPE   H6R  175   3.819   5.801  16.373 -1.1177  1.5807  0.5674
    2DOPE   H6S  176   3.646   5.788  16.412  1.2496 -0.9221  2.8507
    2DOPE   C27  177   3.692   5.748  16.194 -0.3984  0.0024 -0.1039
    2DOPE   H7R  178   3.671   5.854  16.169 -0.6420  0.5135  2.0204
    2DOPE   H7S  179   3.595   5.695  16.176 -1.1868  0.4388  2.4141
    2DOPE   C28  180   3.800   5.706  16.090 -0.2262 -0.0448 -0.1839
    2DOPE   H8R  181   3.824   5.599  16.107 -0.9565 -0.3723 -1.1534
    2DOPE   H8S  182   3.892   5.768  16.101  1.1699 -1.8018 -1.3571
    2DOPE   C29  183   3.761   5.702  15.946 -0.1295 -0.4726  0.3731
    2DOPE   H9R  184   3.694   5.617  15.924 -0.4766 -0.4967  1.4709
    2DOPE  C210  185   3.794   5.783  15.845 -0.2469 -0.0610 -0.1299
    2DOPE  H10R  186   3.745   5.768  15.748 -0.6083 -1.2217  0.2072
    2DOPE  C211  187   3.878   5.908  15.867  0.3747 -0.3053  0.7868
    2DOPE  H11R  188   3.985   5.888  15.846  1.4224  3.3782  1.7647
    2DOPE  H11S  189   3.885   5.939  15.974 -0.8472 -0.9081  1.0612
    2DOPE  C212  190   3.827   6.044  15.804 -0.0522  0.6919 -0.1459
    2DOPE  H12R  191   3.889   6.128  15.840  0.2963  0.1844  0.4777
    2DOPE  H12S  192   3.720   6.062  15.827 -0.3422 -0.3617 -0.5738
    2DOPE  C213  193   3.825   6.041  15.653 -0.5523  0.1211  0.6155
    2DOPE  H13R  194   3.769   6.132  15.622 -1.1353 -0.4565 -0.0498
    2DOPE  H13S  195   3.764   5.954  15.621  3.2761 -3.8609  3.0610
    2DOPE  C214  196   3.971   6.036  15.600 -0.3800 -0.6397 -0.5844
    2DOPE  H14R  197   4.012   5.947  15.652 -0.1764  0.3511  1.0263
    2DOPE  H14S  198   4.017   6.122  15.653 -0.5894 -2.2024  2.3359
    2DOPE  C215  199   3.999   6.047  15.447  0.7504  0.3148 -0.2538
    2DOPE  H15R  200   3.948   5.963  15.396  0.7248  0.5861 -0.6798
    2DOPE  H15S  201   4.103   6.035  15.412  0.7920  0.6389 -0.2489
    2DOPE  C216  202   3.956   6.175  15.377  0.2309 -0.5547 -0.0300
    2DOPE  H16R  203   4.012   6.261  15.420 -3.6389  2.2394 -0.0902
    2DOPE  H16S  204   3.848   6.195  15.394  0.1044 -0.7662 -0.5619
    2DOPE  C217  205   3.996   6.161  15.231 -0.8262  0.0240 -0.6585
    2DOPE  H17R  206   4.104   6.137  15.225 -0.3737  1.1060  1.8693
    2DOPE  H17S  207   3.977   6.257  15.178 -0.6253  1.1302  1.1574
    2DOPE  C218  208   3.930   6.045  15.156  0.3888 -0.2380  0.3042
    2DOPE  H18R  209   3.971   5.952  15.201  1.3039  0.4834  0.9873
    2DOPE  H18S  210   3.948   6.054  15.046  0.8678 -1.2093  0.2898
    2DOPE  H18T  211   3.820   6.056  15.168  0.0498 -0.8356 -1.8534
    2DOPE   C33  212   3.500   5.262  16.812  0.5927  0.2677  0.4625
    2DOPE   H3X  213   3.560   5.333  16.751 -0.0910  1.1495  0.7920
    2DOPE   H3Y  214   3.459   5.310  16.904  3.0143  1.4019  1.0165
    2DOPE   C34  215   3.386   5.219  16.711 -0.3297 -0.5783  0.3739
    2DOPE   H4X  216   3.431   5.178  16.618 -1.1201 -2.0087  0.5985
    2DOPE   H4Y  217   3.325   5.136  16.753 -1.1560  0.5968  1.5659
    2DOPE   C35  218   3.281   5.324  16.684 -0.3043 -0.1234 -0.0780
    2DOPE   H5X  219   3.253   5.367  16.782 -0.5208 -0.3619 -0.0324
    2DOPE   H5Y  220   3.187   5.282  16.641 -1.8810  4.3985 -1.6723
    2DOPE   C36  221   3.330   5.442  16.595  0.3017  0.3431  0.6505
    2DOPE   H6X  222   3.352   5.388  16.500  0.2800  1.2383  0.1315
    2DOPE   H6Y  223   3.423   5.486  16.635  0.5582  0.4110 -0.0078
    2DOPE   C37  224   3.229   5.552  16.561 -0.0147 -0.0886  0.0272
    2DOPE   H7X  225   3.125   5.521  16.537 -0.7335 -0.2545  2.9211
    2DOPE   H7Y  226   3.220   5.600  16.661  2.6230 -0.5624  0.5659
    2DOPE   C38  227   3.281   5.656  16.451 -0.5183 -0.0395  0.9049
    2DOPE   H8X  228   3.304   5.594  16.361  1.9018  0.0664  1.3866
    2DOPE   H8Y  229   3.382   5.688  16.485 -0.3009  0.3117 -0.0458
    2DOPE   C39  230   3.203   5.777  16.410  0.2085 -0.5918 -0.2384
    2DOPE   H9X  231   3.095   5.762  16.396  0.0099  0.3063  0.2339
    2DOPE  C310  232   3.240   5.907  16.409 -0.7212 -0.6375  0.2589
    2DOPE  H10X  233   3.167   5.989  16.400 -1.1864 -1.2156 -1.4938
    2DOPE  C311  234   3.377   5.952  16.445 -0.3583 -0.7470  0.5779
    2DOPE  H11X  235   3.414   5.917  16.544  0.6382 -1.8208 -0.1500
    2DOPE  H11Y  236   3.456   5.919  16.374  0.0814  0.4157  0.5053
    2DOPE  C312  237   3.385   6.104  16.455  0.3861 -0.2091  0.3634
    2DOPE  H12X  238   3.333   6.137  16.548 -2.0547  1.3896 -1.4558
    2DOPE  H12Y  239   3.332   6.151  16.369  2.6521  0.3301 -0.8066
    2DOPE  C313  240   3.526   6.161  16.466 -0.5700  0.6505  0.2295
    2DOPE  H13X  241   3.572   6.126  16.561  0.5496  0.4840 -0.3602
    2DOPE  H13Y  242   3.588   6.132  16.379  0.7744 -0.6553  1.5786
    2DOPE  C314  243   3.526   6.316  16.468  0.5810  0.0438 -0.2760
    2DOPE  H14X  244   3.471   6.336  16.562 -0.1015 -0.3795 -0.5698
    2DOPE  H14Y  245   3.457   6.360  16.393 -0.0403  0.0028  0.2618
    2DOPE  C315  246   3.659   6.380  16.480 -0.6200  0.3306 -0.1661
    2DOPE  H15X  247   3.730   6.330  16.551  1.0949 -0.0473 -2.0379
    2DOPE  H15Y  248   3.629   6.481  16.514 -3.4213 -0.4861 -0.0382
    2DOPE  C316  249   3.744   6.391  16.349 -0.3536 -0.1928 -0.2410
    2DOPE  H16X  250   3.803   6.299  16.329 -0.7869 -0.1433 -1.9074
    2DOPE  H16Y  251   3.816   6.475  16.355 -0.2089 -0.2261 -1.2668
    2DOPE  C317  252   3.671   6.421  16.216  0.4766 -0.9963  0.0996
    2DOPE  H17X  253   3.608   6.331  16.197 -1.8894  0.3941  0.9123
    2DOPE  H17Y  254   3.598   6.501  16.239  0.1624 -1.3683  0.4215
    2DOPE  C318  255   3.772   6.448  16.105 -0.3427 -0.1933  0.9542
    2DOPE  H18X  256   3.704   6.464  16.018 -0.7574 -1.7070  0.9649
    2DOPE  H18Y  257   3.830   6.537  16.137  1.5160 -0.8374 -0.4859
    2DOPE  H18Z  258   3.834   6.357  16.102  0.1304  0.1253  1.0244
    3DOPE     N  259   1.959   5.783  16.902 -0.5050  0.9061 -0.3936
    3DOPE   HN1  260   1.899   5.757  16.822 -0.1757  2.5098 -1.2039
    3DOPE   HN2  261   2.031   5.847  16.864  2.1799 -2.2547 -1.1080
    3DOPE   HN3  262   2.016   5.697  16.920  0.2966  1.0788 -1.9793
    3DOPE   C12  263   1.877   5.827  17.016  0.0690 -0.5270 -0.3997
    3DOPE  H12A  264   1.813   5.913  16.985 -0.1856 -0.5689 -0.0061
    3DOPE  H12B  265   1.944   5.869  17.094  0.7574 -0.3460 -1.0812
    3DOPE   C11  266   1.797   5.720  17.091 -0.7639 -0.1221  0.1908
    3DOPE  H11A  267   1.739   5.758  17.178 -1.2418  1.7413 -0.8921
    3DOPE  H11B  268   1.873   5.655  17.140  0.1837 -0.0474 -1.1247
    3DOPE     P  269   1.568   5.672  16.970  0.2114 -0.2786 -0.1920
    3DOPE   O13  270   1.573   5.810  16.928  0.1522  0.7438  0.7546
    3DOPE   O14  271   1.481   5.640  17.088 -0.0127 -0.3210 -0.6016
    3DOPE   O11  272   1.526   5.586  16.848  0.3845 -0.2904  0.1224
    3DOPE   O12  273   1.719   5.636  17.010 -0.0152 -0.2496 -0.0211
    3DOPE    C1  274   1.570   5.453  16.822  0.6825  0.0617 -0.5166
    3DOPE    HA  275   1.492   5.403  16.761 -0.4433 -1.8243  2.2616
    3DOPE    HB  276   1.566   5.388  16.913 -0.6994 -1.2227 -1.4459
    3DOPE    C2  277   1.697   5.431  16.748 -0.4081 -0.1563  0.3663
    3DOPE    HS  278   1.772   5.468  16.821  0.0291 -1.1223  0.4171
    3DOPE   O21  279   1.688   5.498  16.619 -0.6011  0.4196 -0.0954
    3DOPE   C21  280   1.767   5.614  16.609  0.8453 -0.4896  0.9713
    3DOPE   O22  281   1.834   5.657  16.698 -0.2048  0.2267 -0.2435
    3DOPE   C22  282   1.763   5.672  16.470  0.2210  0.1183 -0.8428
    3DOPE   H2R  283   1.753   5.781  16.488 -0.6198 -0.3941  2.3513
    3DOPE   H2S  284   1.669   5.624  16.434 -2.2602  1.5390  3.0780
    3DOPE    C3  285   1.728   5.277  16.733 -0.4339  0.2577  0.2712
    3DOPE    HX  286   1.633   5.228  16.703 -0.3522  0.3248 -0.0979
    3DOPE    HY  287   1.737   5.252  16.841  3.1289  1.3941  0.3650
    3DOPE   O31  288   1.844   5.234  16.659 -0.0782  0.4252 -0.3961
    3DOPE   C31  289   1.959   5.287  16.702 -0.2364 -0.6592 -0.1413
    3DOPE   O32  290   1.976   5.354  16.803 -0.3473  0.1641  0.1191
    3DOPE   C32  291   2.073   5.247  16.610  0.3993 -0.1922  0.6668
    3DOPE   H2X  292   2.078   5.138  16.631  1.3641 -0.1066  0.9116
    3DOPE   H2Y  293   2.049   5.271  16.505  0.9286 -0.9809  0.3567
    3DOPE   C23  294   1.894   5.657  16.393 -0.3721 -0.0097 -0.3039
    3DOPE   H3R  295   1.929   5.553  16.403  0.3417  0.3398  1.1121
    3DOPE   H3S  296   1.973   5.714  16.447 -0.9203 -0.2031  0.7418
    3DOPE   C24  297   1.882   5.707  16.252 -0.4210  0.7341 -0.1652
    3DOPE   H4R  298   1.784   5.671  16.215  0.0564  0.9214 -1.6648
    3DOPE   H4S  299   1.952   5.648  16.190 -1.8189 -2.2458  0.9099
    3DOPE   C25  300   1.898   5.855  16.233  0.4342  0.2754  0.1475
    3DOPE   H5R  301   1.991   5.895  16.277  0.6848  1.2582 -1.2232
    3DOPE   H5S  302   1.820   5.918  16.280 -0.2439 -0.3297 -0.1267
    3DOPE   C26  303   1.916   5.895  16.086  0.0499 -0.2071 -0.4298
    3DOPE   H6R  304   1.818   5.885  16.036 -0.7110 -1.4266  1.2250
    3DOPE   H6S  305   1.986   5.818  16.046  1.7018  0.5196  0.9499
    3DOPE   C27  306   1.956   6.040  16.065  0.0874  0.3202 -0.1861
    3DOPE   H7R  307   2.039   6.058  16.137 -0.0553 -0.1342  0.0961
    3DOPE   H7S  308   1.866   6.101  16.087 -0.4735 -0.2517 -0.8656
    3DOPE   C28  309   1.999   6.084  15.925  1.0090 -0.1408 -0.5990
    3DOPE   H8R  310   1.944   6.017  15.857  1.4228 -0.9560 -0.1381
    3DOPE   H8S  311   2.109   6.072  15.922  0.8338 -2.7228  0.6789
    3DOPE   C29  312   1.955   6.229  15.899  0.3055  0.0968  0.2957
    3DOPE   H9R  313   2.021   6.297  15.954  0.4452 -0.2942  0.6177
    3DOPE  C210  314   1.845   6.264  15.819 -0.1356 -0.1175 -0.7185
    3DOPE  H10R  315   1.823   6.371  15.807  0.9556 -0.0140 -2.0644
    3DOPE  C211  316   1.737   6.180  15.758 -0.0772 -0.5849 -0.4813
    3DOPE  H11R  317   1.649   6.203  15.822  0.6971 -0.1238  0.4468
    3DOPE  H11S  318   1.757   6.071  15.764  0.7466 -0.3969  0.4232
    3DOPE  C212  319   1.712   6.209  15.612 -0.3431  0.3778  0.1490
    3DOPE  H12R  320   1.731   6.120  15.547  0.3684  2.1898 -2.2778
    3DOPE  H12S  321   1.785   6.285  15.577  0.8847 -0.8575 -0.1220
    3DOPE  C213  322   1.566   6.247  15.582 -0.0993  1.0126  0.0782
    3DOPE  H13R  323   1.493   6.183  15.636  0.0414  0.1342 -0.7524
    3DOPE  H13S  324   1.550   6.232  15.473 -0.3060  0.6948  0.1503
    3DOPE  C214  325   1.530   6.389  15.621  0.0747 -0.3614  0.0227
    3DOPE  H14R  326   1.606   6.460  15.579 -0.9690  0.8613  0.1308
    3DOPE  H14S  327   1.540   6.401  15.731 -1.9942 -0.8087  0.2860
    3DOPE  C215  328   1.393   6.432  15.579  0.3821 -0.5332  0.0648
    3DOPE  H15R  329   1.313   6.366  15.619 -1.3976  0.8802 -0.9731
    3DOPE  H15S  330   1.382   6.434  15.468  1.0128  1.4416 -0.0090
    3DOPE  C216  331   1.350   6.568  15.637  0.3180 -0.0239 -0.3008
    3DOPE  H16R  332   1.419   6.646  15.596 -0.9161  0.5345 -1.3965
    3DOPE  H16S  333   1.366   6.564  15.746  0.6914  2.5458 -0.1848
    3DOPE  C217  334   1.214   6.606  15.599 -0.2386  0.0399  0.6111
    3DOPE  H17R  335   1.153   6.517  15.628 -1.2929 -0.5437 -2.8570
    3DOPE  H17S  336   1.197   6.614  15.489 -1.9281  0.7579  0.8897
    3DOPE  C218  337   1.155   6.732  15.660  0.7261  0.2721  0.1341
    3DOPE  H18R  338   1.047   6.737  15.633  1.1284  1.1558 -1.3957
    3DOPE  H18S  339   1.203   6.818  15.609 -0.3750  1.1533  0.5602
    3DOPE  H18T  340   1.178   6.748  15.767  1.8133  4.2015 -0.5326
    3DOPE   C33  341   2.218   5.306  16.654  0.1555 -0.5155 -0.0234
    3DOPE   H3X  342   2.298   5.240  16.615  1.6710  0.1534  1.7947
    3DOPE   H3Y  343   2.230   5.281  16.762 -0.7459 -0.7056  0.0426
    3DOPE   C34  344   2.244   5.455  16.632  0.4983  0.9867  1.1731
    3DOPE   H4X  345   2.145   5.506  16.639 -1.3668 -1.9910 -1.0045
    3DOPE   H4Y  346   2.308   5.506  16.707  0.7150  0.7619  1.1402
    3DOPE   C35  347   2.299   5.472  16.488  0.0584  0.1163  0.9014
    3DOPE   H5X  348   2.224   5.437  16.414  0.6802 -0.8169  0.6946
    3DOPE   H5Y  349   2.393   5.413  16.479  1.1602  1.9296 -0.3007
    3DOPE   C36  350   2.344   5.615  16.450  0.4656 -0.4510  0.4423
    3DOPE   H6X  351   2.420   5.651  16.523 -1.0546  2.4273  0.7252
    3DOPE   H6Y  352   2.259   5.685  16.461  1.5236  1.1850 -1.1671
    3DOPE   C37  353   2.392   5.627  16.301 -0.2031 -0.2020  0.2862
    3DOPE   H7X  354   2.463   5.544  16.282  0.4929  0.9566 -2.6874
    3DOPE   H7Y  355   2.295   5.614  16.248 -0.5936  1.5769  0.5077
    3DOPE   C38  356   2.477   5.752  16.268 -0.4611 -0.7590  0.0535
    3DOPE   H8X  357   2.551   5.772  16.348 -0.5171  0.6671 -0.2170
    3DOPE   H8Y  358   2.407   5.838  16.257  1.2124  0.5401 -1.0195
    3DOPE   C39  359   2.539   5.736  16.128 -0.7683  0.0567 -0.0200
    3DOPE   H9X  360   2.582   5.638  16.101 -1.9329 -0.3748 -0.3898
    3DOPE  C310  361   2.541   5.833  16.034 -0.3076  0.2932  0.3102
    3DOPE  H10X  362   2.586   5.808  15.937  0.1725 -1.4004  0.9256
    3DOPE  C311  363   2.496   5.975  16.044 -0.3552 -0.6641 -0.1852
    3DOPE  H11X  364   2.407   5.977  15.977 -0.0263  0.1509 -0.6161
    3DOPE  H11Y  365   2.471   6.004  16.148 -1.7312 -0.7832 -0.4679
    3DOPE  C312  366   2.608   6.066  15.994  0.0467  0.4112  0.7700
    3DOPE  H12X  367   2.657   6.045  15.897  0.0151 -0.2941  0.9047
    3DOPE  H12Y  368   2.682   6.052  16.075  0.5522 -1.4981  0.0285
    3DOPE  C313  369   2.563   6.214  16.001 -0.3735 -0.3434 -0.2740
    3DOPE  H13X  370   2.488   6.224  15.920  1.0854 -1.4791 -1.8376
    3DOPE  H13Y  371   2.502   6.226  16.094  0.2361  2.0213 -0.1172
    3DOPE  C314  372   2.671   6.318  15.976  0.1753  0.5254 -0.6253
    3DOPE  H14X  373   2.680   6.303  15.866  1.9857 -2.1172 -0.2186
    3DOPE  H14Y  374   2.767   6.290  16.024  0.1595  1.3997 -0.0638
    3DOPE  C315  375   2.650   6.459  16.018 -0.0719 -0.4492 -0.0643
    3DOPE  H15X  376   2.733   6.520  15.976 -1.2165  0.6222 -0.8008
    3DOPE  H15Y  377   2.661   6.470  16.128 -2.0560  0.2331  0.1011
    3DOPE  C316  378   2.514   6.526  15.974 -0.9573  0.3012 -0.6853
    3DOPE  H16X  379   2.437   6.448  15.955  0.5169 -1.0791 -1.1926
    3DOPE  H16Y  380   2.524   6.581  15.878  1.1295 -0.0051 -0.6879
    3DOPE  C317  381   2.468   6.635  16.075 -0.2608 -1.0372 -0.1747
    3DOPE  H17X  382   2.390   6.694  16.021  0.9610 -0.4753 -1.3855
    3DOPE  H17Y  383   2.428   6.589  16.168 -3.1359  0.8361 -0.3249
    3DOPE  C318  384   2.582   6.741  16.110  0.1414  0.4368 -0.9689
    3DOPE  H18X  385   2.621   6.780  16.013 -1.8375  0.4256 -1.8135
    3DOPE  H18Y  386   2.542   6.827  16.168 -2.1287 -1.1725 -0.0311
    3DOPE  H18Z  387   2.661   6.686  16.165 -0.1869  1.3337  0.4364
    4DOPE     N  388   2.817   3.150  17.018 -0.5640  0.1118  0.5399
    4DOPE   HN1  389   2.810   3.046  17.022  0.3931 -0.0413 -1.0905
    4DOPE   HN2  390   2.775   3.185  17.107 -0.0894  1.2546  0.3313
    4DOPE   HN3  391   2.750   3.185  16.948  1.6041  4.0959  0.1848
    4DOPE   C12  392   2.961   3.193  17.014  0.1866  0.3785 -0.6237
    4DOPE  H12A  393   3.006   3.145  17.103 -2.5173  1.1890  1.3105
    4DOPE  H12B  394   2.958   3.300  17.043  0.1712 -0.0586  1.0782
    4DOPE   C11  395   3.038   3.172  16.885  0.1089 -0.0055  0.6395
    4DOPE  H11A  396   3.144   3.201  16.898  0.8197 -0.6230 -2.7920
    4DOPE  H11B  397   2.998   3.229  16.798 -2.1588 -1.5611  0.5708
    4DOPE     P  398   3.145   2.935  16.862 -0.1307  0.2962  0.1551
    4DOPE   O13  399   3.188   2.919  17.003  0.2594 -0.4579 -0.3636
    4DOPE   O14  400   3.247   2.983  16.762  0.1818 -0.6240  0.0946
    4DOPE   O11  401   3.095   2.793  16.812 -0.3153  0.2996 -0.1975
    4DOPE   O12  402   3.024   3.031  16.862  0.1874 -0.3838  0.0438
    4DOPE    C1  403   3.038   2.759  16.689  0.1154 -1.1731  0.2979
    4DOPE    HA  404   3.031   2.851  16.628  1.2587 -0.4836  1.1553
    4DOPE    HB  405   2.937   2.720  16.712 -2.0085  2.6112 -1.7063
    4DOPE    C2  406   3.130   2.660  16.611 -0.1170  0.5689  0.3206
    4DOPE    HS  407   3.153   2.573  16.676  1.0925 -1.3310 -2.4590
    4DOPE   O21  408   3.251   2.728  16.585  0.2726 -0.2189  0.4439
    4DOPE   C21  409   3.354   2.657  16.544  0.0351  0.8087 -0.5565
    4DOPE   O22  410   3.354   2.536  16.534 -0.7170 -0.0061  0.2646
    4DOPE   C22  411   3.465   2.746  16.497 -0.3935 -0.4662 -0.2996
    4DOPE   H2R  412   3.563   2.693  16.499  0.2528  0.7224  1.6923
    4DOPE   H2S  413   3.464   2.830  16.570 -0.2447 -1.1002  0.4357
    4DOPE    C3  414   3.065   2.607  16.486  0.5774 -0.0599 -0.2707
    4DOPE    HX  415   3.133   2.547  16.421  1.1275  1.4158 -1.1338
    4DOPE    HY  416   3.041   2.688  16.414  0.5539 -1.2554 -1.6533
    4DOPE   O31  417   2.939   2.539  16.507  0.0868  0.0002 -0.2463
    4DOPE   C31  418   2.940   2.413  16.539 -0.2866 -1.0719  0.2376
    4DOPE   O32  419   3.034   2.347  16.585  0.6753  0.2725 -0.1894
    4DOPE   C32  420   2.797   2.368  16.546  0.2149 -0.5425 -0.5857
    4DOPE   H2X  421   2.799   2.261  16.574 -1.3457 -0.2718  0.7213
    4DOPE   H2Y  422   2.747   2.428  16.625  0.1825  2.1408 -2.4813
    4DOPE   C23  423   3.446   2.791  16.346  0.8965  0.5432  0.5980
    4DOPE   H3R  424   3.364   2.866  16.340 -0.5535 -1.0407 -0.5666
    4DOPE   H3S  425   3.421   2.703  16.284  0.5005 -1.3564  3.2862
    4DOPE   C24  426   3.577   2.841  16.285 -0.7118  0.0698  0.2048
    4DOPE   H4R  427   3.648   2.757  16.302 -0.1198  0.4814 -0.2005
    4DOPE   H4S  428   3.624   2.925  16.342  0.8454 -1.2093  0.8895
    4DOPE   C25  429   3.564   2.856  16.135 -0.7790 -0.2674  0.4905
    4DOPE   H5R  430   3.523   2.958  16.121 -0.6963 -0.0004  2.0132
    4DOPE   H5S  431   3.488   2.785  16.095 -1.9676  1.3155 -0.1570
    4DOPE   C26  432   3.702   2.837  16.062  0.0445  0.1830  0.5084
    4DOPE   H6R  433   3.727   2.733  16.092 -1.3335 -0.6538 -1.0900
    4DOPE   H6S  434   3.782   2.907  16.094  0.3398 -0.7095  1.8060
    4DOPE   C27  435   3.681   2.850  15.911  1.0303 -0.3804 -0.1968
    4DOPE   H7R  436   3.676   2.958  15.885 -2.0352 -0.1471  0.9400
    4DOPE   H7S  437   3.592   2.793  15.877 -0.8242  0.8757  2.2062
    4DOPE   C28  438   3.803   2.791  15.838 -0.3033 -0.1117  0.2720
    4DOPE   H8R  439   3.882   2.864  15.867 -0.3174 -0.5956  1.5917
    4DOPE   H8S  440   3.809   2.799  15.727  2.1841  0.1087  0.3470
    4DOPE   C29  441   3.843   2.649  15.882 -0.4554  0.3323  0.6633
    4DOPE   H9R  442   3.902   2.647  15.975 -1.0258 -0.6390  1.0171
    4DOPE  C210  443   3.805   2.529  15.830 -0.1313 -0.0156  0.0778
    4DOPE  H10R  444   3.828   2.434  15.881  2.0730 -0.4634 -1.6096
    4DOPE  C211  445   3.718   2.506  15.710  0.0078  0.6138 -0.6811
    4DOPE  H11R  446   3.767   2.439  15.637 -1.3925 -1.7504  0.4057
    4DOPE  H11S  447   3.691   2.601  15.659  0.0616 -1.2132 -4.4377
    4DOPE  C212  448   3.581   2.436  15.745  0.2695  0.7106  0.3846
    4DOPE  H12R  449   3.520   2.502  15.810 -1.1762 -0.9765  0.8118
    4DOPE  H12S  450   3.601   2.349  15.812  0.7147  1.6596  1.5055
    4DOPE  C213  451   3.496   2.387  15.623  0.2809 -0.2094  0.7653
    4DOPE  H13R  452   3.569   2.317  15.577  2.1481  0.6430  2.3228
    4DOPE  H13S  453   3.469   2.466  15.549 -2.2327 -2.1828 -0.6092
    4DOPE  C214  454   3.370   2.310  15.666  0.1091  0.0004  0.1832
    4DOPE  H14R  455   3.303   2.357  15.741  0.8846 -0.2362  1.0408
    4DOPE  H14S  456   3.412   2.220  15.715  0.2147  0.2369  0.5297
    4DOPE  C215  457   3.278   2.260  15.551  0.1191  0.3881 -0.2880
    4DOPE  H15R  458   3.345   2.261  15.462  2.0328 -1.2709  1.0298
    4DOPE  H15S  459   3.196   2.333  15.538  0.0763 -0.1362 -4.1490
    4DOPE  C216  460   3.216   2.124  15.587  0.1088  0.0090  0.6190
    4DOPE  H16R  461   3.298   2.048  15.590  2.3649  2.2789 -0.2873
    4DOPE  H16S  462   3.164   2.098  15.493  2.5145  0.4557 -0.9454
    4DOPE  C217  463   3.112   2.115  15.703  0.3111 -0.5553 -0.2575
    4DOPE  H17R  464   3.025   2.181  15.682  0.7949  0.4258  0.7638
    4DOPE  H17S  465   3.165   2.150  15.794  0.8997 -0.7470 -0.5211
    4DOPE  C218  466   3.060   1.968  15.727 -0.1407  0.0154 -0.6626
    4DOPE  H18R  467   2.982   1.963  15.806 -0.5208 -3.2504 -1.0942
    4DOPE  H18S  468   3.144   1.902  15.759  0.2437 -0.7669 -3.0896
    4DOPE  H18T  469   3.024   1.918  15.635  0.3946  0.8566 -1.3381
    4DOPE   C33  470   2.715   2.386  16.414  0.1470 -0.1112  0.0369
    4DOPE   H3X  471   2.783   2.355  16.332 -1.7533 -2.2754 -0.8306
    4DOPE   H3Y  472   2.679   2.491  16.409  3.7493  1.2344 -0.3131
    4DOPE   C34  473   2.596   2.291  16.403  0.8839  0.6576  0.0164
    4DOPE   H4X  474   2.634   2.187  16.403  0.6947  0.5733 -1.0778
    4DOPE   H4Y  475   2.526   2.307  16.487 -0.4056 -1.0585 -0.6902
    4DOPE   C35  476   2.525   2.305  16.263  0.2532 -0.4620  0.2291
    4DOPE   H5X  477   2.599   2.290  16.181  0.3887  2.6902 -0.3226
    4DOPE   H5Y  478   2.499   2.412  16.253 -2.5893 -1.0070  0.8617
    4DOPE   C36  479   2.398   2.225  16.248  0.4681  0.3147 -0.1844
    4DOPE   H6X  480   2.337   2.251  16.159 -3.1948  0.4624  2.1661
    4DOPE   H6Y  481   2.334   2.254  16.334  0.7825  1.6597 -0.3729
    4DOPE   C37  482   2.430   2.073  16.237 -0.4227 -0.8722 -0.5283
    4DOPE   H7X  483   2.501   2.050  16.154  0.8054  0.1365  0.2006
    4DOPE   H7Y  484   2.462   2.023  16.330  0.2941 -5.0889 -2.8231
    4DOPE   C38  485   2.308   1.992  16.189 -0.2704 -0.1093 -0.2910
    4DOPE   H8X  486   2.344   1.890  16.164  1.2869  0.1069  0.8722
    4DOPE   H8Y  487   2.254   2.038  16.104 -1.3900 -0.6126  0.1277
    4DOPE   C39  488   2.206   1.967  16.293 -0.1717 -0.5851 -0.0009
    4DOPE   H9X  489   2.237   1.889  16.363 -0.8993 -3.2666 -2.4856
    4DOPE  C310  490   2.080   2.026  16.307 -0.4768  1.1248 -0.1562
    4DOPE  H10X  491   2.026   1.996  16.398  0.7945 -0.5660  0.0892
    4DOPE  C311  492   2.025   2.124  16.206  1.2783 -0.4540 -0.2903
    4DOPE  H11X  493   1.991   2.211  16.265  2.0291 -0.0814 -0.4030
    4DOPE  H11Y  494   2.100   2.161  16.133 -0.2426  0.7270 -1.3235
    4DOPE  C312  495   1.923   2.061  16.114 -0.1662  0.2399  0.4753
    4DOPE  H12X  496   1.841   2.014  16.172 -0.0331 -1.9819 -1.0088
    4DOPE  H12Y  497   1.987   1.981  16.071  2.4510  1.3947  1.9700
    4DOPE  C313  498   1.866   2.158  16.004 -0.3456  0.7111 -0.3557
    4DOPE  H13X  499   1.783   2.111  15.947 -0.3158  1.2464 -0.8544
    4DOPE  H13Y  500   1.833   2.253  16.051 -0.0856  1.8622 -2.3687
    4DOPE  C314  501   1.980   2.216  15.906  0.2519  0.0066  0.3928
    4DOPE  H14X  502   2.053   2.135  15.886  0.9729  0.9339 -0.9698
    4DOPE  H14Y  503   2.042   2.281  15.971  2.0018 -2.4448  1.3254
    4DOPE  C315  504   1.934   2.301  15.781 -0.0104 -0.0244 -0.7889
    4DOPE  H15X  505   1.888   2.396  15.815 -0.1360 -0.1537 -0.5919
    4DOPE  H15Y  506   1.855   2.242  15.730 -0.3023 -1.2689  0.9986
    4DOPE  C316  507   2.037   2.319  15.673  0.0005  0.0186 -0.1004
    4DOPE  H16X  508   2.125   2.363  15.724 -1.0310 -1.2171  3.0287
    4DOPE  H16Y  509   1.992   2.387  15.598  0.7603  2.3063  1.4079
    4DOPE  C317  510   2.064   2.195  15.588  0.2114  0.0141  0.2811
    4DOPE  H17X  511   2.106   2.115  15.651  0.0308 -0.1065  0.2491
    4DOPE  H17Y  512   1.977   2.143  15.541  0.5355 -2.0275  1.8185
    4DOPE  C318  513   2.176   2.218  15.473 -0.4009 -0.1443 -0.1123
    4DOPE  H18X  514   2.221   2.123  15.437 -2.6263 -1.0312 -0.7419
    4DOPE  H18Y  515   2.128   2.259  15.382 -0.6597 -1.1178 -0.4310
    4DOPE  H18Z  516   2.252   2.288  15.513  0.6562 -1.2046 -0.2306
    5DOPE     N  517   8.213   5.594  16.680  0.2962 -0.0180 -0.0112
    5DOPE   HN1  518   8.185   5.530  16.602  0.4580  2.4250 -2.2053
    5DOPE   HN2  519   8.247   5.525  16.750  0.0039 -1.7436 -1.4909
    5DOPE   HN3  520   8.123   5.626  16.720 -1.1706  0.5017 -3.3579
    5DOPE   C12  521   8.309   5.703  16.651 -0.0960  0.1113  0.3832
    5DOPE  H12A  522   8.325   5.764  16.742 -1.5628  0.4201  0.4511
    5DOPE  H12B  523   8.274   5.776  16.575  1.0475  1.1339  0.8074
    5DOPE   C11  524   8.444   5.643  16.592 -0.1820  0.2972 -0.0989
    5DOPE  H11A  525   8.511   5.729  16.568 -1.0402  1.4585  1.4782
    5DOPE  H11B  526   8.433   5.581  16.501 -1.8628  2.0780 -1.1825
    5DOPE     P  527   8.575   5.597  16.819 -0.5304 -0.3313 -0.1801
    5DOPE   O13  528   8.542   5.510  16.931 -0.1613  0.4778 -0.1900
    5DOPE   O14  529   8.576   5.740  16.843  0.1550 -0.0165  0.1904
    5DOPE   O11  530   8.719   5.567  16.765 -0.3159 -0.2407  0.2916
    5DOPE   O12  531   8.491   5.560  16.696  0.5152 -0.3874  1.3052
    5DOPE    C1  532   8.754   5.433  16.734 -0.0306  0.4145 -1.0531
    5DOPE    HA  533   8.671   5.360  16.741  0.6177 -0.1672  2.7790
    5DOPE    HB  534   8.821   5.404  16.818 -2.6108 -0.7912  0.7167
    5DOPE    C2  535   8.827   5.423  16.596 -0.7499 -0.3735  0.4196
    5DOPE    HS  536   8.843   5.317  16.564  1.6507  0.1909 -0.4678
    5DOPE   O21  537   8.959   5.491  16.590 -0.0590  0.1029 -0.3857
    5DOPE   C21  538   9.056   5.425  16.649 -0.6556  0.7806 -0.0577
    5DOPE   O22  539   9.057   5.307  16.690  0.6428 -0.5187 -0.3581
    5DOPE   C22  540   9.175   5.521  16.660 -0.3565 -0.1450  0.2002
    5DOPE   H2R  541   9.258   5.455  16.693  0.0329  0.3138  0.1504
    5DOPE   H2S  542   9.162   5.592  16.744 -2.3814 -0.6921  0.3983
    5DOPE    C3  543   8.741   5.479  16.476  0.5920 -0.8576 -0.1577
    5DOPE    HX  544   8.697   5.578  16.501  0.8198 -0.4879 -1.2060
    5DOPE    HY  545   8.658   5.410  16.447 -0.0994  0.3316 -1.1039
    5DOPE   O31  546   8.816   5.484  16.351 -0.3686 -0.2833  0.6014
    5DOPE   C31  547   8.870   5.591  16.306 -0.2915  0.4608  0.2506
    5DOPE   O32  548   8.866   5.699  16.366  0.1970 -0.2732  0.1818
    5DOPE   C32  549   8.914   5.573  16.160  0.7428 -0.2491  0.1502
    5DOPE   H2X  550   8.998   5.502  16.147 -0.5921 -1.9301  0.4235
    5DOPE   H2Y  551   8.826   5.525  16.113 -0.0102  0.6622  0.5824
    5DOPE   C23  552   9.202   5.591  16.528 -0.4402 -0.4235  0.3085
    5DOPE   H3R  553   9.293   5.655  16.535 -0.4824 -0.1103 -1.5186
    5DOPE   H3S  554   9.109   5.648  16.507 -0.3854  0.0011  1.1788
    5DOPE   C24  555   9.233   5.491  16.412 -0.2094 -0.0546  0.0096
    5DOPE   H4R  556   9.133   5.485  16.365 -0.1750  1.4589 -0.3021
    5DOPE   H4S  557   9.258   5.392  16.456 -0.5657  0.2334  0.8877
    5DOPE   C25  558   9.352   5.529  16.322  0.2662  0.0534  0.0776
    5DOPE   H5R  559   9.367   5.438  16.259 -2.1593 -0.6095  0.3791
    5DOPE   H5S  560   9.448   5.559  16.369  0.6674  1.3189 -1.4822
    5DOPE   C26  561   9.307   5.642  16.228  0.3423  0.4819 -0.2556
    5DOPE   H6R  562   9.272   5.728  16.289 -0.9269  0.4903 -0.9660
    5DOPE   H6S  563   9.225   5.609  16.161  1.5701  0.1815 -1.6669
    5DOPE   C27  564   9.430   5.698  16.146  0.3713 -0.0713  0.2060
    5DOPE   H7R  565   9.459   5.609  16.086 -0.3393  0.2645 -0.6745
    5DOPE   H7S  566   9.509   5.743  16.210 -2.6119  3.1323  1.9642
    5DOPE   C28  567   9.385   5.802  16.045  0.4710 -0.0491 -0.1840
    5DOPE   H8R  568   9.357   5.885  16.113  2.8620  1.5465 -1.0065
    5DOPE   H8S  569   9.287   5.773  16.002  0.4812 -0.4891  0.0817
    5DOPE   C29  570   9.475   5.861  15.940 -1.1430  0.1357 -0.0252
    5DOPE   H9R  571   9.555   5.923  15.983 -1.3043  0.2734  0.0729
    5DOPE  C210  572   9.463   5.844  15.808 -0.0700  0.1412  0.1796
    5DOPE  H10R  573   9.548   5.885  15.751  0.6747 -1.7267 -0.1326
    5DOPE  C211  574   9.371   5.748  15.736 -0.5815 -0.3960  0.2463
    5DOPE  H11R  575   9.372   5.774  15.628  0.5232  1.5871  0.6884
    5DOPE  H11S  576   9.266   5.770  15.764 -1.1224 -1.3837 -0.8708
    5DOPE  C212  577   9.402   5.600  15.746  0.2978 -0.8120  0.5096
    5DOPE  H12R  578   9.337   5.545  15.675 -1.4508 -1.2822  2.3682
    5DOPE  H12S  579   9.379   5.554  15.845  1.0029 -0.2924  0.9182
    5DOPE  C213  580   9.546   5.561  15.715  0.0524 -0.3596  0.9503
    5DOPE  H13R  581   9.566   5.452  15.712 -2.2723 -0.8324  0.1749
    5DOPE  H13S  582   9.615   5.620  15.778 -0.4359  0.5240  0.6762
    5DOPE  C214  583   9.580   5.605  15.568 -0.7758  0.1090 -0.4553
    5DOPE  H14R  584   9.571   5.716  15.563  0.0787  0.3958  2.4927
    5DOPE  H14S  585   9.508   5.568  15.492 -0.4668 -2.0696  0.2428
    5DOPE  C215  586   9.719   5.570  15.527 -0.7288  0.0801 -0.3292
    5DOPE  H15R  587   9.782   5.592  15.616 -0.3441 -2.0781 -0.0149
    5DOPE  H15S  588   9.773   5.634  15.454  2.0014 -0.3699  1.1436
    5DOPE  C216  589   9.733   5.425  15.473  0.0133  0.1394 -0.8915
    5DOPE  H16R  590   9.688   5.430  15.372  0.6366  1.2036 -1.1286
    5DOPE  H16S  591   9.683   5.348  15.536 -0.9106  0.1499 -1.5900
    5DOPE  C217  592   9.881   5.391  15.432  0.0458 -0.1202 -0.0936
    5DOPE  H17R  593   9.934   5.484  15.402  2.1507  0.0670  3.5729
    5DOPE  H17S  594   9.891   5.320  15.348  1.2371  0.5700 -0.5576
    5DOPE  C218  595   9.958   5.327  15.548  0.4564 -0.1954  0.4284
    5DOPE  H18R  596   9.922   5.227  15.581 -0.7843  0.3170  0.7016
    5DOPE  H18S  597   9.936   5.394  15.633  0.8576  1.2048 -0.5356
    5DOPE  H18T  598  10.066   5.319  15.524  0.6243  0.4906  0.9190
    5DOPE   C33  599   8.941   5.714  16.101  0.2461 -0.8635 -0.0733
    5DOPE   H3X  600   9.022   5.770  16.154 -1.5276  0.4578  1.4036
    5DOPE   H3Y  601   8.846   5.772  16.113  1.6000  1.2854  1.0041
    5DOPE   C34  602   8.984   5.700  15.953  0.1961 -0.3866 -0.2662
    5DOPE   H4X  603   9.018   5.801  15.923  0.0218 -0.7381 -1.7616
    5DOPE   H4Y  604   9.078   5.647  15.927  0.6797  1.0670 -1.6283
    5DOPE   C35  605   8.870   5.650  15.858  0.0579  0.1720  0.6972
    5DOPE   H5X  606   8.779   5.713  15.869  1.1350  1.9982 -0.3350
    5DOPE   H5Y  607   8.841   5.543  15.867 -0.9900  0.5036  1.4287
    5DOPE   C36  608   8.895   5.688  15.712 -0.2629  0.1717 -0.5702
    5DOPE   H6X  609   8.992   5.637  15.693 -0.3567 -1.6032  2.8019
    5DOPE   H6Y  610   8.903   5.799  15.714 -1.4028  0.2932  2.3916
    5DOPE   C37  611   8.783   5.642  15.614 -0.2934  0.1790  0.5140
    5DOPE   H7X  612   8.762   5.535  15.638 -0.9409  0.6423  2.1530
    5DOPE   H7Y  613   8.691   5.696  15.645  0.0511  2.1627 -1.6586
    5DOPE   C38  614   8.819   5.655  15.469 -0.1660  0.2820  0.9300
    5DOPE   H8X  615   8.741   5.601  15.411  1.6682  0.9357 -2.4442
    5DOPE   H8Y  616   8.914   5.600  15.454 -0.3223  0.1934  0.2338
    5DOPE   C39  617   8.839   5.793  15.411 -0.1692  0.5581 -0.9439
    5DOPE   H9X  618   8.752   5.855  15.436 -0.5943 -0.2003 -0.4678
    5DOPE  C310  619   8.943   5.844  15.339  0.2730  0.3233 -0.2630
    5DOPE  H10X  620   8.938   5.949  15.309 -0.2267 -0.4880 -3.4952
    5DOPE  C311  621   9.062   5.764  15.288  0.2035 -0.3676  0.1922
    5DOPE  H11X  622   9.055   5.655  15.306 -0.5206 -0.6787 -1.7511
    5DOPE  H11Y  623   9.089   5.787  15.183 -0.3839 -1.4042 -0.1986
    5DOPE  C312  624   9.182   5.830  15.368 -0.3815  0.9059 -0.7219
    5DOPE  H12X  625   9.178   5.822  15.479  0.4486  3.2942 -0.4532
    5DOPE  H12Y  626   9.193   5.939  15.348  0.6802  1.3178  1.7647
    5DOPE  C313  627   9.323   5.774  15.332  0.2531 -0.7805  0.0113
    5DOPE  H13X  628   9.386   5.819  15.412 -0.9928  0.7756  0.1652
    5DOPE  H13Y  629   9.314   5.664  15.344  0.7376 -0.9176 -0.8128
    5DOPE  C314  630   9.379   5.813  15.191 -0.7790 -0.3348 -0.4375
    5DOPE  H14X  631   9.370   5.923  15.179 -0.7004 -0.1184  1.3167
    5DOPE  H14Y  632   9.317   5.764  15.113  0.6239 -0.3968 -1.5622
    5DOPE  C315  633   9.522   5.763  15.178 -0.4140 -0.0383 -0.3891
    5DOPE  H15X  634   9.527   5.655  15.206 -1.4747  0.3623  1.4479
    5DOPE  H15Y  635   9.582   5.828  15.245 -0.5565 -1.5850  1.3042
    5DOPE  C316  636   9.577   5.769  15.031 -0.4961  0.5545 -0.1874
    5DOPE  H16X  637   9.513   5.706  14.966  0.2250  1.3079 -1.6763
    5DOPE  H16Y  638   9.680   5.730  15.015 -1.1094 -1.1046 -0.3027
    5DOPE  C317  639   9.552   5.909  14.975 -0.0473 -0.0028  0.7071
    5DOPE  H17X  640   9.444   5.926  14.953  0.2596  3.4330  1.3054
    5DOPE  H17Y  641   9.570   5.976  15.061 -1.9245 -2.0313  2.8133
    5DOPE  C318  642   9.627   5.944  14.841  0.3482 -0.0757 -0.1708
    5DOPE  H18X  643   9.613   6.051  14.817 -2.6384  0.1695  2.1612
    5DOPE  H18Y  644   9.736   5.928  14.857  0.6642  1.4081 -0.7316
    5DOPE  H18Z  645   9.588   5.882  14.757 -2.7967  1.3224  0.1191
    6DOPE     N  646   1.321   5.575  16.673  0.3144  0.0192  0.1218
    6DOPE   HN1  647   1.321   5.498  16.603 -0.5392 -0.1782  0.3206
    6DOPE   HN2  648   1.328   5.665  16.621 -0.3497  1.3816  2.2438
    6DOPE   HN3  649   1.410   5.575  16.726  1.0749 -0.3032 -1.1256
    6DOPE   C12  650   1.206   5.573  16.767  0.7052 -0.9632  0.0896
    6DOPE  H12A  651   1.227   5.650  16.845 -1.5179 -0.1876  0.0054
    6DOPE  H12B  652   1.190   5.470  16.807  0.2130 -0.4854  1.1774
    6DOPE   C11  653   1.083   5.625  16.696  0.2245  0.6872  0.2146
    6DOPE  H11A  654   0.987   5.607  16.749 -0.9873  0.5965 -1.8980
    6DOPE  H11B  655   1.077   5.558  16.608  1.7717  1.4041 -0.4841
    6DOPE     P  656   1.080   5.878  16.770  0.1663  0.0292 -0.3370
    6DOPE   O13  657   1.210   5.935  16.798 -0.1820  0.5224  0.2159
    6DOPE   O14  658   1.001   5.819  16.881 -0.1612  0.2685  0.1562
    6DOPE   O11  659   0.993   5.985  16.695 -0.5337  0.1222 -0.3849
    6DOPE   O12  660   1.099   5.764  16.654 -0.3377 -0.2133  0.0215
    6DOPE    C1  661   0.981   5.999  16.556  0.0441 -0.1185 -0.5190
    6DOPE    HA  662   0.887   6.058  16.545 -1.2394 -1.2412  2.9254
    6DOPE    HB  663   0.954   5.899  16.516  1.2625 -1.1932  1.2088
    6DOPE    C2  664   1.092   6.066  16.478 -0.8407 -0.4160  0.5519
    6DOPE    HS  665   1.191   6.051  16.526 -0.3325  1.7797  0.3220
    6DOPE   O21  666   1.057   6.211  16.475 -0.4634 -0.0697  0.6121
    6DOPE   C21  667   1.148   6.297  16.438  0.3550  0.0104 -0.6299
    6DOPE   O22  668   1.266   6.272  16.426 -0.1979 -0.3808 -0.4553
    6DOPE   C22  669   1.091   6.438  16.420  0.1385 -0.0900 -0.3724
    6DOPE   H2R  670   1.169   6.507  16.459 -0.3008  0.8170 -1.0527
    6DOPE   H2S  671   1.004   6.454  16.487  0.6051  2.9280 -0.3297
    6DOPE    C3  672   1.101   6.024  16.330  0.8086 -0.5386  0.1367
    6DOPE    HX  673   1.006   6.046  16.277  1.6313 -0.3573 -1.3038
    6DOPE    HY  674   1.108   5.913  16.324  0.4350 -0.4925 -3.2484
    6DOPE   O31  675   1.200   6.095  16.244 -0.2139  0.1685  0.0369
    6DOPE   C31  676   1.323   6.036  16.237  0.6457 -0.0033  0.0296
    6DOPE   O32  677   1.357   5.944  16.311 -0.7045 -0.0908 -0.4095
    6DOPE   C32  678   1.403   6.110  16.127 -0.2642  0.6555  0.8119
    6DOPE   H2X  679   1.371   6.217  16.126 -2.0228  0.2332 -2.5409
    6DOPE   H2Y  680   1.508   6.111  16.164  0.1974  1.6280 -0.4599
    6DOPE   C23  681   1.051   6.474  16.273  0.3758 -0.6709  0.9197
    6DOPE   H3R  682   1.010   6.577  16.272 -0.5571 -0.9255  4.1509
    6DOPE   H3S  683   0.961   6.415  16.243 -0.1701 -0.3847  1.9687
    6DOPE   C24  684   1.165   6.475  16.171  0.0124  0.7743 -0.4989
    6DOPE   H4R  685   1.210   6.373  16.171 -1.7121 -0.0450 -1.6944
    6DOPE   H4S  686   1.245   6.542  16.210  1.3182 -0.8586 -0.2381
    6DOPE   C25  687   1.126   6.522  16.036 -0.5198 -0.4633 -0.1820
    6DOPE   H5R  688   1.219   6.566  15.995  0.9937 -2.9805  0.3320
    6DOPE   H5S  689   1.060   6.609  16.060 -1.9960 -1.1454 -1.5378
    6DOPE   C26  690   1.068   6.429  15.928  0.0389 -0.1996 -0.1371
    6DOPE   H6R  691   1.043   6.490  15.839 -5.4538 -1.4482  0.1821
    6DOPE   H6S  692   0.973   6.386  15.967  0.0435 -3.2798 -3.0168
    6DOPE   C27  693   1.147   6.310  15.888  0.2954  0.4028 -0.2705
    6DOPE   H7R  694   1.161   6.234  15.968  0.3226 -0.4978 -1.1152
    6DOPE   H7S  695   1.252   6.331  15.860  1.5723 -3.5819  0.8646
    6DOPE   C28  696   1.065   6.237  15.773  0.0775  0.3666  0.3754
    6DOPE   H8R  697   1.027   6.315  15.704 -2.7081 -1.2091 -0.0482
    6DOPE   H8S  698   0.977   6.187  15.819  0.2760  0.4755  0.8767
    6DOPE   C29  699   1.157   6.150  15.692  0.3010  0.6484 -0.0820
    6DOPE   H9R  700   1.252   6.117  15.737  0.2601 -0.3646 -0.7229
    6DOPE  C210  701   1.132   6.096  15.566 -0.2570 -0.3690  0.7643
    6DOPE  H10R  702   1.214   6.039  15.520 -1.9062 -1.3415 -1.1183
    6DOPE  C211  703   0.998   6.109  15.492  0.0151 -0.1024  0.3159
    6DOPE  H11R  704   0.927   6.179  15.541  0.8871 -0.1201  1.6718
    6DOPE  H11S  705   0.949   6.013  15.522  1.4539 -0.6453  1.0589
    6DOPE  C212  706   1.000   6.141  15.345  0.0775 -0.4840  0.5299
    6DOPE  H12R  707   0.896   6.137  15.306  0.3463  4.2009 -1.2277
    6DOPE  H12S  708   1.068   6.073  15.289  3.5603  2.2348  1.0643
    6DOPE  C213  709   1.056   6.289  15.323 -0.2506 -0.0199  0.3992
    6DOPE  H13R  710   1.029   6.351  15.411  0.0728  3.3799 -1.7525
    6DOPE  H13S  711   1.003   6.323  15.232 -0.4970 -2.5987 -0.4941
    6DOPE  C214  712   1.207   6.303  15.277 -0.1681 -0.1328  0.7214
    6DOPE  H14R  713   1.269   6.235  15.339  0.0901 -0.4940  0.0696
    6DOPE  H14S  714   1.230   6.411  15.289  1.3161 -0.1679 -1.3456
    6DOPE  C215  715   1.226   6.263  15.132 -0.0573 -0.6171  0.3361
    6DOPE  H15R  716   1.143   6.321  15.087  0.3444  0.5429  1.0495
    6DOPE  H15S  717   1.215   6.156  15.106  1.1699 -0.6351 -0.2024
    6DOPE  C216  718   1.363   6.314  15.068  0.2015 -0.0674  0.2319
    6DOPE  H16R  719   1.445   6.259  15.119  1.0157  1.7057  0.9048
    6DOPE  H16S  720   1.371   6.422  15.093 -0.3639  0.1889 -0.6531
    6DOPE  C217  721   1.385   6.287  14.916 -0.0594 -0.5864 -1.1021
    6DOPE  H17R  722   1.282   6.294  14.876 -1.0026 -1.2532  1.0618
    6DOPE  H17S  723   1.424   6.184  14.897  1.1134 -0.3807  0.0629
    6DOPE  C218  724   1.481   6.389  14.843  0.0426  0.6189 -0.0895
    6DOPE  H18R  725   1.585   6.352  14.857  0.3618  1.3687 -0.4503
    6DOPE  H18S  726   1.459   6.490  14.882 -2.8162  0.4837 -1.1358
    6DOPE  H18T  727   1.462   6.389  14.734  2.6253  2.1813 -0.6216
    6DOPE   C33  728   1.398   6.050  15.991 -0.1537 -0.4032  0.3348
    6DOPE   H3X  729   1.440   6.127  15.923  1.3765 -1.6512 -0.2006
    6DOPE   H3Y  730   1.296   6.052  15.948  0.4076  1.9872 -1.0693
    6DOPE   C34  731   1.466   5.917  15.984  0.1703  0.0889  0.1148
    6DOPE   H4X  732   1.564   5.920  16.035  0.7941 -0.6007 -1.0037
    6DOPE   H4Y  733   1.406   5.838  16.034  0.4652 -3.2731 -4.2326
    6DOPE   C35  734   1.468   5.885  15.836 -0.9103  0.0866  0.0851
    6DOPE   H5X  735   1.536   5.955  15.783  0.8537 -0.3466  1.6645
    6DOPE   H5Y  736   1.367   5.898  15.792 -0.4620  0.2776 -0.9013
    6DOPE   C36  737   1.527   5.741  15.803  0.6715 -0.5334  0.3997
    6DOPE   H6X  738   1.523   5.716  15.695 -0.4696 -0.6749  0.4610
    6DOPE   H6Y  739   1.469   5.667  15.863  0.3610  0.6428  1.6077
    6DOPE   C37  740   1.673   5.731  15.847 -0.0100 -0.6826 -0.0622
    6DOPE   H7X  741   1.732   5.816  15.809 -0.4802 -0.6493 -0.7269
    6DOPE   H7Y  742   1.674   5.731  15.958 -2.0853  2.8159  0.0988
    6DOPE   C38  743   1.726   5.593  15.799  0.7232  0.1079  0.0194
    6DOPE   H8X  744   1.701   5.587  15.691 -1.4535 -2.5953  0.5352
    6DOPE   H8Y  745   1.662   5.517  15.850  2.8345 -0.0706  2.5908
    6DOPE   C39  746   1.872   5.565  15.838 -0.0568 -0.2962  0.0975
    6DOPE   H9X  747   1.940   5.643  15.802  0.8106  0.2213  2.6748
    6DOPE  C310  748   1.909   5.448  15.885  0.1390 -0.0358 -0.0782
    6DOPE  H10X  749   2.005   5.443  15.940  1.4432 -0.6249 -2.2701
    6DOPE  C311  750   1.819   5.332  15.899 -0.4252 -0.1585  0.6367
    6DOPE  H11X  751   1.738   5.332  15.823 -0.6519  1.1150  0.8586
    6DOPE  H11Y  752   1.883   5.242  15.881  0.1025  0.1612  0.8988
    6DOPE  C312  753   1.765   5.323  16.044 -0.0330 -0.8291 -0.4037
    6DOPE  H12X  754   1.710   5.417  16.061  0.4878 -0.1854 -2.0757
    6DOPE  H12Y  755   1.858   5.322  16.105  0.4622 -1.0589 -1.1405
    6DOPE  C313  756   1.690   5.194  16.062  0.3541 -0.1545 -0.4761
    6DOPE  H13X  757   1.603   5.175  15.996  0.6196 -0.7384 -0.6726
    6DOPE  H13Y  758   1.757   5.110  16.034 -0.9561 -1.2768 -0.3609
    6DOPE  C314  759   1.644   5.166  16.212 -0.3626 -0.5222 -0.1341
    6DOPE  H14X  760   1.730   5.127  16.271 -0.7819 -0.4083  0.5629
    6DOPE  H14Y  761   1.577   5.078  16.204 -2.1008  0.6476  0.7929
    6DOPE  C315  762   1.566   5.275  16.284  0.6082  0.4233 -0.6554
    6DOPE  H15X  763   1.639   5.355  16.306  3.7216 -2.7532  1.5524
    6DOPE  H15Y  764   1.541   5.230  16.382  0.7968 -1.4141 -1.4206
    6DOPE  C316  765   1.457   5.349  16.206  0.0921  0.1620  0.2958
    6DOPE  H16X  766   1.380   5.275  16.176  1.3852 -1.4454  0.8300
    6DOPE  H16Y  767   1.508   5.390  16.116 -0.3358  1.7962  0.7548
    6DOPE  C317  768   1.382   5.470  16.272 -0.6131  0.4025 -0.3415
    6DOPE  H17X  769   1.327   5.433  16.361 -0.6973 -1.2098 -1.0277
    6DOPE  H17Y  770   1.457   5.534  16.323 -0.7367 -0.9654  1.6796
    6DOPE  C318  771   1.295   5.554  16.183  0.3967  0.1163 -0.4910
    6DOPE  H18X  772   1.258   5.486  16.103 -2.3254 -0.9689  1.5287
    6DOPE  H18Y  773   1.209   5.583  16.247  0.2917  0.7585 -0.9191
    6DOPE  H18Z  774   1.351   5.644  16.150  1.6533 -0.9955 -1.5202
    7DOPE     N  775   4.528   7.404  17.052  0.1760 -0.7153  0.1764
    7DOPE   HN1  776   4.584   7.476  17.003 -0.3027 -1.2502 -1.1868
    7DOPE   HN2  777   4.443   7.376  17.000 -1.3427 -0.5207  2.3945
    7DOPE   HN3  778   4.504   7.428  17.151  0.1303  2.0806 -0.4188
    7DOPE   C12  779   4.626   7.298  17.043 -0.0815  0.0442  0.1118
    7DOPE  H12A  780   4.604   7.226  17.125 -3.0612  1.1232  0.3685
    7DOPE  H12B  781   4.726   7.346  17.041  0.0263 -0.1743  0.2387
    7DOPE   C11  782   4.618   7.220  16.908 -0.1355  0.2122  0.6039
    7DOPE  H11A  783   4.711   7.160  16.912 -1.5257 -1.9957  2.6119
    7DOPE  H11B  784   4.615   7.292  16.823  0.7456  3.0901  2.8506
    7DOPE     P  785   4.360   7.180  16.855  0.0561 -0.3372 -0.1663
    7DOPE   O13  786   4.324   7.311  16.909 -0.0292 -0.1290 -0.6624
    7DOPE   O14  787   4.261   7.075  16.872 -0.3054 -0.5591 -0.5130
    7DOPE   O11  788   4.396   7.189  16.703 -0.2636 -0.1152 -0.8381
    7DOPE   O12  789   4.502   7.135  16.911  0.3476  0.0525  0.7266
    7DOPE    C1  790   4.440   7.075  16.631  0.1356  0.0679  0.2645
    7DOPE    HA  791   4.367   6.992  16.646 -1.7446  1.5208 -0.3932
    7DOPE    HB  792   4.533   7.042  16.682 -1.4696  1.0185  4.1309
    7DOPE    C2  793   4.468   7.107  16.482  0.1751 -0.2471 -1.0921
    7DOPE    HS  794   4.377   7.140  16.427  0.1622  0.3606 -0.7089
    7DOPE   O21  795   4.529   6.996  16.413  0.1758 -0.6808  0.3906
    7DOPE   C21  796   4.448   6.893  16.400 -0.5053 -0.9341 -0.4039
    7DOPE   O22  797   4.326   6.903  16.429 -0.5361 -0.0189 -0.0836
    7DOPE   C22  798   4.527   6.777  16.340  0.1731  1.3641 -0.4336
    7DOPE   H2R  799   4.614   6.773  16.409 -1.1257  1.1745  1.2713
    7DOPE   H2S  800   4.547   6.786  16.231  0.3686 -3.8601 -1.0480
    7DOPE    C3  801   4.565   7.229  16.485 -0.1091 -0.1635 -0.5756
    7DOPE    HX  802   4.658   7.187  16.530 -1.2458 -0.0645  2.0885
    7DOPE    HY  803   4.532   7.309  16.554 -2.2614 -0.1112 -1.5970
    7DOPE   O31  804   4.584   7.276  16.348  0.6443 -0.7532  0.1992
    7DOPE   C31  805   4.679   7.369  16.325  0.1886 -0.0314  0.2738
    7DOPE   O32  806   4.738   7.421  16.423 -0.0912  0.0387 -0.0689
    7DOPE   C32  807   4.705   7.402  16.179  1.4436  0.3450  0.5542
    7DOPE   H2X  808   4.709   7.306  16.124 -0.9176  0.6270 -0.2299
    7DOPE   H2Y  809   4.618   7.455  16.132 -1.4223 -2.7111  2.0189
    7DOPE   C23  810   4.448   6.644  16.344 -0.0402 -0.0851 -0.5796
    7DOPE   H3R  811   4.352   6.661  16.292  0.2173 -0.0510 -1.0519
    7DOPE   H3S  812   4.414   6.617  16.446 -1.3087  0.6328 -0.7885
    7DOPE   C24  813   4.517   6.521  16.289 -0.1425  0.1183 -0.1124
    7DOPE   H4R  814   4.442   6.439  16.294 -0.4113  0.2363 -1.8233
    7DOPE   H4S  815   4.605   6.489  16.350 -0.2044 -0.3454 -0.2564
    7DOPE   C25  816   4.568   6.523  16.147  0.0424 -0.8671  0.1804
    7DOPE   H5R  817   4.661   6.584  16.150  0.1620 -1.0724  1.0556
    7DOPE   H5S  818   4.500   6.574  16.076 -0.3676 -1.4084  0.1798
    7DOPE   C26  819   4.621   6.386  16.104 -0.6816 -0.4169 -0.0741
    7DOPE   H6R  820   4.536   6.314  16.098 -2.4870  1.1707  3.3064
    7DOPE   H6S  821   4.693   6.354  16.182 -1.2120 -0.2891  0.4788
    7DOPE   C27  822   4.705   6.391  15.975 -0.6660  0.7519  0.6205
    7DOPE   H7R  823   4.747   6.289  15.959 -0.0787  1.0591  0.1755
    7DOPE   H7S  824   4.788   6.463  15.983 -0.1803  0.1588  1.0143
    7DOPE   C28  825   4.624   6.431  15.850  0.4109 -0.3748  0.2109
    7DOPE   H8R  826   4.564   6.523  15.868 -0.7737 -1.1926  0.5034
    7DOPE   H8S  827   4.541   6.358  15.841 -0.6916  0.9531 -0.9236
    7DOPE   C29  828   4.704   6.437  15.726 -0.4304 -0.1729  0.2001
    7DOPE   H9R  829   4.708   6.337  15.681  1.0453  0.2479 -0.6389
    7DOPE  C210  830   4.764   6.540  15.670 -0.4590  0.1483  0.1360
    7DOPE  H10R  831   4.819   6.528  15.575 -0.3568  4.0067 -0.4547
    7DOPE  C211  832   4.750   6.683  15.721 -0.5422 -0.3463 -0.5501
    7DOPE  H11R  833   4.831   6.702  15.796 -0.4608  0.5200 -0.8417
    7DOPE  H11S  834   4.653   6.702  15.771 -0.1747  0.1061  0.0147
    7DOPE  C212  835   4.765   6.782  15.606 -0.1763 -0.3544  0.3457
    7DOPE  H12R  836   4.711   6.755  15.513 -1.6954  0.5349  0.9281
    7DOPE  H12S  837   4.873   6.798  15.586 -0.1827 -0.9500 -0.1818
    7DOPE  C213  838   4.704   6.922  15.635 -0.5911  0.4150 -0.3291
    7DOPE  H13R  839   4.750   6.985  15.714  1.8923 -0.9449 -0.5686
    7DOPE  H13S  840   4.597   6.903  15.659 -0.2844 -0.0253  0.7687
    7DOPE  C214  841   4.699   7.010  15.503  0.7537  0.1984  0.3305
    7DOPE  H14R  842   4.633   6.947  15.440  0.8009 -1.0046  1.4636
    7DOPE  H14S  843   4.802   7.009  15.459  0.3898 -1.3531 -0.5732
    7DOPE  C215  844   4.624   7.140  15.513 -0.1714 -0.2297 -0.3552
    7DOPE  H15R  845   4.530   7.133  15.571 -0.6280  0.2788 -1.0201
    7DOPE  H15S  846   4.600   7.171  15.409 -0.4126  1.9032  0.3038
    7DOPE  C216  847   4.710   7.248  15.583  0.7359 -0.1149 -0.5362
    7DOPE  H16R  848   4.784   7.287  15.510  0.5735  1.5952  0.1891
    7DOPE  H16S  849   4.760   7.208  15.674 -0.6869 -0.7749 -0.0193
    7DOPE  C217  850   4.614   7.366  15.617  0.3196 -0.3674  0.0328
    7DOPE  H17R  851   4.526   7.376  15.549 -0.0997  2.0012  0.8253
    7DOPE  H17S  852   4.672   7.458  15.597  0.2700 -0.0919  1.0881
    7DOPE  C218  853   4.579   7.359  15.765 -0.0032  0.2857  0.6737
    7DOPE  H18R  854   4.469   7.349  15.782 -0.2832 -1.2465 -1.5808
    7DOPE  H18S  855   4.610   7.459  15.803  0.2351 -0.4376  2.5003
    7DOPE  H18T  856   4.637   7.285  15.824 -3.0254 -2.1705  0.8092
    7DOPE   C33  857   4.835   7.483  16.159 -0.1771  0.1345  0.1767
    7DOPE   H3X  858   4.917   7.418  16.198 -0.4660  0.7258  1.8667
    7DOPE   H3Y  859   4.835   7.577  16.219  0.5030 -0.1768  0.6700
    7DOPE   C34  860   4.848   7.515  16.009  0.6421  0.3951  0.2388
    7DOPE   H4X  861   4.823   7.423  15.952  0.8213 -2.1121  3.8482
    7DOPE   H4Y  862   4.765   7.582  15.979 -0.7912 -1.6612 -0.6559
    7DOPE   C35  863   4.981   7.582  15.970 -0.2614  0.7601  0.6798
    7DOPE   H5X  864   5.068   7.524  16.007 -1.4116 -1.7147 -0.2164
    7DOPE   H5Y  865   4.988   7.684  16.012 -0.8904  2.0466 -2.1052
    7DOPE   C36  866   5.013   7.592  15.820  0.1620 -0.0417 -0.2727
    7DOPE   H6X  867   5.102   7.657  15.806  0.8370 -0.5424  1.4393
    7DOPE   H6Y  868   4.929   7.653  15.781 -0.3593 -0.7554 -0.2905
    7DOPE   C37  869   5.040   7.457  15.748  0.4339  0.4564  0.1717
    7DOPE   H7X  870   5.147   7.430  15.742  0.3226  0.3611 -2.0336
    7DOPE   H7Y  871   4.982   7.379  15.802  0.1701  0.4918 -0.0579
    7DOPE   C38  872   5.000   7.454  15.597 -0.3521 -0.3252  0.1937
    7DOPE   H8X  873   4.891   7.478  15.594 -0.0979  1.0711 -3.3450
    7DOPE   H8Y  874   5.003   7.345  15.572 -0.0831 -0.5836  1.3184
    7DOPE   C39  875   5.075   7.553  15.508 -0.4318  0.3805  0.2682
    7DOPE   H9X  876   5.183   7.546  15.524 -0.4001  0.6988  0.1962
    7DOPE  C310  877   5.023   7.656  15.435 -0.3179 -0.1748 -0.3436
    7DOPE  H10X  878   5.086   7.738  15.396 -1.8782  0.6231 -1.2485
    7DOPE  C311  879   4.874   7.679  15.411 -0.1975  0.1896 -1.1494
    7DOPE  H11X  880   4.808   7.627  15.485 -0.2680  1.2132 -0.4751
    7DOPE  H11Y  881   4.854   7.787  15.426  0.5001  0.1905 -0.0809
    7DOPE  C312  882   4.820   7.647  15.273 -0.1176  0.2944 -0.5566
    7DOPE  H12X  883   4.879   7.683  15.186  2.2350 -0.6989  0.5397
    7DOPE  H12Y  884   4.722   7.700  15.265  0.0776  0.7616  0.1250
    7DOPE  C313  885   4.797   7.499  15.265 -0.1282  0.0317 -0.0204
    7DOPE  H13X  886   4.890   7.447  15.297 -0.6751 -0.3880  0.9290
    7DOPE  H13Y  887   4.712   7.466  15.327 -0.6211 -0.4786 -0.9491
    7DOPE  C314  888   4.756   7.451  15.126 -0.5630 -0.1410  0.9015
    7DOPE  H14X  889   4.846   7.444  15.060 -0.2025  3.2679  0.8556
    7DOPE  H14Y  890   4.690   7.528  15.080 -0.7940 -0.0658  1.3507
    7DOPE  C315  891   4.679   7.321  15.115  0.0990 -0.1845 -0.2223
    7DOPE  H15X  892   4.625   7.311  15.019 -1.3119  2.4815  0.2002
    7DOPE  H15Y  893   4.599   7.317  15.192 -0.3541  0.0755 -0.6811
    7DOPE  C316  894   4.755   7.187  15.125 -1.2119 -0.4657 -0.0179
    7DOPE  H16X  895   4.684   7.102  15.116 -1.5554 -0.1393 -0.3901
    7DOPE  H16Y  896   4.803   7.176  15.225  1.4847  0.5637 -1.0857
    7DOPE  C317  897   4.857   7.175  15.009 -0.0054 -0.3689 -0.0745
    7DOPE  H17X  898   4.806   7.215  14.919 -0.7147 -0.2395  0.3756
    7DOPE  H17Y  899   4.940   7.247  15.025 -0.5985  0.6172 -1.3143
    7DOPE  C318  900   4.900   7.033  14.976  0.2240 -0.0367 -0.4681
    7DOPE  H18X  901   4.817   6.961  14.965 -0.1636  0.6494 -2.3021
    7DOPE  H18Y  902   4.966   7.029  14.887 -0.5867  0.4467 -1.1025
    7DOPE  H18Z  903   4.974   6.998  15.052 -0.2224  1.6122  0.7792
    8DOPE     N  904   6.015   7.495  16.682 -0.2623  0.8378 -0.0669
    8DOPE   HN1  905   6.105   7.504  16.733 -0.7491  1.8589  0.6520
    8DOPE   HN2  906   5.957   7.415  16.715 -2.9118  2.6972  0.1345
    8DOPE   HN3  907   6.042   7.479  16.583 -1.5936 -1.2233 -0.1723
    8DOPE   C12  908   5.935   7.623  16.691 -0.2047 -0.2849  0.7036
    8DOPE  H12A  909   5.848   7.607  16.625 -0.7574 -2.0308  1.8026
    8DOPE  H12B  910   5.991   7.712  16.655  2.1864 -1.5277  1.1675
    8DOPE   C11  911   5.889   7.648  16.840  0.4476 -0.7429 -0.0008
    8DOPE  H11A  912   5.819   7.734  16.838 -2.5218 -2.9195  1.2588
    8DOPE  H11B  913   5.982   7.686  16.887  0.4475 -1.5869  0.7059
    8DOPE     P  914   5.690   7.481  16.894 -0.0827 -0.5980 -0.3570
    8DOPE   O13  915   5.601   7.582  16.961  0.4102  0.0890 -0.7288
    8DOPE   O14  916   5.691   7.344  16.951  0.1534 -0.7475  0.3731
    8DOPE   O11  917   5.668   7.475  16.737  0.9398  0.1167  0.2051
    8DOPE   O12  918   5.838   7.533  16.905  0.0340  0.3171 -0.5371
    8DOPE    C1  919   5.547   7.414  16.683 -0.1478  0.3227  0.4751
    8DOPE    HA  920   5.457   7.426  16.747 -1.3848  0.5160 -1.2436
    8DOPE    HB  921   5.573   7.306  16.678  0.6197  0.5606 -1.5949
    8DOPE    C2  922   5.512   7.481  16.545 -0.1349  0.0190 -0.2469
    8DOPE    HS  923   5.416   7.436  16.510  0.2066 -1.2924  0.4382
    8DOPE   O21  924   5.606   7.456  16.436 -0.0378  0.6311  0.4405
    8DOPE   C21  925   5.644   7.336  16.405 -0.0339  0.4096 -0.6716
    8DOPE   O22  926   5.616   7.233  16.468 -0.1555  0.1228 -0.0105
    8DOPE   C22  927   5.721   7.327  16.270 -0.6420  0.0805 -0.2129
    8DOPE   H2R  928   5.646   7.297  16.193  0.3325 -0.3247 -1.0340
    8DOPE   H2S  929   5.807   7.258  16.283 -0.1526  0.7247  0.0072
    8DOPE    C3  930   5.483   7.632  16.574  0.0232 -0.4257  0.1104
    8DOPE    HX  931   5.580   7.670  16.611 -0.7213  2.9174 -1.0145
    8DOPE    HY  932   5.407   7.630  16.655 -0.4482 -2.9646 -0.3316
    8DOPE   O31  933   5.446   7.700  16.452 -0.0427 -0.0435 -0.0823
    8DOPE   C31  934   5.324   7.680  16.411  0.5268  0.1307 -1.0620
    8DOPE   O32  935   5.242   7.613  16.471  0.5490 -0.4858 -0.2786
    8DOPE   C32  936   5.290   7.759  16.283 -0.4330 -0.1893 -0.6141
    8DOPE   H2X  937   5.220   7.844  16.300  1.1720  0.9674  0.5529
    8DOPE   H2Y  938   5.379   7.813  16.243  0.1714 -1.0143 -0.3988
    8DOPE   C23  939   5.757   7.465  16.213 -0.2879  0.1612  0.0142
    8DOPE   H3R  940   5.833   7.525  16.268 -1.5778  2.8391 -0.9827
    8DOPE   H3S  941   5.668   7.531  16.205  0.4638  1.1236 -0.6056
    8DOPE   C24  942   5.814   7.454  16.072  0.4150 -0.0963 -0.1684
    8DOPE   H4R  943   5.741   7.416  15.998 -0.3162  1.0509 -0.0598
    8DOPE   H4S  944   5.899   7.383  16.078 -1.1405 -1.8871  3.1706
    8DOPE   C25  945   5.879   7.591  16.026 -0.2061 -0.2167 -0.2334
    8DOPE   H5R  946   5.914   7.570  15.922  0.1574 -1.3646  0.1033
    8DOPE   H5S  947   5.959   7.620  16.097  0.1847  2.1772 -1.5366
    8DOPE   C26  948   5.777   7.703  16.028 -0.1852  0.7274 -0.4454
    8DOPE   H6R  949   5.736   7.722  16.129  0.4867  0.1072 -0.0455
    8DOPE   H6S  950   5.692   7.678  15.961  0.1772  0.2201 -0.7268
    8DOPE   C27  951   5.835   7.838  15.981 -0.2854 -0.3374  0.1108
    8DOPE   H7R  952   5.876   7.824  15.878 -0.4779 -0.0982  0.0004
    8DOPE   H7S  953   5.917   7.870  16.048  0.6731  0.3234 -1.3057
    8DOPE   C28  954   5.714   7.930  15.964 -0.2305  0.2951 -0.0126
    8DOPE   H8R  955   5.632   7.877  15.909 -1.7617  1.4588  1.0599
    8DOPE   H8S  956   5.742   8.011  15.894 -0.3935 -1.3566 -2.0987
    8DOPE   C29  957   5.665   7.984  16.093 -0.0864  0.2336  0.0760
    8DOPE   H9R  958   5.740   7.977  16.174 -0.7330  0.2007  0.6835
    8DOPE  C210  959   5.542   8.022  16.119  0.3825 -0.1291 -0.3343
    8DOPE  H10R  960   5.515   8.026  16.226  2.5653  0.4052  0.2534
    8DOPE  C211  961   5.425   8.027  16.027  0.0390  0.1311  0.4935
    8DOPE  H11R  962   5.350   7.950  16.054  0.4738 -0.0990  1.0835
    8DOPE  H11S  963   5.469   7.995  15.930 -0.8580 -1.5259  0.5882
    8DOPE  C212  964   5.361   8.170  15.994  0.1646 -0.0886 -0.0040
    8DOPE  H12R  965   5.440   8.241  15.963 -0.9227  1.2615  0.2365
    8DOPE  H12S  966   5.326   8.201  16.095  0.1390  1.1228 -0.3699
    8DOPE  C213  967   5.238   8.164  15.899  0.4827 -0.2171  0.0931
    8DOPE  H13R  968   5.168   8.250  15.896 -0.9130 -1.3390 -0.3392
    8DOPE  H13S  969   5.174   8.083  15.938 -0.6408  0.7287  0.2542
    8DOPE  C214  970   5.274   8.125  15.755 -0.4043 -0.6425 -0.1591
    8DOPE  H14R  971   5.315   8.022  15.752  0.2544 -0.3976  0.3606
    8DOPE  H14S  972   5.350   8.199  15.722  0.3608 -1.5016 -0.3506
    8DOPE  C215  973   5.146   8.124  15.663  0.3064  0.3392 -0.5786
    8DOPE  H15R  974   5.093   8.213  15.703  0.7366 -0.1785  1.2546
    8DOPE  H15S  975   5.087   8.031  15.674 -0.5499  0.9951  0.5810
    8DOPE  C216  976   5.182   8.140  15.517  1.2827  0.1102 -0.2390
    8DOPE  H16R  977   5.221   8.042  15.484  2.3693  0.3317  0.3593
    8DOPE  H16S  978   5.258   8.220  15.527  0.4484  0.7527  1.3255
    8DOPE  C217  979   5.071   8.195  15.429  0.1239  0.0454  0.0545
    8DOPE  H17R  980   5.118   8.216  15.331 -0.3409  2.7200  0.3284
    8DOPE  H17S  981   5.030   8.288  15.474 -1.8579 -0.3460 -0.8094
    8DOPE  C218  982   4.958   8.098  15.414 -0.7221  0.2736  0.1986
    8DOPE  H18R  983   4.944   8.048  15.513  0.0686  0.7608  0.5613
    8DOPE  H18S  984   5.000   8.021  15.346  0.9368 -0.4112  1.8860
    8DOPE  H18T  985   4.856   8.120  15.376 -0.2774 -0.3512 -1.4381
    8DOPE   C33  986   5.244   7.669  16.171 -0.0225 -0.0984 -0.3686
    8DOPE   H3X  987   5.212   7.733  16.087  0.8579  1.5752  0.5282
    8DOPE   H3Y  988   5.170   7.587  16.187  0.9784 -1.1329 -0.9175
    8DOPE   C34  989   5.365   7.601  16.110 -0.4193  0.6146  0.3342
    8DOPE   H4X  990   5.440   7.679  16.084  1.2625 -1.5887 -1.8765
    8DOPE   H4Y  991   5.417   7.529  16.175  2.1902  1.8524 -0.2607
    8DOPE   C35  992   5.329   7.530  15.978 -0.2952 -0.1657  0.7355
    8DOPE   H5X  993   5.286   7.611  15.915  0.6276 -0.0914  0.1768
    8DOPE   H5Y  994   5.250   7.452  15.980 -1.2147  0.7586  1.4735
    8DOPE   C36  995   5.441   7.471  15.906  0.2878 -0.1639  0.3213
    8DOPE   H6X  996   5.413   7.364  15.897 -1.8900  0.5106 -1.9536
    8DOPE   H6Y  997   5.534   7.490  15.963  1.0053  0.8654 -1.1406
    8DOPE   C37  998   5.468   7.534  15.766  1.2726 -0.3985 -0.1092
    8DOPE   H7X  999   5.375   7.526  15.707  0.4704 -2.5819  1.3304
    8DOPE   H7Y 1000   5.490   7.642  15.784 -1.5202  0.7178 -2.7025
    8DOPE   C38 1001   5.591   7.491  15.684  0.3648  0.7097 -0.3967
    8DOPE   H8X 1002   5.671   7.488  15.761  0.2424 -1.4538 -0.3177
    8DOPE   H8Y 1003   5.615   7.574  15.613 -1.4080  0.9944 -0.7006
    8DOPE   C39 1004   5.564   7.357  15.617  0.0425  0.2362  0.0336
    8DOPE   H9X 1005   5.567   7.273  15.687 -0.0295  0.3843  0.2166
    8DOPE  C310 1006   5.529   7.339  15.486  0.4513  0.1035  0.0180
    8DOPE  H10X 1007   5.506   7.236  15.455  0.2250  0.0021  0.5204
    8DOPE  C311 1008   5.505   7.437  15.374 -0.1300  0.2090 -0.4836
    8DOPE  H11X 1009   5.400   7.429  15.338  0.0318  2.7798 -1.7998
    8DOPE  H11Y 1010   5.539   7.542  15.387 -2.3714  0.7411  1.6610
    8DOPE  C312 1011   5.582   7.379  15.249 -0.0042 -0.0128 -0.4716
    8DOPE  H12X 1012   5.592   7.269  15.256 -0.1503 -0.0206 -0.3728
    8DOPE  H12Y 1013   5.686   7.411  15.271 -0.1754  0.0722  0.2203
    8DOPE  C313 1014   5.537   7.414  15.112  0.0980 -0.2490  0.3311
    8DOPE  H13X 1015   5.433   7.377  15.097 -0.1132  0.4985 -0.0790
    8DOPE  H13Y 1016   5.525   7.524  15.105  4.0275  0.4773  2.0510
    8DOPE  C314 1017   5.635   7.364  14.998  0.4338  0.8928 -0.5600
    8DOPE  H14X 1018   5.729   7.420  15.017 -0.5975  1.6603  3.0859
    8DOPE  H14Y 1019   5.583   7.389  14.903  1.0266 -0.0900 -1.1626
    8DOPE  C315 1020   5.653   7.210  14.999 -0.0725 -0.6634  1.0127
    8DOPE  H15X 1021   5.551   7.165  15.004 -0.4046  0.0639  0.9818
    8DOPE  H15Y 1022   5.705   7.190  15.095  0.9978 -0.7310  0.4286
    8DOPE  C316 1023   5.744   7.147  14.897 -0.4973  0.0186 -0.1927
    8DOPE  H16X 1024   5.767   7.041  14.922  1.9512  0.2435 -1.2117
    8DOPE  H16Y 1025   5.840   7.204  14.900 -0.5698  0.0902  1.7835
    8DOPE  C317 1026   5.688   7.152  14.754 -0.1253 -0.5489  0.1699
    8DOPE  H17X 1027   5.583   7.117  14.759  0.2856 -2.0308 -0.9758
    8DOPE  H17Y 1028   5.691   7.260  14.727  0.1255 -0.4888  0.4330
    8DOPE  C318 1029   5.768   7.064  14.662 -0.3707  0.4715 -0.1184
    8DOPE  H18X 1030   5.877   7.079  14.674 -0.3087 -1.9087  3.7477
    8DOPE  H18Y 1031   5.735   7.090  14.559 -0.4825 -0.2754 -0.2786
    8DOPE  H18Z 1032   5.751   6.957  14.688  0.1443 -0.2704 -2.5202
    9DOPE     N 1033   0.486   4.676  17.159 -0.3398  0.8305 -0.9871
    9DOPE   HN1 1034   0.392   4.717  17.177 -0.2450  0.4978  0.3942
    9DOPE   HN2 1035   0.548   4.717  17.232  0.9486 -0.2776 -1.4235
    9DOPE   HN3 1036   0.516   4.703  17.063  0.9507 -1.2837 -1.2235
    9DOPE   C12 1037   0.507   4.525  17.165  0.6471 -0.6911  0.8736
    9DOPE  H12A 1038   0.471   4.496  17.266 -0.3046 -4.5930 -0.4278
    9DOPE  H12B 1039   0.616   4.502  17.155  0.6146 -0.2917 -0.4849
    9DOPE   C11 1040   0.420   4.450  17.053  0.1745  0.4707  0.2655
    9DOPE  H11A 1041   0.434   4.342  17.078 -1.2432 -0.0191 -0.9069
    9DOPE  H11B 1042   0.465   4.466  16.953 -1.9793 -0.0481 -0.8483
    9DOPE     P 1043   0.189   4.501  16.939  0.0995 -0.2457 -0.0486
    9DOPE   O13 1044   0.190   4.639  16.888 -0.0032  0.1909 -0.8085
    9DOPE   O14 1045   0.063   4.465  17.009  0.1562 -0.0317  0.0895
    9DOPE   O11 1046   0.235   4.398  16.833  0.3000 -0.3757  0.7289
    9DOPE   O12 1047   0.290   4.487  17.050  0.2090 -0.0705 -0.2851
    9DOPE    C1 1048   0.309   4.416  16.715  0.2756  0.7049  0.1021
    9DOPE    HA 1049   0.360   4.319  16.696 -0.7403  0.3886 -1.2242
    9DOPE    HB 1050   0.379   4.500  16.734  2.0396 -0.6295 -0.2361
    9DOPE    C2 1051   0.223   4.441  16.592  0.5358 -0.9047  0.4316
    9DOPE    HS 1052   0.167   4.537  16.602 -0.3880 -1.3907  0.0958
    9DOPE   O21 1053   0.132   4.330  16.569  0.1833 -0.4735  0.4300
    9DOPE   C21 1054   0.022   4.363  16.498  0.1234 -0.2645  0.2220
    9DOPE   O22 1055  -0.014   4.476  16.476 -0.1552  0.4950  0.2773
    9DOPE   C22 1056  -0.059   4.235  16.451 -1.6337  0.2385 -0.9007
    9DOPE   H2R 1057  -0.165   4.264  16.461 -1.8093 -0.5558 -0.4112
    9DOPE   H2S 1058  -0.033   4.159  16.528 -0.9085  2.4162  1.1476
    9DOPE    C3 1059   0.304   4.452  16.467 -0.6644 -0.4874  0.1394
    9DOPE    HX 1060   0.245   4.486  16.379 -1.3283 -0.6252  0.5198
    9DOPE    HY 1061   0.352   4.355  16.443  1.6420  0.6980 -0.2769
    9DOPE   O31 1062   0.417   4.547  16.476  0.3859  0.5034  0.0001
    9DOPE   C31 1063   0.379   4.680  16.494 -0.5531 -0.1860  0.3889
    9DOPE   O32 1064   0.268   4.721  16.505  0.2700 -0.4439  0.3432
    9DOPE   C32 1065   0.505   4.772  16.496  0.8336  0.3172  0.1529
    9DOPE   H2X 1066   0.551   4.745  16.593  2.2728  2.1114  0.0156
    9DOPE   H2Y 1067   0.573   4.748  16.411  3.0794  0.8355  1.7359
    9DOPE   C23 1068  -0.036   4.206  16.303 -0.2587 -1.2219  0.3420
    9DOPE   H3R 1069  -0.073   4.104  16.281 -1.6415 -0.0386 -3.5991
    9DOPE   H3S 1070   0.072   4.215  16.276 -0.3490  1.5516  0.6174
    9DOPE   C24 1071  -0.121   4.301  16.214 -0.9824  0.7643  0.1107
    9DOPE   H4R 1072  -0.087   4.406  16.231  0.4733  0.0160  2.3039
    9DOPE   H4S 1073  -0.228   4.300  16.242 -0.9185 -0.2949  0.3729
    9DOPE   C25 1074  -0.111   4.267  16.062  0.4864 -0.6929  0.1040
    9DOPE   H5R 1075  -0.183   4.186  16.034 -0.3012  0.3081 -0.8482
    9DOPE   H5S 1076  -0.004   4.241  16.049  0.5527  0.0536 -0.9897
    9DOPE   C26 1077  -0.133   4.393  15.974 -0.7690  0.0625 -0.0446
    9DOPE   H6R 1078  -0.055   4.469  15.999 -0.0252 -0.4081 -0.8975
    9DOPE   H6S 1079  -0.226   4.449  15.998  0.2956  2.5147 -1.2150
    9DOPE   C27 1080  -0.119   4.360  15.829  0.1312 -0.1117  0.2484
    9DOPE   H7R 1081  -0.177   4.268  15.806  0.1671  0.0624 -0.5866
    9DOPE   H7S 1082  -0.010   4.341  15.814  0.3757  0.8328  0.7638
    9DOPE   C28 1083  -0.150   4.479  15.745  0.1741 -0.9491  0.1723
    9DOPE   H8R 1084  -0.089   4.562  15.786 -1.6754  0.3623  0.4238
    9DOPE   H8S 1085  -0.256   4.513  15.755  0.0224 -1.0814 -0.8561
    9DOPE   C29 1086  -0.129   4.457  15.596 -1.0368  0.4306  0.6058
    9DOPE   H9R 1087  -0.205   4.500  15.530 -2.1254 -1.4900  0.5396
    9DOPE  C210 1088  -0.025   4.408  15.530 -0.2179 -1.1698  0.0141
    9DOPE  H10R 1089  -0.041   4.399  15.421  0.4556  0.1194 -0.2196
    9DOPE  C211 1090   0.109   4.369  15.584 -0.8703  0.0944 -0.2200
    9DOPE  H11R 1091   0.125   4.260  15.591  2.6380  0.5568  1.0830
    9DOPE  H11S 1092   0.132   4.422  15.679  1.4520  0.7619 -1.0815
    9DOPE  C212 1093   0.205   4.407  15.470 -0.0967  0.5109 -0.3726
    9DOPE  H12R 1094   0.210   4.516  15.452 -1.5491  0.0931 -4.3748
    9DOPE  H12S 1095   0.166   4.358  15.378  1.1698  1.5625 -1.4997
    9DOPE  C213 1096   0.351   4.348  15.493 -0.1986 -0.5121 -0.0804
    9DOPE  H13R 1097   0.411   4.364  15.401  0.0736  0.3475  0.2399
    9DOPE  H13S 1098   0.348   4.238  15.512  0.2444 -0.2786  1.5134
    9DOPE  C214 1099   0.419   4.410  15.618  0.4367  0.5427  0.3146
    9DOPE  H14R 1100   0.352   4.381  15.701 -1.0973 -0.2654 -1.1342
    9DOPE  H14S 1101   0.431   4.520  15.605  0.3044  0.6606  1.1438
    9DOPE  C215 1102   0.560   4.358  15.653  0.5839  0.0931  0.1001
    9DOPE  H15R 1103   0.569   4.247  15.658  0.6150  0.0751 -0.2970
    9DOPE  H15S 1104   0.582   4.391  15.756  1.1053  2.4508 -0.7011
    9DOPE  C216 1105   0.667   4.403  15.549  1.2998  0.8406  0.0034
    9DOPE  H16R 1106   0.646   4.506  15.515 -1.6634 -0.2135 -1.7344
    9DOPE  H16S 1107   0.656   4.345  15.454  2.3788 -2.5453  1.7561
    9DOPE  C217 1108   0.810   4.374  15.583 -0.3626  0.9208  0.3741
    9DOPE  H17R 1109   0.821   4.269  15.620 -2.1504  0.9823  1.1714
    9DOPE  H17S 1110   0.848   4.443  15.661  0.3847  1.5894 -0.5506
    9DOPE  C218 1111   0.907   4.384  15.463  0.0873 -0.3100 -0.3229
    9DOPE  H18R 1112   0.889   4.482  15.413 -0.8241 -1.4514 -2.3894
    9DOPE  H18S 1113   0.897   4.306  15.383  0.7819 -2.5627  1.6647
    9DOPE  H18T 1114   1.011   4.376  15.501  0.8138  1.5955 -1.7687
    9DOPE   C33 1115   0.473   4.922  16.475  0.8143  1.1021 -0.1235
    9DOPE   H3X 1116   0.395   4.943  16.551  1.2076  0.4645  0.4647
    9DOPE   H3Y 1117   0.423   4.940  16.377  2.5627  0.3345 -1.2083
    9DOPE   C34 1118   0.602   5.005  16.498 -0.8199  0.0333  1.1046
    9DOPE   H4X 1119   0.572   5.111  16.496 -0.2313  0.2637 -2.8432
    9DOPE   H4Y 1120   0.646   4.975  16.596 -1.6201 -1.5795  1.0095
    9DOPE   C35 1121   0.710   4.977  16.391  0.0575  0.3832  0.6000
    9DOPE   H5X 1122   0.765   4.881  16.397  0.7396  0.6217 -1.2098
    9DOPE   H5Y 1123   0.793   5.051  16.401  0.3795  0.3010 -1.1161
    9DOPE   C36 1124   0.662   4.993  16.247 -0.6072 -0.0415  0.1353
    9DOPE   H6X 1125   0.570   4.933  16.231  0.2605 -1.5638  0.5594
    9DOPE   H6Y 1126   0.739   4.947  16.181 -0.4692  0.9343 -0.3875
    9DOPE   C37 1127   0.647   5.137  16.200 -0.2152 -0.3565 -0.7797
    9DOPE   H7X 1128   0.548   5.146  16.150 -0.6995  1.3990  0.4196
    9DOPE   H7Y 1129   0.637   5.208  16.285  0.2509 -3.3768  2.0255
    9DOPE   C38 1130   0.760   5.188  16.105  0.2169 -0.0370  0.8964
    9DOPE   H8X 1131   0.790   5.096  16.051 -1.1924 -0.2240  0.3891
    9DOPE   H8Y 1132   0.852   5.215  16.161  1.2654  0.7559 -1.1284
    9DOPE   C39 1133   0.727   5.307  16.017 -0.4860  0.7012 -0.7493
    9DOPE   H9X 1134   0.723   5.399  16.077 -1.4977 -0.0511  0.4027
    9DOPE  C310 1135   0.702   5.309  15.887  0.1900  0.3676  0.2198
    9DOPE  H10X 1136   0.696   5.405  15.833  1.1409 -0.4517 -1.4223
    9DOPE  C311 1137   0.699   5.186  15.798  0.5652  0.5979 -0.5008
    9DOPE  H11X 1138   0.682   5.103  15.870 -2.0226 -0.2590 -1.9410
    9DOPE  H11Y 1139   0.607   5.177  15.735 -0.0477 -0.8737  0.5640
    9DOPE  C312 1140   0.825   5.181  15.707  0.0684 -0.0028 -0.4952
    9DOPE  H12X 1141   0.840   5.072  15.694 -1.1740 -0.4565  1.3947
    9DOPE  H12Y 1142   0.912   5.228  15.758 -0.0100 -1.3147  0.9130
    9DOPE  C313 1143   0.791   5.255  15.572 -0.4576 -0.5872  0.0420
    9DOPE  H13X 1144   0.701   5.213  15.525 -3.7686  2.6521  2.8056
    9DOPE  H13Y 1145   0.760   5.357  15.604  1.2374 -0.2771  0.8090
    9DOPE  C314 1146   0.910   5.258  15.471  0.1667  0.2468 -0.6905
    9DOPE  H14X 1147   0.903   5.160  15.419 -1.6569 -0.4952  0.8319
    9DOPE  H14Y 1148   1.004   5.264  15.529 -0.9446 -1.0676  1.3678
    9DOPE  C315 1149   0.901   5.358  15.359  0.0280  0.2747 -0.6078
    9DOPE  H15X 1150   0.999   5.346  15.308  0.0995  0.0052 -0.4103
    9DOPE  H15Y 1151   0.906   5.465  15.388 -0.5452 -0.4304  2.5526
    9DOPE  C316 1152   0.788   5.341  15.260  0.1534 -0.2275  0.5120
    9DOPE  H16X 1153   0.686   5.373  15.289 -1.0362  0.2061 -3.5459
    9DOPE  H16Y 1154   0.779   5.238  15.219 -0.5389 -0.2376  0.6762
    9DOPE  C317 1155   0.813   5.419  15.131  0.6389  0.6646  0.0923
    9DOPE  H17X 1156   0.800   5.528  15.149 -1.5422  0.4535  0.0617
    9DOPE  H17Y 1157   0.913   5.391  15.090 -0.5040 -2.5027 -0.7742
    9DOPE  C318 1158   0.714   5.373  15.026 -0.3693 -0.3339  0.6235
    9DOPE  H18X 1159   0.704   5.463  14.961  0.5562  0.1428  1.1161
    9DOPE  H18Y 1160   0.751   5.284  14.971 -1.3176 -1.6845  2.1044
    9DOPE  H18Z 1161   0.618   5.349  15.076 -1.9916  0.2919 -2.0003
   10DOPE     N 1162   0.651   7.522  16.889  0.5182 -0.3850 -0.1908
   10DOPE   HN1 1163   0.720   7.445  16.888  2.8741  1.6182 -1.3089
   10DOPE   HN2 1164   0.705   7.610  16.885  1.3309 -0.9296 -2.5372
   10DOPE   HN3 1165   0.606   7.520  16.983  0.0056  1.1059 -0.3770
   10DOPE   C12 1166   0.564   7.525  16.765 -0.2547 -0.2351 -0.5907
   10DOPE  H12A 1167   0.633   7.536  16.678  0.4963  1.0607  0.1428
   10DOPE  H12B 1168   0.515   7.624  16.769  0.9223  0.3143  1.5669
   10DOPE   C11 1169   0.468   7.405  16.772 -0.3970  0.5183  0.2888
   10DOPE  H11A 1170   0.517   7.306  16.769 -1.1071  0.1782 -1.4168
   10DOPE  H11B 1171   0.405   7.422  16.682  0.0810  0.8211  0.0081
   10DOPE     P 1172   0.277   7.292  16.903 -0.0143 -0.3125  0.5170
   10DOPE   O13 1173   0.150   7.369  16.920 -0.0842 -0.4237  0.0428
   10DOPE   O14 1174   0.316   7.197  17.010 -0.7021 -0.2037  0.4623
   10DOPE   O11 1175   0.281   7.225  16.756 -0.3894 -0.1338 -0.2675
   10DOPE   O12 1176   0.386   7.402  16.893 -0.0246 -0.5112 -0.3753
   10DOPE    C1 1177   0.178   7.245  16.663 -0.5452 -0.6851  0.3920
   10DOPE    HA 1178   0.186   7.351  16.629  4.0544 -0.8015  0.4710
   10DOPE    HB 1179   0.074   7.221  16.694 -1.5120 -0.5363 -2.3828
   10DOPE    C2 1180   0.195   7.176  16.518 -0.0516  0.6051  0.3904
   10DOPE    HS 1181   0.167   7.071  16.541 -0.7061 -0.0014 -2.7259
   10DOPE   O21 1182   0.327   7.198  16.480 -0.1568  0.0231 -0.2728
   10DOPE   C21 1183   0.382   7.107  16.404  0.0002 -0.0040  0.2375
   10DOPE   O22 1184   0.326   7.007  16.363 -0.8513  0.4241  0.1601
   10DOPE   C22 1185   0.534   7.122  16.386  0.2222  0.1931  0.1228
   10DOPE   H2R 1186   0.587   7.084  16.476 -1.7563 -1.6305  0.5946
   10DOPE   H2S 1187   0.555   7.231  16.393 -0.7095  0.3754  0.2096
   10DOPE    C3 1188   0.095   7.242  16.417  0.0872 -0.3651 -0.4285
   10DOPE    HX 1189   0.137   7.344  16.406  0.9224 -0.5588  0.8141
   10DOPE    HY 1190  -0.007   7.256  16.460 -0.1353 -0.3064 -0.9706
   10DOPE   O31 1191   0.084   7.185  16.286  0.5481 -0.2587  0.0135
   10DOPE   C31 1192   0.030   7.062  16.290 -0.4375 -0.1277 -0.2349
   10DOPE   O32 1193  -0.019   7.006  16.386 -0.0671 -0.7487  0.7306
   10DOPE   C32 1194   0.063   6.992  16.158  0.3836 -0.2982 -0.4061
   10DOPE   H2X 1195   0.031   7.040  16.063 -0.0762 -3.1066 -1.7682
   10DOPE   H2Y 1196   0.171   6.968  16.157  0.1459 -1.4254 -0.3887
   10DOPE   C23 1197   0.571   7.056  16.248 -0.1915 -0.0941 -0.2226
   10DOPE   H3R 1198   0.546   7.135  16.174 -1.7745  2.9333  3.1774
   10DOPE   H3S 1199   0.526   6.956  16.231 -0.0577 -0.2921  0.5651
   10DOPE   C24 1200   0.717   7.022  16.227 -0.2352 -1.0345 -0.2247
   10DOPE   H4R 1201   0.773   7.117  16.246 -0.2283 -0.6838 -1.8821
   10DOPE   H4S 1202   0.734   6.996  16.121 -2.0457 -2.3808 -0.2281
   10DOPE   C25 1203   0.765   6.898  16.301  0.3195 -0.3182  0.5963
   10DOPE   H5R 1204   0.700   6.810  16.281  1.1844 -0.8218 -0.0954
   10DOPE   H5S 1205   0.761   6.924  16.409 -1.4859  0.7734  0.3134
   10DOPE   C26 1206   0.910   6.857  16.262 -0.5516  0.4797  0.3436
   10DOPE   H6R 1207   0.915   6.837  16.153 -1.3715  0.1369  0.3590
   10DOPE   H6S 1208   0.938   6.764  16.316 -1.8954 -0.8989 -1.2305
   10DOPE   C27 1209   1.025   6.953  16.301 -0.2571  0.1586  0.1414
   10DOPE   H7R 1210   1.036   6.956  16.412  1.5800 -0.0065 -0.0060
   10DOPE   H7S 1211   1.001   7.059  16.278  1.2759  0.1848 -1.5565
   10DOPE   C28 1212   1.164   6.903  16.249  0.3629 -0.4341  0.1030
   10DOPE   H8R 1213   1.162   6.793  16.234  0.1871 -0.2163 -1.6437
   10DOPE   H8S 1214   1.240   6.923  16.328 -1.5580 -0.5769  2.0734
   10DOPE   C29 1215   1.190   6.963  16.117  0.0173  0.1220 -0.2721
   10DOPE   H9R 1216   1.107   7.005  16.059 -1.2958 -0.5121  1.0802
   10DOPE  C210 1217   1.309   6.961  16.056  0.2125  0.4035  0.3291
   10DOPE  H10R 1218   1.317   6.989  15.950  0.8454  1.1725  0.5634
   10DOPE  C211 1219   1.437   6.904  16.109 -0.5536 -0.2868  0.4747
   10DOPE  H11R 1220   1.422   6.832  16.192 -0.5006 -1.0913 -0.1928
   10DOPE  H11S 1221   1.509   6.983  16.136 -1.7498  0.8938  0.3358
   10DOPE  C212 1222   1.534   6.827  16.013  0.9352  0.0943  0.0594
   10DOPE  H12R 1223   1.480   6.731  15.998 -0.5563  0.2326  3.5843
   10DOPE  H12S 1224   1.632   6.809  16.063  0.4739 -1.3835  0.4840
   10DOPE  C213 1225   1.553   6.895  15.874  0.2910 -0.3708  0.0750
   10DOPE  H13R 1226   1.576   6.999  15.907 -2.0428  0.4674 -0.6924
   10DOPE  H13S 1227   1.458   6.909  15.817  0.6770  3.0437  0.0624
   10DOPE  C214 1228   1.661   6.811  15.807  0.4352  0.1726  0.3400
   10DOPE  H14R 1229   1.610   6.712  15.810  0.5623  0.1173  2.4870
   10DOPE  H14S 1230   1.748   6.801  15.876  0.2165  0.3052  0.6346
   10DOPE  C215 1231   1.700   6.845  15.661  0.1489  0.0520 -0.3120
   10DOPE  H15R 1232   1.750   6.944  15.655 -0.4024  0.3721  0.2142
   10DOPE  H15S 1233   1.612   6.871  15.599 -0.6320 -0.5831  0.4905
   10DOPE  C216 1234   1.787   6.743  15.590 -0.8805  0.6412 -0.1038
   10DOPE  H16R 1235   1.835   6.782  15.498  0.4608 -0.2577  0.1739
   10DOPE  H16S 1236   1.730   6.655  15.553  0.8289 -1.6643  2.2867
   10DOPE  C217 1237   1.917   6.698  15.673  0.7855  0.3683 -0.3295
   10DOPE  H17R 1238   1.883   6.635  15.758  0.5267  0.7549 -0.1439
   10DOPE  H17S 1239   1.963   6.789  15.716  1.0076 -0.0877  0.4140
   10DOPE  C218 1240   2.024   6.624  15.590  0.5559 -0.2679 -0.5812
   10DOPE  H18R 1241   2.112   6.601  15.654  0.8585  1.3324 -0.3844
   10DOPE  H18S 1242   2.063   6.688  15.508 -0.8499 -0.0690 -1.1221
   10DOPE  H18T 1243   1.993   6.530  15.539  1.7435 -2.3133  2.1857
   10DOPE   C33 1244  -0.001   6.850  16.147  0.2627 -0.2007  0.4033
   10DOPE   H3X 1245   0.025   6.784  16.233  0.6625  1.8261  1.9315
   10DOPE   H3Y 1246   0.045   6.793  16.064 -2.2349 -1.2567 -0.3489
   10DOPE   C34 1247  -0.151   6.865  16.104 -0.1094  0.0991  0.2167
   10DOPE   H4X 1248  -0.219   6.925  16.167 -1.0552  0.2307 -0.8921
   10DOPE   H4Y 1249  -0.155   6.910  16.002  2.2093  0.7378  0.3434
   10DOPE   C35 1250  -0.211   6.726  16.089  0.1141  0.2670 -0.3995
   10DOPE   H5X 1251  -0.187   6.670  16.182 -3.1569  1.9408  1.6670
   10DOPE   H5Y 1252  -0.163   6.681  16.000 -0.4491  0.3811 -0.7660
   10DOPE   C36 1253  -0.364   6.731  16.074  0.5406  0.6183 -0.0425
   10DOPE   H6X 1254  -0.409   6.807  16.140  0.8864  1.3548 -0.6406
   10DOPE   H6Y 1255  -0.404   6.635  16.114 -0.6022  1.1212  0.0505
   10DOPE   C37 1256  -0.417   6.741  15.930 -0.0233  0.0220  0.0512
   10DOPE   H7X 1257  -0.408   6.847  15.896 -0.9949  0.3546  0.7639
   10DOPE   H7Y 1258  -0.362   6.676  15.859  2.8629  0.7232  1.4878
   10DOPE   C38 1259  -0.570   6.720  15.926  0.1299  0.1440 -0.0905
   10DOPE   H8X 1260  -0.610   6.801  15.990 -0.1360 -0.0583  0.0022
   10DOPE   H8Y 1261  -0.585   6.624  15.980 -2.5586 -1.0471 -2.6879
   10DOPE   C39 1262  -0.637   6.716  15.797 -0.1529 -0.1654  0.3125
   10DOPE   H9X 1263  -0.620   6.630  15.731 -0.2078 -0.5931  0.8494
   10DOPE  C310 1264  -0.705   6.822  15.743  0.2370  0.3849 -0.3588
   10DOPE  H10X 1265  -0.759   6.805  15.649  2.1161 -0.3492 -1.3389
   10DOPE  C311 1266  -0.720   6.962  15.799 -0.6002 -0.2198  0.3434
   10DOPE  H11X 1267  -0.819   6.989  15.842 -0.2864  2.3943 -0.4291
   10DOPE  H11Y 1268  -0.647   6.979  15.881 -0.0521 -0.6844 -0.0439
   10DOPE  C312 1269  -0.687   7.076  15.696  0.3850 -0.5063 -0.6174
   10DOPE  H12X 1270  -0.704   7.175  15.744 -1.1476 -0.6511 -0.8106
   10DOPE  H12Y 1271  -0.751   7.065  15.606  1.9399 -2.1874 -1.5896
   10DOPE  C313 1272  -0.537   7.075  15.652  0.3238 -0.1172 -0.7700
   10DOPE  H13X 1273  -0.469   7.094  15.738 -2.0912 -1.5680  1.5943
   10DOPE  H13Y 1274  -0.508   6.972  15.619  1.6201 -0.0193 -0.0173
   10DOPE  C314 1275  -0.523   7.174  15.534 -0.8099  0.1483 -0.1630
   10DOPE  H14X 1276  -0.561   7.274  15.563  2.1809  1.2896  0.2102
   10DOPE  H14Y 1277  -0.592   7.129  15.459 -0.8219  0.0931 -0.1181
   10DOPE  C315 1278  -0.385   7.189  15.468 -0.2555  0.8500  0.3963
   10DOPE  H15X 1279  -0.364   7.091  15.419 -1.0129 -0.4263  2.5162
   10DOPE  H15Y 1280  -0.304   7.205  15.543 -0.1429 -0.6180  0.6103
   10DOPE  C316 1281  -0.386   7.292  15.355  0.4445 -0.2261 -0.1273
   10DOPE  H16X 1282  -0.469   7.279  15.283  1.0198 -0.8601 -0.6909
   10DOPE  H16Y 1283  -0.291   7.296  15.299  2.4817  3.9464  3.0972
   10DOPE  C317 1284  -0.404   7.443  15.403 -0.2464  1.1448 -0.1902
   10DOPE  H17X 1285  -0.505   7.452  15.449 -0.2530 -3.9705  1.4808
   10DOPE  H17Y 1286  -0.328   7.458  15.482 -0.8540 -1.3964  0.9862
   10DOPE  C318 1287  -0.378   7.541  15.286  0.4122 -0.8872  0.6374
   10DOPE  H18X 1288  -0.278   7.517  15.244  0.2511 -1.4437  0.5633
   10DOPE  H18Y 1289  -0.464   7.541  15.216  0.7951 -2.1004  0.1287
   10DOPE  H18Z 1290  -0.365   7.644  15.326 -0.9851  0.4426 -2.0702
   11DOPE     N 1291   0.128   2.620  17.230 -0.4803 -0.3451 -0.6249
   11DOPE   HN1 1292   0.093   2.526  17.257 -2.2478 -0.0309 -1.6421
   11DOPE   HN2 1293   0.157   2.672  17.315 -1.1514  1.3454 -1.3808
   11DOPE   HN3 1294   0.048   2.668  17.185 -1.2309 -1.7767 -0.8563
   11DOPE   C12 1295   0.246   2.589  17.137  0.7673  0.3455  0.5168
   11DOPE  H12A 1296   0.306   2.679  17.111 -0.0054  1.0113  0.9904
   11DOPE  H12B 1297   0.208   2.543  17.044  2.6788 -1.1784  0.4058
   11DOPE   C11 1298   0.327   2.473  17.196  0.3910  0.3707 -0.0995
   11DOPE  H11A 1299   0.258   2.388  17.215  2.1674 -1.2325 -0.5282
   11DOPE  H11B 1300   0.365   2.506  17.295 -0.3967 -1.3932  0.8533
   11DOPE     P 1301   0.535   2.326  17.137 -0.3192 -0.7381  0.2316
   11DOPE   O13 1302   0.462   2.198  17.108 -0.5780  0.7172  0.2802
   11DOPE   O14 1303   0.588   2.344  17.272  0.0086  0.3746 -0.0331
   11DOPE   O11 1304   0.658   2.345  17.037  0.4538 -0.6067  0.6603
   11DOPE   O12 1305   0.436   2.456  17.115 -0.3086 -0.8271 -0.0395
   11DOPE    C1 1306   0.653   2.349  16.894  0.0756  0.3069  0.5394
   11DOPE    HA 1307   0.554   2.320  16.853 -0.3626  0.8515  1.1781
   11DOPE    HB 1308   0.729   2.274  16.865 -1.5274 -1.0867 -0.2371
   11DOPE    C2 1309   0.690   2.487  16.837  0.2332  0.2449  0.3958
   11DOPE    HS 1310   0.796   2.505  16.863  0.8497 -0.3588 -1.5224
   11DOPE   O21 1311   0.602   2.582  16.895  0.1655 -0.3519  0.8354
   11DOPE   C21 1312   0.652   2.685  16.936 -0.0469 -0.6620  0.2386
   11DOPE   O22 1313   0.767   2.731  16.936  0.0132  0.2402  0.1039
   11DOPE   C22 1314   0.534   2.764  16.998 -0.0892  0.0469  0.2952
   11DOPE   H2R 1315   0.536   2.730  17.104  0.4044 -2.4659 -0.4358
   11DOPE   H2S 1316   0.439   2.727  16.955  0.3595 -1.2270  0.3307
   11DOPE    C3 1317   0.680   2.496  16.678  0.7223 -0.8606 -0.2563
   11DOPE    HX 1318   0.571   2.477  16.668  0.0816  1.4071  1.6082
   11DOPE    HY 1319   0.728   2.418  16.615  0.7306 -1.3928  0.3895
   11DOPE   O31 1320   0.703   2.623  16.621 -0.3150  0.2579  0.0897
   11DOPE   C31 1321   0.828   2.675  16.631 -0.3412  0.2986 -0.3920
   11DOPE   O32 1322   0.912   2.624  16.702 -0.6294 -0.2612  0.1309
   11DOPE   C32 1323   0.846   2.795  16.540 -0.4923 -0.5000  0.1230
   11DOPE   H2X 1324   0.754   2.799  16.478 -0.9475  2.4836  0.8512
   11DOPE   H2Y 1325   0.851   2.891  16.595  1.0102 -0.7626  0.4914
   11DOPE   C23 1326   0.545   2.918  16.984  0.3925 -0.4116  0.3170
   11DOPE   H3R 1327   0.626   2.957  17.048 -0.1990  1.0437  0.2368
   11DOPE   H3S 1328   0.454   2.960  17.032  1.7368  0.9019  1.8122
   11DOPE   C24 1329   0.557   2.964  16.835 -0.0768 -0.5510 -0.5967
   11DOPE   H4R 1330   0.651   2.926  16.788  0.2272 -3.5224  2.0949
   11DOPE   H4S 1331   0.551   3.075  16.835  0.6973 -0.4533  1.9301
   11DOPE   C25 1332   0.446   2.915  16.739 -0.7521 -0.1179 -0.5581
   11DOPE   H5R 1333   0.349   2.943  16.784 -0.3740  1.1025 -0.4762
   11DOPE   H5S 1334   0.439   2.804  16.732 -0.5008 -0.1918  0.2414
   11DOPE   C26 1335   0.460   2.985  16.605  0.2931 -0.3220  0.1773
   11DOPE   H6R 1336   0.543   2.945  16.543  0.2230  0.9924 -0.8168
   11DOPE   H6S 1337   0.481   3.093  16.619 -0.9010 -0.2918  2.1705
   11DOPE   C27 1338   0.330   2.992  16.526 -0.2466 -0.0830 -0.0348
   11DOPE   H7R 1339   0.252   3.046  16.583  0.0555 -2.2956  2.6996
   11DOPE   H7S 1340   0.287   2.889  16.531  2.8762 -1.7362 -3.0124
   11DOPE   C28 1341   0.330   3.041  16.373  0.1677 -1.2073 -0.7853
   11DOPE   H8R 1342   0.413   2.987  16.322  0.0079 -1.6002 -0.6265
   11DOPE   H8S 1343   0.361   3.148  16.362  1.2114 -1.5190 -1.0476
   11DOPE   C29 1344   0.196   3.025  16.307  0.6871 -0.0759  0.4502
   11DOPE   H9R 1345   0.108   3.035  16.372 -1.9496  0.2804 -2.8653
   11DOPE  C210 1346   0.187   3.010  16.172 -0.2589  0.0355 -0.3115
   11DOPE  H10R 1347   0.090   2.983  16.127  0.2890  0.0297 -1.5291
   11DOPE  C211 1348   0.301   2.990  16.078  0.0120 -0.1496  1.1762
   11DOPE  H11R 1349   0.266   2.904  16.017 -2.0278  0.4439  1.4522
   11DOPE  H11S 1350   0.399   2.970  16.127  0.3434  0.3004  0.6996
   11DOPE  C212 1351   0.327   3.116  15.981  0.5882  1.0824 -0.1428
   11DOPE  H12R 1352   0.365   3.190  16.054 -2.1635  1.2717  1.2292
   11DOPE  H12S 1353   0.231   3.154  15.940  0.0359 -0.8739 -0.7752
   11DOPE  C213 1354   0.433   3.082  15.876  0.3051  0.2941 -0.8579
   11DOPE  H13R 1355   0.529   3.056  15.924 -0.2032 -2.3805 -1.1586
   11DOPE  H13S 1356   0.438   3.173  15.812 -0.3003  0.1966 -1.0547
   11DOPE  C214 1357   0.406   2.953  15.797 -0.0887 -0.2907  0.0454
   11DOPE  H14R 1358   0.410   2.870  15.870 -0.9417  0.4613  0.9820
   11DOPE  H14S 1359   0.488   2.931  15.725 -0.2366  0.9499 -0.5321
   11DOPE  C215 1360   0.274   2.949  15.725 -0.6326  0.2031 -0.5496
   11DOPE  H15R 1361   0.186   2.946  15.793 -2.2945 -0.8998 -2.6164
   11DOPE  H15S 1362   0.256   2.853  15.671 -0.2534 -0.1569 -0.0383
   11DOPE  C216 1363   0.259   3.065  15.626 -0.3002  0.3897  0.3016
   11DOPE  H16R 1364   0.248   3.162  15.678 -1.8056  0.0650  0.6266
   11DOPE  H16S 1365   0.165   3.032  15.576  1.5815 -0.9982 -2.6182
   11DOPE  C217 1366   0.366   3.060  15.511  0.6746 -0.0138 -0.3480
   11DOPE  H17R 1367   0.368   2.952  15.487  1.3322  0.1876 -1.2888
   11DOPE  H17S 1368   0.466   3.089  15.551 -0.3149 -0.1403  2.4147
   11DOPE  C218 1369   0.336   3.138  15.381 -0.3508 -0.4910 -0.3146
   11DOPE  H18R 1370   0.241   3.111  15.331 -0.4350  0.1929 -0.5388
   11DOPE  H18S 1371   0.420   3.146  15.308  2.2082  0.7377  2.5423
   11DOPE  H18T 1372   0.323   3.242  15.418  0.4621 -0.3679 -0.3588
   11DOPE   C33 1373   0.984   2.785  16.458  0.8058  0.4309 -0.0583
   11DOPE   H3X 1374   1.075   2.794  16.520  0.6012  2.5729  0.0056
   11DOPE   H3Y 1375   0.987   2.878  16.396  0.6593  1.5687  1.5782
   11DOPE   C34 1376   0.995   2.659  16.371 -0.1314 -0.0536 -0.2108
   11DOPE   H4X 1377   1.100   2.659  16.335  0.2030  0.7862  0.6956
   11DOPE   H4Y 1378   0.990   2.581  16.450  0.8073 -1.5146 -1.5287
   11DOPE   C35 1379   0.885   2.633  16.264 -0.4656 -0.4442  0.1795
   11DOPE   H5X 1380   0.786   2.622  16.314 -1.1509 -0.3147 -1.1099
   11DOPE   H5Y 1381   0.893   2.539  16.205 -1.7155 -0.1888 -0.4320
   11DOPE   C36 1382   0.873   2.743  16.159 -0.0483 -0.2784  0.1355
   11DOPE   H6X 1383   0.977   2.760  16.122 -0.4750  0.4372 -0.7675
   11DOPE   H6Y 1384   0.847   2.837  16.213  1.0915 -0.5124  1.1294
   11DOPE   C37 1385   0.773   2.717  16.045  0.3422  0.3698 -0.1346
   11DOPE   H7X 1386   0.801   2.623  15.994  2.0071  0.3703  0.7216
   11DOPE   H7Y 1387   0.676   2.690  16.092  0.2455  0.2257 -0.4180
   11DOPE   C38 1388   0.761   2.842  15.955  0.3898 -0.0225 -0.4715
   11DOPE   H8X 1389   0.735   2.934  16.011 -1.0964 -0.8428  0.2469
   11DOPE   H8Y 1390   0.673   2.832  15.888 -0.4922  1.6093  0.3827
   11DOPE   C39 1391   0.891   2.866  15.878  0.6870 -0.2398 -0.1142
   11DOPE   H9X 1392   0.984   2.860  15.936  1.3893 -0.5296 -1.2332
   11DOPE  C310 1393   0.900   2.878  15.745 -0.5089 -0.5712  0.3011
   11DOPE  H10X 1394   0.993   2.903  15.690 -1.2333 -0.0083 -0.6939
   11DOPE  C311 1395   0.779   2.880  15.648  0.0948  0.1805 -0.3964
   11DOPE  H11X 1396   0.695   2.932  15.698 -0.3333 -0.5151 -0.3771
   11DOPE  H11Y 1397   0.806   2.930  15.553  1.9261 -2.0279 -1.1362
   11DOPE  C312 1398   0.728   2.736  15.605  0.0870  0.6962 -0.2731
   11DOPE  H12X 1399   0.723   2.673  15.696 -2.4562 -0.1547 -0.9152
   11DOPE  H12Y 1400   0.800   2.691  15.533  0.3169 -1.9431  1.4804
   11DOPE  C313 1401   0.598   2.729  15.530 -0.1462 -0.3422  0.0792
   11DOPE  H13X 1402   0.576   2.621  15.538  0.5292 -0.5345 -0.6492
   11DOPE  H13Y 1403   0.514   2.782  15.581  0.8206 -0.3178  1.7300
   11DOPE  C314 1404   0.605   2.786  15.392 -0.3646 -0.2193 -0.3017
   11DOPE  H14X 1405   0.664   2.880  15.391  0.1382 -0.5155  0.4923
   11DOPE  H14Y 1406   0.505   2.813  15.351 -0.2204 -0.7495 -1.0358
   11DOPE  C315 1407   0.673   2.684  15.290 -0.2671 -0.9875  0.0341
   11DOPE  H15X 1408   0.737   2.618  15.353 -1.1214 -0.6588  1.2785
   11DOPE  H15Y 1409   0.741   2.739  15.222 -1.6102  0.5948 -0.0909
   11DOPE  C316 1410   0.570   2.602  15.212  0.1715  0.0012  0.2729
   11DOPE  H16X 1411   0.474   2.590  15.267  0.3859  1.4801  1.0101
   11DOPE  H16Y 1412   0.623   2.509  15.184 -0.0873 -0.1617  0.3226
   11DOPE  C317 1413   0.549   2.672  15.077  0.0000  0.2361  0.2048
   11DOPE  H17X 1414   0.451   2.649  15.029  0.3206  0.5997 -0.6528
   11DOPE  H17Y 1415   0.551   2.780  15.102 -1.7795 -0.0855  2.0382
   11DOPE  C318 1416   0.647   2.649  14.962  0.5473 -0.0496  0.1952
   11DOPE  H18X 1417   0.608   2.703  14.874  0.9623 -0.5987 -0.3372
   11DOPE  H18Y 1418   0.746   2.691  14.990  1.4430 -2.4168  0.8790
   11DOPE  H18Z 1419   0.649   2.541  14.935 -0.6753 -0.3331  1.1627
   12DOPE     N 1420   2.166   7.703  17.163 -0.0608 -0.5673 -0.2166
   12DOPE   HN1 1421   2.073   7.665  17.136  0.5298 -4.2552  2.1795
   12DOPE   HN2 1422   2.157   7.745  17.258  1.5406 -2.4153  0.8462
   12DOPE   HN3 1423   2.196   7.773  17.092 -2.0299  0.9821  0.4007
   12DOPE   C12 1424   2.261   7.585  17.171  0.5146 -0.0136 -0.1500
   12DOPE  H12A 1425   2.239   7.523  17.260 -0.4005 -0.7560 -0.8805
   12DOPE  H12B 1426   2.363   7.624  17.193  1.0585 -1.0106 -0.8737
   12DOPE   C11 1427   2.258   7.493  17.048  0.4741  0.1838  0.4091
   12DOPE  H11A 1428   2.353   7.435  17.044 -0.8739 -2.0730 -2.9871
   12DOPE  H11B 1429   2.272   7.549  16.953  1.4645  0.1446  0.5204
   12DOPE     P 1430   2.025   7.448  16.965  0.5317 -0.3617 -0.4242
   12DOPE   O13 1431   1.986   7.580  17.019  1.1379 -0.0717 -0.2201
   12DOPE   O14 1432   1.928   7.335  16.958  0.4427  0.4688 -0.5361
   12DOPE   O11 1433   2.085   7.482  16.823 -0.1967  0.7890  0.0764
   12DOPE   O12 1434   2.155   7.397  17.037 -0.0352 -0.0364  0.1320
   12DOPE    C1 1435   2.116   7.365  16.729 -0.3505 -1.3578 -0.1207
   12DOPE    HA 1436   2.065   7.386  16.633  3.1204 -2.2758 -2.3789
   12DOPE    HB 1437   2.092   7.263  16.766  1.5021 -1.8545 -0.1672
   12DOPE    C2 1438   2.267   7.375  16.695  0.2909  0.1133  0.4209
   12DOPE    HS 1439   2.310   7.333  16.789  2.3812 -1.5519 -1.1669
   12DOPE   O21 1440   2.300   7.513  16.668 -0.0436  0.3752 -0.4350
   12DOPE   C21 1441   2.432   7.541  16.686  0.7275 -0.2330  0.2828
   12DOPE   O22 1442   2.508   7.467  16.742  0.2663  0.7402 -0.2227
   12DOPE   C22 1443   2.472   7.677  16.632  0.4933  0.0699  0.2777
   12DOPE   H2R 1444   2.523   7.667  16.534  0.0006  0.7755 -0.0609
   12DOPE   H2S 1445   2.542   7.718  16.708 -1.2703  0.0104  2.0242
   12DOPE    C3 1446   2.305   7.276  16.582 -0.5265  1.2449 -0.1487
   12DOPE    HX 1447   2.268   7.175  16.611 -3.5160  2.0451 -0.8057
   12DOPE    HY 1448   2.416   7.273  16.578 -0.5508  0.4660 -0.4291
   12DOPE   O31 1449   2.242   7.310  16.459  0.4504  0.1065  0.1186
   12DOPE   C31 1450   2.310   7.388  16.383 -0.8966  0.3389 -0.2253
   12DOPE   O32 1451   2.421   7.433  16.399  0.1425  0.0457  0.4575
   12DOPE   C32 1452   2.233   7.426  16.259 -0.6997 -0.3332  0.6668
   12DOPE   H2X 1453   2.148   7.360  16.231 -0.0803 -0.1150 -1.9888
   12DOPE   H2Y 1454   2.202   7.531  16.277  0.3835 -0.2624  2.3677
   12DOPE   C23 1455   2.353   7.770  16.596 -0.2222  0.1546 -0.0738
   12DOPE   H3R 1456   2.395   7.872  16.585  0.1316  0.6280  4.1990
   12DOPE   H3S 1457   2.282   7.767  16.681 -1.6973 -1.0745 -1.2774
   12DOPE   C24 1458   2.267   7.744  16.465  0.0040  0.7653 -0.0133
   12DOPE   H4R 1459   2.173   7.798  16.488 -0.5442  0.8385 -2.1758
   12DOPE   H4S 1460   2.239   7.637  16.454  0.9029  0.5952 -0.7753
   12DOPE   C25 1461   2.338   7.789  16.338 -0.0354 -0.8843  0.6867
   12DOPE   H5R 1462   2.285   7.738  16.255 -1.2539  0.4444  0.6081
   12DOPE   H5S 1463   2.441   7.748  16.351  0.1936  0.1398  2.4341
   12DOPE   C26 1464   2.341   7.941  16.308  0.3063 -0.4550 -0.1911
   12DOPE   H6R 1465   2.391   7.992  16.393  0.2212  0.7925 -0.8732
   12DOPE   H6S 1466   2.235   7.971  16.294  0.5427  1.6323  1.8529
   12DOPE   C27 1467   2.437   7.973  16.189  0.1024  0.3077 -0.0103
   12DOPE   H7R 1468   2.422   7.897  16.110  0.5178  0.6591 -0.4361
   12DOPE   H7S 1469   2.544   7.968  16.220 -0.2620 -0.3968  1.1887
   12DOPE   C28 1470   2.418   8.115  16.126  0.2355 -0.4753 -0.0635
   12DOPE   H8R 1471   2.450   8.188  16.204  1.0199  0.4637 -1.2322
   12DOPE   H8S 1472   2.309   8.132  16.111 -0.2060 -0.5454  2.5875
   12DOPE   C29 1473   2.500   8.139  16.004  0.0900  0.0611 -0.6098
   12DOPE   H9R 1474   2.475   8.060  15.931  0.5489 -1.3903  0.7569
   12DOPE  C210 1475   2.596   8.231  15.977 -0.2138 -0.4540 -0.4654
   12DOPE  H10R 1476   2.639   8.231  15.876 -0.1565 -0.7485 -0.4413
   12DOPE  C211 1477   2.640   8.334  16.075 -0.0735  0.0966  0.4522
   12DOPE  H11R 1478   2.555   8.389  16.121  1.7558  1.6976  2.0973
   12DOPE  H11S 1479   2.689   8.420  16.023 -2.9300  2.0003  0.6870
   12DOPE  C212 1480   2.733   8.298  16.184 -0.0498  0.7361  0.2234
   12DOPE  H12R 1481   2.832   8.254  16.156 -0.8199 -1.5819  0.9618
   12DOPE  H12S 1482   2.683   8.217  16.241  0.1120 -0.4962 -1.3117
   12DOPE  C213 1483   2.739   8.402  16.293 -1.0186  0.5774 -0.2398
   12DOPE  H13R 1484   2.822   8.369  16.360 -0.6896 -0.3396 -1.0799
   12DOPE  H13S 1485   2.641   8.405  16.345 -1.3240 -4.5120 -0.0352
   12DOPE  C214 1486   2.778   8.537  16.236 -0.4903  0.1262 -0.1416
   12DOPE  H14R 1487   2.696   8.564  16.167 -0.7060 -0.3153 -0.0584
   12DOPE  H14S 1488   2.871   8.539  16.175 -0.7579  0.9000 -0.5328
   12DOPE  C215 1489   2.780   8.652  16.338  0.1613 -0.3327  0.1253
   12DOPE  H15R 1490   2.845   8.730  16.293  0.4354 -0.7892 -0.2928
   12DOPE  H15S 1491   2.823   8.609  16.431 -1.2726  0.4739  1.2039
   12DOPE  C216 1492   2.643   8.709  16.377 -0.2917  0.9347  0.4893
   12DOPE  H16R 1493   2.669   8.769  16.467  3.4315 -0.1290  0.2734
   12DOPE  H16S 1494   2.579   8.633  16.426  0.5563  0.0483  0.2536
   12DOPE  C217 1495   2.575   8.786  16.269 -0.7644  0.0920  0.9200
   12DOPE  H17R 1496   2.572   8.730  16.173  0.9637  2.7729 -0.8240
   12DOPE  H17S 1497   2.642   8.871  16.243  0.5141 -1.1025  0.1074
   12DOPE  C218 1498   2.436   8.839  16.298  0.2122  0.7863  0.0004
   12DOPE  H18R 1499   2.355   8.769  16.331  0.9696  0.9253  2.3181
   12DOPE  H18S 1500   2.399   8.905  16.216 -1.1075  1.3380  1.0017
   12DOPE  H18T 1501   2.445   8.913  16.380 -3.2875  1.8686 -0.4209
   12DOPE   C33 1502   2.318   7.424  16.129 -0.5000  0.2007 -0.5585
   12DOPE   H3X 1503   2.356   7.320  16.121  0.4162  0.3836  0.9989
   12DOPE   H3Y 1504   2.414   7.481  16.130  0.4431 -1.3403 -0.2045
   12DOPE   C34 1505   2.247   7.460  15.998 -0.1302 -0.2327 -1.2371
   12DOPE   H4X 1506   2.320   7.465  15.914  0.0236  1.6764 -1.0337
   12DOPE   H4Y 1507   2.163   7.389  15.985 -0.6425 -0.3237  1.7747
   12DOPE   C35 1508   2.182   7.600  16.003 -0.2521  0.6014  0.4932
   12DOPE   H5X 1509   2.255   7.675  16.040  1.5868 -0.9089  0.0637
   12DOPE   H5Y 1510   2.104   7.594  16.083 -0.8152  2.3241  0.1325
   12DOPE   C36 1511   2.124   7.643  15.865  0.1664 -0.6377 -0.3481
   12DOPE   H6X 1512   2.063   7.735  15.878 -1.9491 -1.8874 -1.0280
   12DOPE   H6Y 1513   2.052   7.571  15.821 -1.9153  1.5120 -0.6767
   12DOPE   C37 1514   2.224   7.678  15.754 -0.0353  0.0580  1.0733
   12DOPE   H7X 1515   2.309   7.607  15.762  0.5523  0.3788 -1.3343
   12DOPE   H7Y 1516   2.186   7.687  15.650  0.1076  0.6135  1.0659
   12DOPE   C38 1517   2.285   7.817  15.778  0.0069  0.3430  0.0272
   12DOPE   H8X 1518   2.351   7.809  15.868 -0.6132  1.5030  0.6194
   12DOPE   H8Y 1519   2.197   7.881  15.803 -0.0336  0.1858  0.2901
   12DOPE   C39 1520   2.368   7.871  15.664  0.7698 -0.6784 -0.2417
   12DOPE   H9X 1521   2.436   7.792  15.629 -0.7095 -3.6019  2.8867
   12DOPE  C310 1522   2.354   7.986  15.600 -0.0660  0.1220 -0.3658
   12DOPE  H10X 1523   2.439   8.021  15.538 -0.1493 -0.0254 -0.5622
   12DOPE  C311 1524   2.256   8.092  15.644  0.7001  0.0663  0.1821
   12DOPE  H11X 1525   2.192   8.109  15.555 -0.9209  0.8254  1.4414
   12DOPE  H11Y 1526   2.187   8.069  15.728  0.6827 -1.3833 -0.2053
   12DOPE  C312 1527   2.314   8.233  15.664 -0.5821 -0.7571  0.4737
   12DOPE  H12X 1528   2.347   8.269  15.564  0.7887  0.3265  1.2773
   12DOPE  H12Y 1529   2.406   8.222  15.724 -1.0577  1.8945  1.8347
   12DOPE  C313 1530   2.216   8.334  15.724  0.2056  0.4046  0.0733
   12DOPE  H13X 1531   2.116   8.319  15.679  0.3628 -0.4465 -0.0255
   12DOPE  H13Y 1532   2.218   8.310  15.832  1.2017 -2.5097 -0.4826
   12DOPE  C314 1533   2.261   8.478  15.722 -0.3816  0.3982 -0.1141
   12DOPE  H14X 1534   2.184   8.542  15.769 -0.4596 -1.4811  2.5670
   12DOPE  H14Y 1535   2.275   8.498  15.614 -0.2876 -1.3358 -0.4540
   12DOPE  C315 1536   2.399   8.501  15.786  0.0831 -0.3347 -0.4297
   12DOPE  H15X 1537   2.474   8.457  15.716 -0.4772 -2.2374  0.1018
   12DOPE  H15Y 1538   2.398   8.452  15.886  2.2130 -2.1102 -1.1813
   12DOPE  C316 1539   2.428   8.651  15.796 -0.2673  0.6593  0.2189
   12DOPE  H16X 1540   2.346   8.712  15.838 -1.9729 -1.5214  0.2461
   12DOPE  H16Y 1541   2.428   8.688  15.691  0.0209 -0.5282 -0.2155
   12DOPE  C317 1542   2.567   8.681  15.848 -0.4457  0.3616  0.0407
   12DOPE  H17X 1543   2.571   8.625  15.944  1.3048 -2.4515 -1.5285
   12DOPE  H17Y 1544   2.644   8.634  15.784 -1.9697 -0.4206 -1.2974
   12DOPE  C318 1545   2.610   8.824  15.885  0.3084 -0.0674  0.3372
   12DOPE  H18X 1546   2.545   8.861  15.968 -4.2061  0.3557 -3.0100
   12DOPE  H18Y 1547   2.718   8.831  15.911  0.5532  0.2082 -0.7105
   12DOPE  H18Z 1548   2.600   8.878  15.789  0.7998  0.0802  0.3691
   13DOPE     N 1549   1.486   1.106  17.007 -0.2750 -0.2050 -0.0566
   13DOPE   HN1 1550   1.475   1.209  17.023  0.1603 -0.3144  1.0430
   13DOPE   HN2 1551   1.581   1.074  16.981 -0.3011 -1.4442  1.2465
   13DOPE   HN3 1552   1.418   1.066  16.940  0.0024  0.9402 -1.0566
   13DOPE   C12 1553   1.465   1.064  17.145  0.1713  0.0467  0.4721
   13DOPE  H12A 1554   1.542   1.096  17.218 -0.5830  0.7216  0.9832
   13DOPE  H12B 1555   1.463   0.952  17.146 -2.9724 -0.0512 -1.6934
   13DOPE   C11 1556   1.326   1.107  17.205 -0.2964 -0.1099  0.3412
   13DOPE  H11A 1557   1.330   1.076  17.312  1.1501 -4.0481 -0.6492
   13DOPE  H11B 1558   1.253   1.037  17.159 -0.0314  0.7652 -1.5041
   13DOPE     P 1559   1.301   1.351  17.283 -0.4083  0.2581  0.1741
   13DOPE   O13 1560   1.437   1.340  17.337 -0.3420  0.0108  0.0194
   13DOPE   O14 1561   1.192   1.343  17.388 -0.0125 -0.0023 -0.0120
   13DOPE   O11 1562   1.304   1.488  17.205 -0.2221  0.5201 -0.1171
   13DOPE   O12 1563   1.277   1.239  17.173  0.0741 -0.7420  0.7035
   13DOPE    C1 1564   1.187   1.523  17.128 -0.7520  0.4608 -0.2168
   13DOPE    HA 1565   1.153   1.625  17.159  0.0216  0.9938 -1.0556
   13DOPE    HB 1566   1.103   1.451  17.132  0.0247 -0.6888 -2.6531
   13DOPE    C2 1567   1.229   1.538  16.972  0.3633  0.4865 -0.3316
   13DOPE    HS 1568   1.337   1.565  16.967  0.4002  0.1180 -2.1022
   13DOPE   O21 1569   1.145   1.637  16.912  0.5560 -0.7154 -0.4171
   13DOPE   C21 1570   1.194   1.703  16.810 -0.4902  0.9031 -0.1896
   13DOPE   O22 1571   1.305   1.694  16.761 -0.1042  1.1237  0.1027
   13DOPE   C22 1572   1.071   1.769  16.746 -0.0715  0.3629  0.1524
   13DOPE   H2R 1573   1.042   1.845  16.822 -0.7918  0.3735 -0.1212
   13DOPE   H2S 1574   0.987   1.696  16.736  0.1969  0.1915 -0.9381
   13DOPE    C3 1575   1.207   1.403  16.887  0.3957  0.8758 -1.4007
   13DOPE    HX 1576   1.099   1.382  16.899  0.7997 -0.8135 -0.2205
   13DOPE    HY 1577   1.257   1.322  16.945 -0.0880  0.5074 -1.4974
   13DOPE   O31 1578   1.244   1.416  16.748 -0.0544  0.0421  0.5051
   13DOPE   C31 1579   1.287   1.315  16.687 -0.2134 -0.5599  0.2109
   13DOPE   O32 1580   1.291   1.201  16.732 -0.9459 -0.7051 -0.6923
   13DOPE   C32 1581   1.329   1.344  16.544  0.0117 -0.4321 -0.7742
   13DOPE   H2X 1582   1.313   1.251  16.484  1.8276 -0.1908 -1.7035
   13DOPE   H2Y 1583   1.247   1.406  16.500 -1.1715 -0.6889  0.9603
   13DOPE   C23 1584   1.100   1.845  16.616  0.0771 -0.2231  0.9153
   13DOPE   H3R 1585   1.196   1.899  16.632 -0.8298  1.0943  2.1350
   13DOPE   H3S 1586   1.021   1.919  16.590  0.9476  0.0599 -1.1650
   13DOPE   C24 1587   1.101   1.754  16.495 -0.3893  0.3307  0.7624
   13DOPE   H4R 1588   1.010   1.690  16.497 -1.2638  1.4785 -0.4479
   13DOPE   H4S 1589   1.185   1.681  16.501 -0.8079 -0.0019  3.6903
   13DOPE   C25 1590   1.100   1.825  16.355  0.5031 -0.0220  0.9201
   13DOPE   H5R 1591   1.199   1.874  16.343  1.7858 -2.8790 -1.4287
   13DOPE   H5S 1592   1.017   1.898  16.349 -0.4534 -1.1793 -1.1799
   13DOPE   C26 1593   1.092   1.739  16.231  0.1591  0.4003  0.8010
   13DOPE   H6R 1594   1.022   1.654  16.242 -0.6727  0.7253 -1.3988
   13DOPE   H6S 1595   1.194   1.695  16.224 -0.2921 -0.5703  0.2750
   13DOPE   C27 1596   1.058   1.826  16.111 -0.6123  0.0892 -1.1909
   13DOPE   H7R 1597   1.133   1.906  16.100 -0.2658 -0.0284  0.1833
   13DOPE   H7S 1598   0.959   1.876  16.120 -0.1936  1.2805 -2.8239
   13DOPE   C28 1599   1.070   1.743  15.981 -0.2914 -0.3705 -0.5737
   13DOPE   H8R 1600   1.003   1.656  15.998 -0.8146  0.5098  2.5535
   13DOPE   H8S 1601   1.172   1.704  15.962  0.0972  0.1114  0.4195
   13DOPE   C29 1602   1.029   1.830  15.867  0.2055  0.1893  0.1941
   13DOPE   H9R 1603   0.932   1.881  15.878  1.1989  1.6448  3.5488
   13DOPE  C210 1604   1.097   1.849  15.749  0.0861 -0.2746 -0.1019
   13DOPE  H10R 1605   1.040   1.909  15.676 -2.3022 -0.6638  1.3218
   13DOPE  C211 1606   1.233   1.801  15.701  0.1455 -1.0083  0.2672
   13DOPE  H11R 1607   1.300   1.776  15.787  1.3574  1.7271  0.1988
   13DOPE  H11S 1608   1.280   1.885  15.647  2.5907 -0.6437  2.7264
   13DOPE  C212 1609   1.226   1.684  15.603  0.2652  0.0789 -0.5064
   13DOPE  H12R 1610   1.152   1.714  15.526 -0.1889 -0.5590 -0.3196
   13DOPE  H12S 1611   1.176   1.600  15.656 -1.1314 -0.5555 -2.6949
   13DOPE  C213 1612   1.367   1.637  15.552 -0.4347  0.8035  0.5497
   13DOPE  H13R 1613   1.430   1.631  15.644 -0.6199  2.1919  0.7853
   13DOPE  H13S 1614   1.416   1.711  15.486  1.7253 -0.4977  0.5836
   13DOPE  C214 1615   1.356   1.496  15.491  0.1817  0.2972  0.5969
   13DOPE  H14R 1616   1.305   1.429  15.563  1.3672 -2.3476 -0.8448
   13DOPE  H14S 1617   1.461   1.461  15.481  0.8481  2.3968 -0.4099
   13DOPE  C215 1618   1.274   1.484  15.361 -0.1184 -0.0587  0.5896
   13DOPE  H15R 1619   1.300   1.566  15.291  0.4635  0.4580  1.3935
   13DOPE  H15S 1620   1.167   1.495  15.386 -1.0734 -2.8740 -1.6869
   13DOPE  C216 1621   1.291   1.350  15.291  0.2030  0.1513 -0.2322
   13DOPE  H16R 1622   1.271   1.268  15.363 -0.6369 -0.4404 -1.1115
   13DOPE  H16S 1623   1.397   1.337  15.258  0.9206 -2.9753  2.7204
   13DOPE  C217 1624   1.198   1.326  15.171 -0.0657 -0.0826  0.2101
   13DOPE  H17R 1625   1.238   1.401  15.099 -0.8052 -0.1396 -0.2757
   13DOPE  H17S 1626   1.093   1.354  15.190  0.2093  0.8484  0.4071
   13DOPE  C218 1627   1.209   1.187  15.106 -0.1913 -1.1917  0.4247
   13DOPE  H18R 1628   1.313   1.148  15.104  0.6774  0.9762 -1.9369
   13DOPE  H18S 1629   1.161   1.194  15.006 -2.5589  0.1175  1.5531
   13DOPE  H18T 1630   1.145   1.124  15.171 -1.0203  0.1550  0.9525
   13DOPE   C33 1631   1.464   1.408  16.519 -0.0178  0.1441 -0.0621
   13DOPE   H3X 1632   1.528   1.376  16.604 -0.6255 -1.3743 -0.1424
   13DOPE   H3Y 1633   1.452   1.519  16.521  2.0804  0.4094  0.0894
   13DOPE   C34 1634   1.526   1.366  16.388  0.2141  0.1545 -0.1895
   13DOPE   H4X 1635   1.635   1.383  16.386  0.3768  0.5049  3.6317
   13DOPE   H4Y 1636   1.518   1.255  16.382  0.5734  0.1988 -1.6621
   13DOPE   C35 1637   1.448   1.433  16.279  0.4371  0.1194  1.2231
   13DOPE   H5X 1638   1.448   1.542  16.299  1.9533  0.5615 -0.8416
   13DOPE   H5Y 1639   1.342   1.405  16.294 -0.0757  0.4901 -1.3451
   13DOPE   C36 1640   1.495   1.410  16.136  0.1834  0.4524 -0.4490
   13DOPE   H6X 1641   1.499   1.299  16.129  0.3522  0.1958  2.4421
   13DOPE   H6Y 1642   1.594   1.458  16.117 -1.6137  4.2639 -1.1036
   13DOPE   C37 1643   1.404   1.462  16.018 -0.6624  0.1253 -0.5465
   13DOPE   H7X 1644   1.374   1.377  15.953  0.1875 -0.4552 -0.1960
   13DOPE   H7Y 1645   1.314   1.499  16.073 -0.8971 -0.2616 -0.6652
   13DOPE   C38 1646   1.471   1.564  15.927  0.9485 -0.5571 -0.3192
   13DOPE   H8X 1647   1.398   1.583  15.846  0.0593 -3.0904 -0.1949
   13DOPE   H8Y 1648   1.564   1.521  15.883 -0.0177 -0.7321 -2.2450
   13DOPE   C39 1649   1.510   1.693  16.005 -0.4823  0.4481  0.7674
   13DOPE   H9X 1650   1.428   1.757  16.039 -0.4282 -0.8811  3.7784
   13DOPE  C310 1651   1.632   1.737  16.034 -0.1091 -0.5277 -0.2289
   13DOPE  H10X 1652   1.642   1.819  16.107  2.6875 -1.1980  0.2327
   13DOPE  C311 1653   1.760   1.667  16.001  0.4405 -0.5924 -0.2474
   13DOPE  H11X 1654   1.745   1.574  15.942  1.9504 -0.7965 -0.3522
   13DOPE  H11Y 1655   1.821   1.737  15.939 -1.8613 -0.2833 -2.2945
   13DOPE  C312 1656   1.849   1.620  16.115  0.0359  0.1380 -0.4006
   13DOPE  H12X 1657   1.799   1.551  16.186  1.2408  1.4893  1.8899
   13DOPE  H12Y 1658   1.859   1.704  16.187  0.9487 -2.2405  2.4606
   13DOPE  C313 1659   1.983   1.568  16.069 -0.1677 -0.0824  0.3600
   13DOPE  H13X 1660   1.963   1.471  16.019  0.3517 -1.0166  1.9015
   13DOPE  H13Y 1661   2.020   1.638  15.990 -1.0100 -0.8319 -0.7291
   13DOPE  C314 1662   2.098   1.562  16.178  0.7659  0.2352  0.2839
   13DOPE  H14X 1663   2.084   1.475  16.245  0.1098 -1.8888 -2.3994
   13DOPE  H14Y 1664   2.079   1.654  16.237  0.4722 -0.1760  0.8324
   13DOPE  C315 1665   2.237   1.559  16.114 -0.6715  0.0763  0.3275
   13DOPE  H15X 1666   2.246   1.652  16.054 -0.4675  0.9826  1.7169
   13DOPE  H15Y 1667   2.255   1.477  16.041 -0.3913  0.7381 -0.3621
   13DOPE  C316 1668   2.352   1.539  16.215  0.4819 -0.0834 -0.5373
   13DOPE  H16X 1669   2.357   1.633  16.273  1.4569  0.3887 -1.3630
   13DOPE  H16Y 1670   2.446   1.543  16.155  0.8818  0.8462  0.1433
   13DOPE  C317 1671   2.339   1.407  16.288 -0.1560 -0.5095  0.5801
   13DOPE  H17X 1672   2.435   1.393  16.343 -0.5935  0.5082  1.6414
   13DOPE  H17Y 1673   2.266   1.419  16.371 -0.5321 -0.7785  0.2903
   13DOPE  C318 1674   2.300   1.277  16.210 -0.7322  0.3646 -0.0428
   13DOPE  H18X 1675   2.364   1.275  16.119 -0.9819  4.1933 -0.4705
   13DOPE  H18Y 1676   2.340   1.194  16.272  1.1439 -1.2300 -3.1484
   13DOPE  H18Z 1677   2.193   1.266  16.183 -0.3846  1.8898 -2.3335
   14DOPE     N 1678   5.605   5.474  16.893  0.2946  0.1768  0.1344
   14DOPE   HN1 1679   5.656   5.554  16.850 -1.2077 -0.3372 -2.8566
   14DOPE   HN2 1680   5.615   5.467  16.996 -1.8111  0.5139  0.4061
   14DOPE   HN3 1681   5.655   5.393  16.851  1.9444  1.1569  0.1297
   14DOPE   C12 1682   5.459   5.496  16.858 -1.0317  0.0182 -0.3269
   14DOPE  H12A 1683   5.403   5.412  16.905 -1.0842  0.8618  1.1940
   14DOPE  H12B 1684   5.452   5.485  16.748  2.4941 -2.2535 -0.4757
   14DOPE   C11 1685   5.420   5.633  16.914  0.0788  0.0201  0.9889
   14DOPE  H11A 1686   5.434   5.636  17.024  2.5675 -0.8869  0.7676
   14DOPE  H11B 1687   5.311   5.643  16.895  0.1779  2.2583  1.3491
   14DOPE     P 1688   5.461   5.781  16.696  0.2719 -0.0885  0.2807
   14DOPE   O13 1689   5.579   5.748  16.612  0.5389 -0.3533 -0.2489
   14DOPE   O14 1690   5.424   5.919  16.721  0.5517 -0.3884  0.8372
   14DOPE   O11 1691   5.335   5.693  16.655  0.4708 -0.6751  0.1252
   14DOPE   O12 1692   5.497   5.732  16.846 -0.1235  0.1044 -0.4013
   14DOPE    C1 1693   5.200   5.747  16.679  0.0311 -0.0232  0.1707
   14DOPE    HA 1694   5.183   5.806  16.771 -0.5622  0.6776 -0.3802
   14DOPE    HB 1695   5.136   5.657  16.696  1.0459 -1.0195 -1.0286
   14DOPE    C2 1696   5.126   5.823  16.561 -0.5960 -0.3287 -0.1845
   14DOPE    HS 1697   5.020   5.789  16.558 -0.2995 -1.1947 -2.2757
   14DOPE   O21 1698   5.178   5.801  16.431 -0.6594 -1.1228  0.2674
   14DOPE   C21 1699   5.173   5.676  16.386  0.4650  0.3468  0.6688
   14DOPE   O22 1700   5.131   5.581  16.447 -0.3691  0.0900  0.0426
   14DOPE   C22 1701   5.236   5.664  16.247  0.0187 -0.2263  0.0238
   14DOPE   H2R 1702   5.326   5.599  16.254 -0.1422 -0.2638  2.2873
   14DOPE   H2S 1703   5.259   5.766  16.209 -0.3102  0.9169  2.7040
   14DOPE    C3 1704   5.127   5.967  16.598  0.3572 -0.4379 -0.1625
   14DOPE    HX 1705   5.234   5.978  16.624 -0.0719  1.4528  1.0905
   14DOPE    HY 1706   5.072   5.980  16.694  0.7910 -0.8902  0.1501
   14DOPE   O31 1707   5.069   6.052  16.503 -0.6147  0.0848 -0.0732
   14DOPE   C31 1708   5.156   6.122  16.428 -1.0966  0.1762 -1.4111
   14DOPE   O32 1709   5.279   6.113  16.425  0.4921 -0.9461  0.6202
   14DOPE   C32 1710   5.068   6.217  16.347  0.7434 -0.4688 -0.6110
   14DOPE   H2X 1711   5.012   6.148  16.281 -2.2244  1.1024  0.0946
   14DOPE   H2Y 1712   4.995   6.274  16.409  0.6003 -0.7479 -0.5228
   14DOPE   C23 1713   5.134   5.596  16.152 -0.0514  0.4293  0.1070
   14DOPE   H3R 1714   5.079   5.509  16.195  2.2105 -2.1260 -1.7978
   14DOPE   H3S 1715   5.179   5.554  16.060 -1.5374  2.2772 -1.5316
   14DOPE   C24 1716   5.022   5.689  16.102 -0.3302  0.3889 -0.1672
   14DOPE   H4R 1717   5.068   5.783  16.066  0.6144 -0.2516 -0.6660
   14DOPE   H4S 1718   4.963   5.721  16.191 -0.6465 -0.8737  0.0976
   14DOPE   C25 1719   4.921   5.628  16.005  0.1050  0.0030  0.0819
   14DOPE   H5R 1720   4.835   5.694  15.983 -0.5836 -0.5466  1.0196
   14DOPE   H5S 1721   4.876   5.542  16.059 -2.3513  2.3391  2.0257
   14DOPE   C26 1722   4.982   5.577  15.869  0.1002  0.0283 -0.0414
   14DOPE   H6R 1723   5.048   5.490  15.890 -1.7608 -2.1801 -2.6174
   14DOPE   H6S 1724   5.034   5.655  15.810 -2.0946  0.6748 -1.2587
   14DOPE   C27 1725   4.879   5.515  15.774 -0.1900  0.3563 -0.5838
   14DOPE   H7R 1726   4.791   5.583  15.768 -0.0280  0.7471  1.1536
   14DOPE   H7S 1727   4.842   5.416  15.810 -1.1972  0.3619 -1.5166
   14DOPE   C28 1728   4.924   5.505  15.622 -0.1110 -0.4942 -0.0994
   14DOPE   H8R 1729   5.027   5.466  15.620  0.4663  0.9605 -0.7506
   14DOPE   H8S 1730   4.931   5.609  15.583  0.6234 -1.4293 -2.6818
   14DOPE   C29 1731   4.831   5.426  15.531  0.2671 -0.1166 -0.0470
   14DOPE   H9R 1732   4.839   5.316  15.527  0.8462 -0.0303 -2.8076
   14DOPE  C210 1733   4.736   5.474  15.454  0.0791 -0.1079 -0.1896
   14DOPE  H10R 1734   4.678   5.405  15.392  2.6804 -2.4696 -0.1977
   14DOPE  C211 1735   4.709   5.621  15.431 -0.0685 -0.1001  0.3085
   14DOPE  H11R 1736   4.738   5.683  15.518  0.7559 -0.6708  0.4545
   14DOPE  H11S 1737   4.600   5.637  15.416 -0.4759 -2.0892  0.7712
   14DOPE  C212 1738   4.782   5.671  15.304  0.0393  0.5945  0.4162
   14DOPE  H12R 1739   4.755   5.613  15.213  1.3006 -0.6392  0.8002
   14DOPE  H12S 1740   4.890   5.647  15.293 -0.3680 -0.6964 -1.4320
   14DOPE  C213 1741   4.752   5.814  15.275 -0.6199 -0.3537  0.1949
   14DOPE  H13R 1742   4.794   5.883  15.352 -0.0994 -3.6034  3.1011
   14DOPE  H13S 1743   4.642   5.832  15.271 -0.0387  3.9443 -1.4317
   14DOPE  C214 1744   4.797   5.855  15.133 -0.3871 -0.0519 -0.4317
   14DOPE  H14R 1745   4.787   5.772  15.060  1.6227 -0.0889 -0.7037
   14DOPE  H14S 1746   4.906   5.873  15.131 -0.5545  0.9978 -0.6381
   14DOPE  C215 1747   4.735   5.989  15.074 -0.5259  0.0025  0.0770
   14DOPE  H15R 1748   4.800   6.019  14.990  2.2311 -1.2388  1.6272
   14DOPE  H15S 1749   4.758   6.056  15.161 -1.0815  0.3568 -0.0423
   14DOPE  C216 1750   4.586   5.979  15.029  0.2971 -0.6981 -0.0233
   14DOPE  H16R 1751   4.530   5.924  15.108 -0.7479 -0.0763 -0.3153
   14DOPE  H16S 1752   4.582   5.918  14.936 -1.3363 -0.3964 -0.1815
   14DOPE  C217 1753   4.509   6.114  14.992  0.1163  0.0623  0.1725
   14DOPE  H17R 1754   4.551   6.147  14.894  0.4448 -0.1774  0.2290
   14DOPE  H17S 1755   4.536   6.197  15.059  0.1910  0.7795 -0.7259
   14DOPE  C218 1756   4.354   6.100  14.982 -0.1095  0.0341 -0.4263
   14DOPE  H18R 1757   4.305   6.094  15.081  1.1341 -0.2143  0.1870
   14DOPE  H18S 1758   4.319   6.013  14.923 -0.5424 -0.2499  0.2317
   14DOPE  H18T 1759   4.312   6.193  14.936  0.9414 -0.3226 -2.1844
   14DOPE   C33 1760   5.145   6.324  16.274  0.4028 -1.1675  0.3357
   14DOPE   H3X 1761   5.224   6.279  16.210  0.4957 -0.2731 -0.1880
   14DOPE   H3Y 1762   5.183   6.405  16.340 -2.2166 -0.4488  1.0707
   14DOPE   C34 1763   5.049   6.393  16.168  0.6813 -0.1403 -0.0991
   14DOPE   H4X 1764   5.100   6.425  16.075 -0.5895 -1.2642 -1.2245
   14DOPE   H4Y 1765   4.967   6.323  16.142  0.2549  1.1273 -2.4024
   14DOPE   C35 1766   4.980   6.514  16.226  0.0682 -0.3748 -0.2914
   14DOPE   H5X 1767   4.933   6.502  16.326  0.9472  0.5077  0.2485
   14DOPE   H5Y 1768   4.908   6.534  16.143  0.4237  0.4816 -0.4026
   14DOPE   C36 1769   5.061   6.641  16.229  0.2511 -0.0964 -0.7331
   14DOPE   H6X 1770   5.097   6.668  16.128  0.8342  1.3551 -0.1705
   14DOPE   H6Y 1771   5.159   6.619  16.276 -0.4346 -1.2081  0.2492
   14DOPE   C37 1772   4.997   6.769  16.287 -0.0349  0.3915  0.1967
   14DOPE   H7X 1773   4.967   6.751  16.393 -1.5471  3.7066  0.4633
   14DOPE   H7Y 1774   5.076   6.847  16.293 -1.0391  1.4726 -0.0142
   14DOPE   C38 1775   4.877   6.815  16.203  0.6269 -0.3113  0.3412
   14DOPE   H8X 1776   4.795   6.741  16.210  1.5810 -1.4299 -0.0996
   14DOPE   H8Y 1777   4.904   6.799  16.097  0.1955 -3.4148  0.6075
   14DOPE   C39 1778   4.828   6.949  16.246 -0.6172  0.7128 -0.2514
   14DOPE   H9X 1779   4.850   6.970  16.351 -0.5889  0.5813 -0.2301
   14DOPE  C310 1780   4.763   7.044  16.177  0.5040 -0.4107  0.4734
   14DOPE  H10X 1781   4.716   7.123  16.238 -2.1431 -2.9991  2.0290
   14DOPE  C311 1782   4.727   7.041  16.031 -0.0225  0.0475 -0.2556
   14DOPE  H11X 1783   4.762   7.138  15.990 -0.3574 -0.6725 -2.3429
   14DOPE  H11Y 1784   4.798   6.964  15.995 -0.1890 -0.2599  0.0755
   14DOPE  C312 1785   4.579   7.008  16.002  0.3286 -0.6142 -0.3388
   14DOPE  H12X 1786   4.561   6.919  16.067  0.8667 -0.5391 -0.0768
   14DOPE  H12Y 1787   4.567   6.986  15.894  0.0566 -0.0879 -0.4240
   14DOPE  C313 1788   4.479   7.124  16.038  0.2672  0.4924 -0.1282
   14DOPE  H13X 1789   4.475   7.152  16.146 -1.4747  0.9385 -0.2745
   14DOPE  H13Y 1790   4.499   7.218  15.983 -1.0948  1.1858  0.5083
   14DOPE  C314 1791   4.337   7.077  16.003 -0.8752  0.4348  0.4610
   14DOPE  H14X 1792   4.307   7.070  15.896 -1.5825 -2.2746  0.7434
   14DOPE  H14Y 1793   4.265   7.150  16.045 -2.2186  1.6773 -3.5314
   14DOPE  C315 1794   4.296   6.933  16.062  0.0749 -0.3252 -0.2302
   14DOPE  H15X 1795   4.312   6.923  16.171  0.9555 -1.8639 -0.4642
   14DOPE  H15Y 1796   4.365   6.856  16.022  0.8819 -0.2209  0.9144
   14DOPE  C316 1797   4.153   6.890  16.034  0.0991  0.0538 -0.3726
   14DOPE  H16X 1798   4.140   6.900  15.924 -0.2233 -1.7987 -0.5263
   14DOPE  H16Y 1799   4.088   6.965  16.083  1.2574  1.4650 -0.9071
   14DOPE  C317 1800   4.122   6.742  16.077 -0.6318 -0.1975 -0.5164
   14DOPE  H17X 1801   4.052   6.698  16.004 -0.6799  0.6131 -0.9769
   14DOPE  H17Y 1802   4.214   6.681  16.066  1.2861  2.7825 -2.8736
   14DOPE  C318 1803   4.054   6.737  16.214 -0.7790 -0.0266  0.6387
   14DOPE  H18X 1804   4.014   6.635  16.230 -2.0937 -0.0681 -2.1811
   14DOPE  H18Y 1805   4.123   6.769  16.295 -2.4398  2.1875  1.2867
   14DOPE  H18Z 1806   3.971   6.811  16.221  1.2007  2.1748  2.2697
   15DOPE     N 1807   7.671   3.087  17.256 -0.6967  0.1057 -0.0192
   15DOPE   HN1 1808   7.711   3.176  17.291  2.8773 -1.0926 -0.6843
   15DOPE   HN2 1809   7.573   3.111  17.231 -0.0428  0.4159 -2.4929
   15DOPE   HN3 1810   7.663   3.029  17.342  1.6663  0.6095  0.6202
   15DOPE   C12 1811   7.742   3.021  17.139 -0.4150 -0.5286 -0.5611
   15DOPE  H12A 1812   7.766   3.092  17.058 -0.4138 -1.0788 -1.0444
   15DOPE  H12B 1813   7.669   2.947  17.100  0.8735 -1.7628 -0.6806
   15DOPE   C11 1814   7.875   2.952  17.199 -0.2526 -0.0425  0.3004
   15DOPE  H11A 1815   7.944   3.028  17.241  1.1463 -1.0073 -0.2035
   15DOPE  H11B 1816   7.931   2.906  17.116 -1.1193  1.0854 -0.9521
   15DOPE     P 1817   7.949   2.765  17.381  0.3882  0.3920  0.2511
   15DOPE   O13 1818   7.878   2.646  17.432 -0.4448  0.3730 -0.2953
   15DOPE   O14 1819   8.011   2.859  17.480  0.0696  0.2282 -0.1854
   15DOPE   O11 1820   8.043   2.728  17.267 -0.3156 -0.4533  0.1523
   15DOPE   O12 1821   7.844   2.855  17.303 -0.4724  0.1000 -0.4924
   15DOPE    C1 1822   8.062   2.595  17.216  0.0384  0.4217  0.9184
   15DOPE    HA 1823   7.983   2.521  17.240  1.0181 -1.4621 -1.2369
   15DOPE    HB 1824   8.153   2.547  17.257 -0.4654 -1.1422  0.2965
   15DOPE    C2 1825   8.090   2.605  17.059  0.2119  0.8056 -0.7652
   15DOPE    HS 1826   8.152   2.519  17.025  0.8661  0.5316  0.9933
   15DOPE   O21 1827   8.146   2.725  17.024  0.1098 -0.6483  0.2425
   15DOPE   C21 1828   8.272   2.731  17.052 -0.6063  0.1787  0.1034
   15DOPE   O22 1829   8.350   2.651  17.095 -0.4375 -0.3606 -0.3310
   15DOPE   C22 1830   8.321   2.872  17.010  0.1464  0.0689  0.3416
   15DOPE   H2R 1831   8.384   2.919  17.088 -0.1410  0.7876  0.1555
   15DOPE   H2S 1832   8.231   2.937  16.995  0.6085  1.4667  2.9674
   15DOPE    C3 1833   7.954   2.592  16.991  0.1988 -0.6488 -0.4275
   15DOPE    HX 1834   7.903   2.686  17.022  2.2081  0.2617  0.3461
   15DOPE    HY 1835   7.896   2.509  17.035 -0.3305  0.1321  0.3886
   15DOPE   O31 1836   7.971   2.589  16.850 -0.0284 -0.5085 -0.0497
   15DOPE   C31 1837   8.007   2.467  16.796  0.5347  0.5752 -0.5527
   15DOPE   O32 1838   8.008   2.360  16.865 -0.6612 -0.6480 -0.2806
   15DOPE   C32 1839   8.040   2.476  16.651  0.6047  0.1697  0.4609
   15DOPE   H2X 1840   7.946   2.495  16.594  0.2666 -1.5321  0.4105
   15DOPE   H2Y 1841   8.105   2.566  16.639 -0.8724  1.1645 -0.5672
   15DOPE   C23 1842   8.396   2.866  16.872  0.1677  0.1160 -0.2734
   15DOPE   H3R 1843   8.477   2.789  16.864  0.0119 -0.0758 -0.0093
   15DOPE   H3S 1844   8.447   2.964  16.858 -1.6191  1.1245  0.0067
   15DOPE   C24 1845   8.298   2.839  16.752 -0.2187 -0.1699  0.5694
   15DOPE   H4R 1846   8.230   2.927  16.759  0.0748 -0.0304  2.1216
   15DOPE   H4S 1847   8.229   2.752  16.755 -0.0797 -0.4656 -2.3966
   15DOPE   C25 1848   8.365   2.839  16.612  0.1065  0.5330 -0.2117
   15DOPE   H5R 1849   8.445   2.761  16.611 -1.0198 -0.6905  0.7661
   15DOPE   H5S 1850   8.413   2.937  16.594  0.3977  0.8601  2.0506
   15DOPE   C26 1851   8.255   2.803  16.509 -0.5927  0.0166  0.0694
   15DOPE   H6R 1852   8.158   2.854  16.529 -0.7204 -0.3103  0.2965
   15DOPE   H6S 1853   8.230   2.696  16.525 -0.4484 -0.4715 -2.4578
   15DOPE   C27 1854   8.306   2.818  16.366  0.2305  0.2300  0.6144
   15DOPE   H7R 1855   8.401   2.764  16.349  0.0181  0.1882 -0.5826
   15DOPE   H7S 1856   8.340   2.921  16.339 -0.2413  0.5237  1.1302
   15DOPE   C28 1857   8.211   2.757  16.253  0.1760 -0.0797 -0.8446
   15DOPE   H8R 1858   8.107   2.784  16.280  0.8073 -0.2228  2.0206
   15DOPE   H8S 1859   8.228   2.647  16.254 -1.0867 -0.3468 -2.8424
   15DOPE   C29 1860   8.236   2.809  16.111  0.5473  1.0110  0.4016
   15DOPE   H9R 1861   8.174   2.889  16.068 -1.2550 -0.7216 -0.4226
   15DOPE  C210 1862   8.345   2.776  16.041  0.1597 -0.0039 -0.0390
   15DOPE  H10R 1863   8.363   2.808  15.937 -1.1117  1.4333  0.1386
   15DOPE  C211 1864   8.455   2.682  16.085  0.0343  0.2483 -0.0242
   15DOPE  H11R 1865   8.435   2.616  16.171 -1.0179 -2.6977 -2.3431
   15DOPE  H11S 1866   8.539   2.754  16.100 -0.5590  0.9671 -0.1057
   15DOPE  C212 1867   8.498   2.585  15.972 -0.2005 -0.4185  0.4235
   15DOPE  H12R 1868   8.517   2.641  15.878  1.5566  0.8579  1.4840
   15DOPE  H12S 1869   8.415   2.511  15.963  0.4461 -1.2301  0.9598
   15DOPE  C213 1870   8.625   2.503  16.000  0.8458 -0.0361 -0.8572
   15DOPE  H13R 1871   8.625   2.470  16.106 -0.9770  3.4967  0.3931
   15DOPE  H13S 1872   8.714   2.563  15.973  0.9287  0.1225 -0.2248
   15DOPE  C214 1873   8.647   2.391  15.903 -0.1354 -0.3703  0.0622
   15DOPE  H14R 1874   8.662   2.428  15.799  3.7766  0.6080  0.8006
   15DOPE  H14S 1875   8.551   2.335  15.911 -1.1564  1.2216 -0.5462
   15DOPE  C215 1876   8.776   2.311  15.941 -0.4019 -0.2891  0.3951
   15DOPE  H15R 1877   8.772   2.284  16.049 -0.3503  0.4970  0.6010
   15DOPE  H15S 1878   8.853   2.391  15.943 -1.9308  1.2323  0.9011
   15DOPE  C216 1879   8.803   2.190  15.853  0.2221  0.2893 -0.2742
   15DOPE  H16R 1880   8.732   2.105  15.866  0.8413 -0.2751 -0.5384
   15DOPE  H16S 1881   8.903   2.155  15.886  1.1753  0.0431 -3.1439
   15DOPE  C217 1882   8.822   2.210  15.703  0.3300 -0.1074 -0.6701
   15DOPE  H17R 1883   8.724   2.255  15.677 -0.1672  0.1468  1.4277
   15DOPE  H17S 1884   8.845   2.117  15.647 -0.5711 -0.5291 -0.3648
   15DOPE  C218 1885   8.921   2.313  15.659  0.2515 -0.1321  0.5174
   15DOPE  H18R 1886   9.024   2.279  15.682  0.1789 -2.0121 -1.5549
   15DOPE  H18S 1887   8.912   2.403  15.723  0.4359 -0.4684  1.0281
   15DOPE  H18T 1888   8.912   2.331  15.550 -0.4215  1.8174  0.8632
   15DOPE   C33 1889   8.119   2.353  16.592  0.8074 -0.6527  0.3086
   15DOPE   H3X 1890   8.065   2.257  16.588 -0.1351 -0.1039 -1.1808
   15DOPE   H3Y 1891   8.213   2.339  16.650  1.9910 -0.4363 -1.4835
   15DOPE   C34 1892   8.170   2.378  16.450  0.8180 -0.3996 -0.4028
   15DOPE   H4X 1893   8.084   2.386  16.380  1.2220  1.5124 -0.7302
   15DOPE   H4Y 1894   8.224   2.475  16.451 -0.6855  0.4770  0.8382
   15DOPE   C35 1895   8.259   2.272  16.380  0.6286  0.2853 -0.6361
   15DOPE   H5X 1896   8.210   2.173  16.372  0.2782  0.1481  2.0527
   15DOPE   H5Y 1897   8.350   2.266  16.443  1.1042  0.5550 -1.2879
   15DOPE   C36 1898   8.304   2.326  16.247  0.1017 -0.2504 -0.5421
   15DOPE   H6X 1899   8.378   2.257  16.202 -1.8095 -1.2539 -2.3160
   15DOPE   H6Y 1900   8.343   2.430  16.257  1.3594 -0.5345 -2.1029
   15DOPE   C37 1901   8.193   2.333  16.131 -0.6707 -0.1446  0.2059
   15DOPE   H7X 1902   8.113   2.398  16.171 -0.6511  2.4714 -3.5392
   15DOPE   H7Y 1903   8.249   2.390  16.054  0.0816  0.3320  1.0895
   15DOPE   C38 1904   8.152   2.197  16.075 -0.2669  0.1983 -0.0621
   15DOPE   H8X 1905   8.095   2.144  16.154  0.6928 -0.3040  0.3063
   15DOPE   H8Y 1906   8.239   2.131  16.052 -0.6365  0.0655 -1.1380
   15DOPE   C39 1907   8.067   2.234  15.949  0.1531  0.5639  0.0523
   15DOPE   H9X 1908   7.973   2.286  15.972 -0.0187  0.2111  0.1471
   15DOPE  C310 1909   8.101   2.216  15.822  0.1654  0.4658  0.4599
   15DOPE  H10X 1910   8.042   2.261  15.741  0.5458 -1.3279 -0.8909
   15DOPE  C311 1911   8.228   2.160  15.768  0.4571  0.1303 -0.3510
   15DOPE  H11X 1912   8.294   2.135  15.853  0.4671  0.4908 -0.2533
   15DOPE  H11Y 1913   8.204   2.073  15.703 -0.8905  1.1340 -1.2675
   15DOPE  C312 1914   8.298   2.262  15.677  0.6205  0.2307 -1.0083
   15DOPE  H12X 1915   8.314   2.352  15.740 -1.7785  0.6084 -0.8733
   15DOPE  H12Y 1916   8.228   2.284  15.593  2.4270 -0.0728 -2.6773
   15DOPE  C313 1917   8.430   2.213  15.625  0.5070 -0.0846 -0.7906
   15DOPE  H13X 1918   8.492   2.297  15.585 -0.9900  0.3134 -2.3938
   15DOPE  H13Y 1919   8.498   2.177  15.705 -0.2406 -1.0896 -0.5964
   15DOPE  C314 1920   8.408   2.117  15.511 -0.3202  0.4559  0.1469
   15DOPE  H14X 1921   8.361   2.174  15.428 -3.4897 -0.9669  0.8226
   15DOPE  H14Y 1922   8.350   2.027  15.541  2.7431 -1.4574  0.8206
   15DOPE  C315 1923   8.543   2.068  15.447 -0.0411 -0.4317 -0.2437
   15DOPE  H15X 1924   8.615   2.152  15.435  1.2157 -1.0748  2.0767
   15DOPE  H15Y 1925   8.516   2.035  15.345 -0.1330 -3.2857  0.6192
   15DOPE  C316 1926   8.609   1.954  15.527  0.0693 -0.2465  0.5680
   15DOPE  H16X 1927   8.538   1.870  15.544 -1.2425  0.4189 -1.3032
   15DOPE  H16Y 1928   8.645   1.992  15.625 -0.5711  2.0186 -0.0310
   15DOPE  C317 1929   8.741   1.900  15.450 -0.7974  0.3350 -0.0551
   15DOPE  H17X 1930   8.701   1.862  15.353 -1.2960  2.0080 -0.5409
   15DOPE  H17Y 1931   8.809   1.987  15.442  0.9200 -1.1027 -2.5465
   15DOPE  C318 1932   8.811   1.784  15.526  0.0647 -0.1174 -0.3812
   15DOPE  H18X 1933   8.835   1.805  15.632  1.4085 -2.1138 -0.2446
   15DOPE  H18Y 1934   8.745   1.695  15.515 -0.6529  0.5347 -1.6758
   15DOPE  H18Z 1935   8.909   1.766  15.477  1.6386  1.5496  1.9493
   16DOPE     N 1936   8.041   4.565  16.764 -0.2339 -0.7409  0.3403
   16DOPE   HN1 1937   7.948   4.586  16.806 -0.9629 -1.1643 -1.0307
   16DOPE   HN2 1938   8.104   4.544  16.845  2.4964 -0.2353 -1.5151
   16DOPE   HN3 1939   8.070   4.659  16.730 -2.2053  0.2967  1.3260
   16DOPE   C12 1940   8.049   4.452  16.674  0.7122  0.5106  0.2591
   16DOPE  H12A 1941   8.127   4.472  16.598 -0.8530 -0.4328 -1.6729
   16DOPE  H12B 1942   7.952   4.438  16.623  1.1032 -1.8327  0.0589
   16DOPE   C11 1943   8.063   4.316  16.744 -0.5309 -0.3684 -0.6778
   16DOPE  H11A 1944   8.165   4.314  16.788 -0.3283 -0.2879 -1.1346
   16DOPE  H11B 1945   8.056   4.245  16.659  0.5065  0.1934 -1.2430
   16DOPE     P 1946   7.981   4.247  16.980 -0.4482  0.3923  0.2758
   16DOPE   O13 1947   7.855   4.259  17.057 -0.2512 -0.0505 -0.4445
   16DOPE   O14 1948   8.108   4.306  17.033  0.0274 -0.4325  0.0472
   16DOPE   O11 1949   8.019   4.091  16.965 -0.5530 -0.0626  0.6504
   16DOPE   O12 1950   7.956   4.300  16.831 -0.3698 -0.3683 -0.1023
   16DOPE    C1 1951   7.929   3.983  16.950  0.2304 -0.4270 -0.3730
   16DOPE    HA 1952   7.823   3.999  16.979 -0.2149 -1.9604 -1.1117
   16DOPE    HB 1953   7.960   3.900  17.017  0.2186  0.9440  1.4311
   16DOPE    C2 1954   7.934   3.934  16.804 -0.3545  0.6269 -0.2964
   16DOPE    HS 1955   7.884   3.836  16.807  1.5990 -0.4328 -0.5973
   16DOPE   O21 1956   8.070   3.928  16.749 -0.2861 -0.5422  0.0125
   16DOPE   C21 1957   8.138   3.827  16.804 -0.3585 -0.2692 -0.6904
   16DOPE   O22 1958   8.097   3.753  16.894  0.2105  0.3531 -0.2541
   16DOPE   C22 1959   8.275   3.826  16.744  0.4787  0.4357 -0.6036
   16DOPE   H2R 1960   8.339   3.769  16.814 -0.9530 -1.6416 -0.9047
   16DOPE   H2S 1961   8.315   3.930  16.747 -0.6854  0.8857  1.0866
   16DOPE    C3 1962   7.845   4.012  16.707  0.4029  0.0363 -0.2690
   16DOPE    HX 1963   7.878   4.116  16.725  1.0706 -0.2116 -0.0478
   16DOPE    HY 1964   7.743   4.008  16.753  1.9521 -1.0853  3.4586
   16DOPE   O31 1965   7.855   3.967  16.575  0.3611  0.8492  0.1073
   16DOPE   C31 1966   7.832   4.055  16.477 -0.4783  0.5916  0.2966
   16DOPE   O32 1967   7.808   4.173  16.500  0.4480  0.3093  0.1277
   16DOPE   C32 1968   7.833   3.992  16.335  0.0701 -0.3405 -0.3621
   16DOPE   H2X 1969   7.888   4.069  16.278 -1.0023  1.0577  0.4283
   16DOPE   H2Y 1970   7.896   3.901  16.340  0.9503  0.3005  0.5854
   16DOPE   C23 1971   8.273   3.747  16.618 -0.1537 -0.1518 -0.0164
   16DOPE   H3R 1972   8.248   3.640  16.635  0.6703 -0.3779 -0.2120
   16DOPE   H3S 1973   8.375   3.741  16.575 -0.7525 -0.7516 -1.4143
   16DOPE   C24 1974   8.189   3.798  16.497  0.5896  0.7287 -0.0215
   16DOPE   H4R 1975   8.181   3.909  16.497  2.9062  0.9504  0.9547
   16DOPE   H4S 1976   8.091   3.752  16.521  0.8029  1.1362  1.7692
   16DOPE   C25 1977   8.241   3.757  16.359  0.6534 -0.6824 -0.2066
   16DOPE   H5R 1978   8.236   3.646  16.360 -0.8455 -0.6382  0.2231
   16DOPE   H5S 1979   8.343   3.793  16.335 -0.3097  2.7185  0.2144
   16DOPE   C26 1980   8.161   3.791  16.230  0.1195  0.4655 -0.3299
   16DOPE   H6R 1981   8.162   3.902  16.220  1.5220  0.2848 -3.1878
   16DOPE   H6S 1982   8.059   3.751  16.251  0.9768 -1.9782 -0.4767
   16DOPE   C27 1983   8.228   3.719  16.117  0.4696  0.2993  0.3950
   16DOPE   H7R 1984   8.226   3.611  16.142  0.5738 -0.0010 -0.8210
   16DOPE   H7S 1985   8.334   3.749  16.134  0.3011  1.0188  0.2121
   16DOPE   C28 1986   8.156   3.735  15.982  0.1107 -0.2735  0.2543
   16DOPE   H8R 1987   8.226   3.713  15.899 -2.0115 -3.8827 -0.8173
   16DOPE   H8S 1988   8.139   3.844  15.973  1.4681  0.1103  1.8896
   16DOPE   C29 1989   8.027   3.662  15.958 -0.4895 -0.3268  0.3005
   16DOPE   H9R 1990   7.941   3.707  16.008 -2.2032 -3.2442  0.2253
   16DOPE  C210 1991   8.006   3.556  15.878 -0.1585  0.0265  0.3508
   16DOPE  H10R 1992   7.908   3.516  15.848  1.0102 -2.9423  0.1403
   16DOPE  C211 1993   8.115   3.485  15.801  0.7619 -0.3661 -0.6359
   16DOPE  H11R 1994   8.097   3.376  15.802 -2.6268  0.0622 -1.9816
   16DOPE  H11S 1995   8.211   3.508  15.851 -0.8848 -0.0975  2.6970
   16DOPE  C212 1996   8.135   3.527  15.657 -0.1100  0.3599 -0.2778
   16DOPE  H12R 1997   8.221   3.476  15.609 -0.9001 -0.2862 -1.0324
   16DOPE  H12S 1998   8.162   3.635  15.664  0.7367  0.0303  2.5480
   16DOPE  C213 1999   8.013   3.516  15.565 -0.3617 -0.3302 -0.7069
   16DOPE  H13R 2000   7.934   3.584  15.604  1.8584  2.6310 -1.0015
   16DOPE  H13S 2001   7.971   3.415  15.579 -2.8126  0.8564  1.3432
   16DOPE  C214 2002   8.038   3.536  15.414  0.7619 -1.1594  0.4415
   16DOPE  H14R 2003   8.109   3.458  15.383 -1.5140 -3.5489  0.8631
   16DOPE  H14S 2004   8.083   3.637  15.399  1.2079 -1.5633 -1.1269
   16DOPE  C215 2005   7.920   3.509  15.333  0.2326  0.2470  0.8728
   16DOPE  H15R 2006   7.837   3.573  15.370 -0.0750  0.7790 -0.6491
   16DOPE  H15S 2007   7.887   3.405  15.350  0.7247 -0.2178 -0.7803
   16DOPE  C216 2008   7.942   3.533  15.184  0.6415  0.1795  0.2398
   16DOPE  H16R 2009   7.982   3.442  15.135 -0.0825  0.0044 -0.0384
   16DOPE  H16S 2010   8.017   3.613  15.167 -0.0850  2.5681  5.9011
   16DOPE  C217 2011   7.802   3.553  15.120 -0.2832 -0.1195  1.1192
   16DOPE  H17R 2012   7.743   3.634  15.168 -0.1510  0.1797  0.7867
   16DOPE  H17S 2013   7.743   3.459  15.127 -0.7135 -0.0438 -0.8856
   16DOPE  C218 2014   7.804   3.592  14.963 -0.8264 -0.8697 -0.8078
   16DOPE  H18R 2015   7.876   3.672  14.938 -0.9632 -0.7980 -0.9782
   16DOPE  H18S 2016   7.701   3.611  14.924 -1.1150 -0.9807 -0.1246
   16DOPE  H18T 2017   7.860   3.511  14.912  2.2643  1.2900 -1.0562
   16DOPE   C33 2018   7.688   3.972  16.274  0.0799 -0.5853 -0.6369
   16DOPE   H3X 2019   7.644   4.073  16.274  4.1501  1.4655 -2.8933
   16DOPE   H3Y 2020   7.640   3.908  16.351 -1.7172  2.0781  0.5873
   16DOPE   C34 2021   7.687   3.921  16.131 -0.5953 -0.2292 -0.4120
   16DOPE   H4X 2022   7.740   3.824  16.115  2.7473  1.4284 -0.1150
   16DOPE   H4Y 2023   7.581   3.907  16.102 -0.3279  0.7870 -1.9718
   16DOPE   C35 2024   7.763   4.009  16.027  0.3633  0.0704 -0.5915
   16DOPE   H5X 2025   7.871   3.988  16.042  0.2468 -1.2005 -1.3358
   16DOPE   H5Y 2026   7.748   4.117  16.045 -1.2622 -0.1277 -0.5822
   16DOPE   C36 2027   7.716   4.005  15.888  0.1564  0.1030  0.0326
   16DOPE   H6X 2028   7.616   4.050  15.877 -0.1377 -0.0929  1.7038
   16DOPE   H6Y 2029   7.700   3.901  15.851 -0.0055  0.2495 -0.3183
   16DOPE   C37 2030   7.804   4.080  15.788  0.1266  0.7110  0.6446
   16DOPE   H7X 2031   7.899   4.025  15.771  0.1781  1.1126 -0.4773
   16DOPE   H7Y 2032   7.735   4.077  15.701  0.3287  2.0327  0.4158
   16DOPE   C38 2033   7.828   4.227  15.816 -0.0300  0.3769 -0.0931
   16DOPE   H8X 2034   7.879   4.241  15.913  1.5131 -0.6437 -0.7106
   16DOPE   H8Y 2035   7.727   4.275  15.814 -0.8885 -1.3504 -1.3198
   16DOPE   C39 2036   7.920   4.286  15.707 -0.7112 -0.0528  0.8540
   16DOPE   H9X 2037   8.023   4.312  15.737 -0.2365  0.1242 -0.7756
   16DOPE  C310 2038   7.891   4.323  15.579 -0.1709 -0.1247 -0.0110
   16DOPE  H10X 2039   7.967   4.374  15.519 -2.6763  2.8563 -0.9695
   16DOPE  C311 2040   7.760   4.298  15.514  0.7275  0.2776 -0.4963
   16DOPE  H11X 2041   7.777   4.214  15.443  2.5270  0.2045 -0.0276
   16DOPE  H11Y 2042   7.676   4.278  15.583  2.0393  2.6572  2.0119
   16DOPE  C312 2043   7.720   4.419  15.415 -0.5454  0.4057 -0.2084
   16DOPE  H12X 2044   7.719   4.516  15.469  0.2248  1.6145 -2.2504
   16DOPE  H12Y 2045   7.616   4.394  15.385 -0.8135  1.3368 -0.0773
   16DOPE  C313 2046   7.818   4.443  15.298 -0.0768 -0.3898 -0.5945
   16DOPE  H13X 2047   7.922   4.457  15.336 -1.0183  0.2771  1.9621
   16DOPE  H13Y 2048   7.827   4.355  15.232  1.3752 -1.3184  0.7762
   16DOPE  C314 2049   7.792   4.574  15.220 -0.0193 -0.3796 -0.0508
   16DOPE  H14X 2050   7.887   4.606  15.172 -0.4563 -0.2005 -0.8276
   16DOPE  H14Y 2051   7.777   4.654  15.295  2.6995 -1.6400  1.9938
   16DOPE  C315 2052   7.678   4.554  15.116 -0.1013  0.0193 -0.4793
   16DOPE  H15X 2053   7.585   4.521  15.168 -0.2932  1.2223 -0.0376
   16DOPE  H15Y 2054   7.710   4.469  15.050  1.4525  0.3322 -0.1582
   16DOPE  C316 2055   7.657   4.675  15.021  0.0283 -0.6229  0.0892
   16DOPE  H16X 2056   7.752   4.697  14.969 -0.7799  0.3507 -1.0474
   16DOPE  H16Y 2057   7.629   4.766  15.079 -0.2601 -0.6664  0.0231
   16DOPE  C317 2058   7.561   4.653  14.900 -0.1757 -0.0272  0.0112
   16DOPE  H17X 2059   7.578   4.556  14.849  0.8353  0.6848 -1.0440
   16DOPE  H17Y 2060   7.457   4.651  14.940 -0.7999  1.4153 -1.4148
   16DOPE  C318 2061   7.561   4.758  14.791 -0.4117  0.6985  0.0833
   16DOPE  H18X 2062   7.656   4.757  14.734 -1.1580  0.1545 -1.1832
   16DOPE  H18Y 2063   7.476   4.742  14.722 -1.5310  2.3291  1.0037
   16DOPE  H18Z 2064   7.557   4.860  14.834 -2.0822  1.1554 -1.0664
   17DOPE     N 2065   1.956   8.197  17.072  0.0596 -0.4067 -0.6051
   17DOPE   HN1 2066   1.856   8.197  17.043  0.6034  0.3810 -2.6877
   17DOPE   HN2 2067   2.013   8.110  17.069 -0.3858 -0.6836 -1.4241
   17DOPE   HN3 2068   1.958   8.218  17.174 -0.6759 -0.7008 -0.5261
   17DOPE   C12 2069   2.032   8.307  17.007  0.0595  0.7641 -0.4086
   17DOPE  H12A 2070   2.129   8.314  17.061  0.3447 -1.1150 -0.6350
   17DOPE  H12B 2071   1.984   8.407  17.014  0.7201  1.1002 -0.5788
   17DOPE   C11 2072   2.045   8.281  16.860 -0.2695  0.3069  0.2095
   17DOPE  H11A 2073   2.107   8.365  16.822 -1.2680  1.0269  0.1120
   17DOPE  H11B 2074   1.950   8.302  16.805  0.4358  2.7935 -0.1850
   17DOPE     P 2075   2.016   8.042  16.757 -0.0152 -0.2213  0.0785
   17DOPE   O13 2076   1.881   8.026  16.823 -0.0493 -0.2254 -0.2159
   17DOPE   O14 2077   2.092   7.920  16.740 -0.4074 -0.0458  0.2351
   17DOPE   O11 2078   2.000   8.119  16.624  0.8301 -0.7525 -0.3232
   17DOPE   O12 2079   2.098   8.151  16.836 -0.2363  0.1042 -0.3170
   17DOPE    C1 2080   2.019   8.073  16.488 -0.0534 -0.0727 -0.1239
   17DOPE    HA 2081   2.089   7.986  16.487 -1.4356 -1.2304 -1.7578
   17DOPE    HB 2082   2.067   8.154  16.429  0.2490 -1.6717 -2.2047
   17DOPE    C2 2083   1.893   8.024  16.411  1.1197 -0.3095  1.1879
   17DOPE    HS 2084   1.885   7.915  16.432 -2.0843 -0.2822  0.6336
   17DOPE   O21 2085   1.902   8.048  16.277 -0.4845 -0.2577  0.0638
   17DOPE   C21 2086   1.942   7.948  16.193  0.1311 -0.5837 -0.3095
   17DOPE   O22 2087   1.980   7.842  16.235  0.0545  0.1404  0.3443
   17DOPE   C22 2088   1.916   7.997  16.050 -0.6763 -0.0281 -0.0454
   17DOPE   H2R 2089   1.982   7.942  15.980  0.4552  1.7755 -0.4692
   17DOPE   H2S 2090   1.954   8.100  16.030 -3.0159  0.5883 -1.7668
   17DOPE    C3 2091   1.767   8.099  16.469 -0.7562 -0.4296  0.3997
   17DOPE    HX 2092   1.807   8.201  16.451  2.6240 -1.7496 -0.1359
   17DOPE    HY 2093   1.758   8.091  16.580 -0.5466 -3.2576  0.2919
   17DOPE   O31 2094   1.645   8.073  16.398 -0.3177  0.6164 -0.1291
   17DOPE   C31 2095   1.602   7.948  16.402  0.2810  0.3946  0.1610
   17DOPE   O32 2096   1.653   7.859  16.469  0.3228  0.3292 -0.0893
   17DOPE   C32 2097   1.475   7.940  16.311  0.3041 -0.5071 -0.2895
   17DOPE   H2X 2098   1.405   8.024  16.334  0.6809 -0.6360  1.5207
   17DOPE   H2Y 2099   1.505   7.943  16.204  1.3127 -0.7476 -0.0214
   17DOPE   C23 2100   1.773   8.014  16.010 -0.0367  0.2308  0.1233
   17DOPE   H3R 2101   1.771   8.052  15.905 -0.5067  1.7717  0.6579
   17DOPE   H3S 2102   1.715   8.083  16.074  0.3334  0.0913  0.6101
   17DOPE   C24 2103   1.697   7.878  16.001 -0.3512  0.3666  0.2266
   17DOPE   H4R 2104   1.588   7.895  15.996 -0.3253  1.7374  2.6894
   17DOPE   H4S 2105   1.727   7.822  16.092 -0.3531  0.2403  0.1501
   17DOPE   C25 2106   1.734   7.791  15.875 -0.2686  0.2947 -0.0544
   17DOPE   H5R 2107   1.844   7.784  15.868 -0.2674 -1.3651  0.9559
   17DOPE   H5S 2108   1.701   7.854  15.790 -0.0350  0.0845 -0.3021
   17DOPE   C26 2109   1.663   7.649  15.874 -1.4319 -0.2700 -0.0158
   17DOPE   H6R 2110   1.688   7.602  15.776  1.2656 -0.5068  0.7130
   17DOPE   H6S 2111   1.553   7.667  15.870 -1.5806 -1.2521 -0.5877
   17DOPE   C27 2112   1.702   7.565  16.000 -0.4069  0.5154 -0.1848
   17DOPE   H7R 2113   1.609   7.554  16.060  1.1817  0.2944  2.3873
   17DOPE   H7S 2114   1.775   7.614  16.068  0.0919  0.2592 -0.5314
   17DOPE   C28 2115   1.769   7.429  15.960 -0.1833  0.4856 -0.1603
   17DOPE   H8R 2116   1.816   7.451  15.862  2.9744  1.5530  1.4738
   17DOPE   H8S 2117   1.686   7.360  15.933 -0.4309  0.6090  0.2709
   17DOPE   C29 2118   1.870   7.365  16.054  0.2777 -0.0159  0.6150
   17DOPE   H9R 2119   1.917   7.435  16.125  1.7288 -0.0962 -0.2368
   17DOPE  C210 2120   1.918   7.238  16.045  0.0250  0.1571  0.4610
   17DOPE  H10R 2121   1.985   7.195  16.121 -0.6272 -2.0012 -0.1092
   17DOPE  C211 2122   1.881   7.144  15.934 -0.0219 -0.3183  0.2360
   17DOPE  H11R 2123   1.878   7.200  15.838  0.7688 -1.9381 -0.8006
   17DOPE  H11S 2124   1.778   7.105  15.948 -0.5113  0.1330 -1.7908
   17DOPE  C212 2125   1.975   7.031  15.920 -0.1460 -0.0123 -0.7058
   17DOPE  H12R 2126   1.939   6.964  15.838 -0.4863  0.4870 -0.9679
   17DOPE  H12S 2127   1.975   6.979  16.018  1.0469  1.5410  0.1587
   17DOPE  C213 2128   2.126   7.073  15.885  0.0737 -0.9445 -0.0844
   17DOPE  H13R 2129   2.148   7.124  15.981 -0.8287 -3.3356  1.4933
   17DOPE  H13S 2130   2.135   7.146  15.801  0.2173 -0.8110  0.0455
   17DOPE  C214 2131   2.221   6.961  15.869 -0.8466  0.8262  0.2744
   17DOPE  H14R 2132   2.172   6.867  15.902  1.5468 -1.5028 -2.1808
   17DOPE  H14S 2133   2.307   6.976  15.937  1.6515  0.2430 -2.5184
   17DOPE  C215 2134   2.256   6.930  15.719  0.2237 -0.1703  0.0285
   17DOPE  H15R 2135   2.283   7.022  15.663  2.0710 -0.5221  0.3011
   17DOPE  H15S 2136   2.168   6.892  15.661  0.1001  0.7653 -0.4130
   17DOPE  C216 2137   2.368   6.832  15.711 -0.3277  0.7882  0.2657
   17DOPE  H16R 2138   2.344   6.734  15.755  0.4992  0.1772 -0.5930
   17DOPE  H16S 2139   2.457   6.870  15.766 -0.4942  3.2341 -0.9846
   17DOPE  C217 2140   2.420   6.819  15.570 -0.3955  0.0841 -0.8671
   17DOPE  H17R 2141   2.413   6.922  15.529 -0.7317 -0.2879 -1.7928
   17DOPE  H17S 2142   2.347   6.756  15.514 -1.5229  1.2343 -0.7536
   17DOPE  C218 2143   2.557   6.757  15.555  0.0207  0.8295  0.8755
   17DOPE  H18R 2144   2.641   6.825  15.580  1.1488 -0.8809  1.9449
   17DOPE  H18S 2145   2.569   6.718  15.452 -0.2801  1.5134  0.5774
   17DOPE  H18T 2146   2.553   6.662  15.613  0.8968 -0.8353 -1.5937
   17DOPE   C33 2147   1.394   7.808  16.327 -0.7213 -0.3096  0.1448
   17DOPE   H3X 2148   1.370   7.784  16.433 -1.1296  2.7617  0.8309
   17DOPE   H3Y 2149   1.454   7.720  16.294 -3.2884 -1.8407 -0.7903
   17DOPE   C34 2150   1.268   7.824  16.246 -0.4842  0.4400  0.3610
   17DOPE   H4X 2151   1.213   7.728  16.246  0.1890  0.0493  1.2948
   17DOPE   H4Y 2152   1.207   7.912  16.277 -1.6076  0.0009 -0.5349
   17DOPE   C35 2153   1.294   7.846  16.093 -0.5658  0.5785 -0.3577
   17DOPE   H5X 2154   1.388   7.796  16.060 -0.0467  0.9110  0.5625
   17DOPE   H5Y 2155   1.300   7.953  16.062 -3.2871  0.3026 -2.1198
   17DOPE   C36 2156   1.184   7.787  16.010  0.2114 -0.0573  0.9507
   17DOPE   H6X 2157   1.088   7.830  16.046  0.2823  1.3011 -0.3813
   17DOPE   H6Y 2158   1.170   7.680  16.035  1.1709 -0.5679 -0.5677
   17DOPE   C37 2159   1.201   7.805  15.862  0.2490 -0.3330 -0.3569
   17DOPE   H7X 2160   1.212   7.912  15.837  2.2008  0.2132  2.3791
   17DOPE   H7Y 2161   1.292   7.758  15.821  0.6696 -1.1209  1.3740
   17DOPE   C38 2162   1.087   7.741  15.775 -0.1311  0.4315  0.1275
   17DOPE   H8X 2163   0.991   7.790  15.801 -0.1528  0.0167  0.8838
   17DOPE   H8Y 2164   1.069   7.637  15.811  0.3210  0.3371  0.0930
   17DOPE   C39 2165   1.125   7.747  15.632  0.7764  0.7000  0.6885
   17DOPE   H9X 2166   1.195   7.824  15.595  0.0880 -0.1491 -2.8034
   17DOPE  C310 2167   1.064   7.672  15.542  0.3174 -0.0597  0.0988
   17DOPE  H10X 2168   1.101   7.675  15.438  0.8153  3.4909  0.2570
   17DOPE  C311 2169   0.963   7.568  15.575  0.2557  0.2500  0.0416
   17DOPE  H11X 2170   0.909   7.591  15.669 -1.4862  0.1178 -0.8842
   17DOPE  H11Y 2171   0.886   7.554  15.497 -1.2452  1.6148  1.2114
   17DOPE  C312 2172   1.024   7.429  15.599  0.0267  0.5841 -0.1975
   17DOPE  H12X 2173   1.100   7.435  15.680  0.0268 -0.0300 -0.1462
   17DOPE  H12Y 2174   1.080   7.403  15.507  0.3863  2.1244 -0.4290
   17DOPE  C313 2175   0.910   7.333  15.636 -0.3306  0.2016 -0.4489
   17DOPE  H13X 2176   0.847   7.377  15.717  1.6122  1.6158  0.3676
   17DOPE  H13Y 2177   0.839   7.316  15.553  2.1021 -2.4696 -2.1823
   17DOPE  C314 2178   0.971   7.196  15.679  1.0065 -0.1421  0.7540
   17DOPE  H14X 2179   1.030   7.215  15.772 -0.8812  0.5058  1.8768
   17DOPE  H14Y 2180   1.022   7.145  15.594  0.1763 -1.5497  1.0590
   17DOPE  C315 2181   0.850   7.102  15.719 -0.1853 -0.7447  0.8864
   17DOPE  H15X 2182   0.789   7.085  15.628 -0.5505 -1.3006  1.2259
   17DOPE  H15Y 2183   0.795   7.153  15.801  0.7486 -0.1686  1.1656
   17DOPE  C316 2184   0.898   6.968  15.773  0.6661  0.7006 -0.2645
   17DOPE  H16X 2185   0.962   6.980  15.863  0.5219  0.5414 -0.1408
   17DOPE  H16Y 2186   0.967   6.919  15.700  0.8099 -0.4083  0.5813
   17DOPE  C317 2187   0.780   6.873  15.804  0.3016  0.1524  0.7727
   17DOPE  H17X 2188   0.716   6.888  15.893  0.4319  0.7370  0.7723
   17DOPE  H17Y 2189   0.714   6.887  15.716  2.3057  1.6443 -0.5875
   17DOPE  C318 2190   0.821   6.725  15.808  0.5188  0.0645  1.1127
   17DOPE  H18X 2191   0.846   6.684  15.707 -1.2897 -0.0934  0.7085
   17DOPE  H18Y 2192   0.913   6.704  15.867  0.6847 -0.6372  0.6249
   17DOPE  H18Z 2193   0.737   6.666  15.849 -0.0483  0.1349  0.1007
   18DOPE     N 2194   6.979   5.117  16.686  0.0427  0.6874 -0.0027
   18DOPE   HN1 2195   6.999   5.199  16.626  0.3250  0.8282  0.2782
   18DOPE   HN2 2196   6.876   5.114  16.696 -0.0004  1.8544  0.0662
   18DOPE   HN3 2197   7.031   5.124  16.776  0.6527  3.2813 -0.4701
   18DOPE   C12 2198   7.038   4.993  16.623 -0.3977 -0.8888 -0.1206
   18DOPE  H12A 2199   6.971   4.954  16.543  0.4544  0.7232 -1.6977
   18DOPE  H12B 2200   7.034   4.916  16.703 -1.2918 -1.2498 -0.5006
   18DOPE   C11 2201   7.182   5.013  16.569 -0.5389 -0.3598 -1.0606
   18DOPE  H11A 2202   7.181   5.098  16.498  0.5868  0.8311  0.2832
   18DOPE  H11B 2203   7.214   4.932  16.499  0.8369 -1.2474  0.5117
   18DOPE     P 2204   7.354   4.926  16.760 -0.3806 -0.4916  0.1427
   18DOPE   O13 2205   7.349   4.963  16.901 -0.0781 -0.0865 -0.3484
   18DOPE   O14 2206   7.487   4.918  16.702 -0.2837 -0.2027  0.6743
   18DOPE   O11 2207   7.275   4.794  16.725 -0.3407 -0.1830 -0.8261
   18DOPE   O12 2208   7.278   5.037  16.675  0.1240  0.1052  0.2502
   18DOPE    C1 2209   7.336   4.661  16.743 -0.4179 -0.3967  0.0390
   18DOPE    HA 2210   7.284   4.607  16.825 -0.6390  2.7431  2.1869
   18DOPE    HB 2211   7.445   4.671  16.762 -0.1949  0.4136 -1.4899
   18DOPE    C2 2212   7.313   4.590  16.609 -0.3634  0.1154  0.3676
   18DOPE    HS 2213   7.368   4.494  16.605 -2.2851 -1.0085 -0.2490
   18DOPE   O21 2214   7.344   4.675  16.490  0.3067  0.9243 -0.1148
   18DOPE   C21 2215   7.470   4.686  16.464 -0.8438  0.2327  0.0426
   18DOPE   O22 2216   7.559   4.618  16.520  0.6191  0.5375 -0.6585
   18DOPE   C22 2217   7.502   4.792  16.369 -0.0941 -0.0701 -0.0929
   18DOPE   H2R 2218   7.611   4.813  16.359  0.4358 -1.6117  1.7912
   18DOPE   H2S 2219   7.467   4.889  16.411 -0.0877  0.1791 -0.6533
   18DOPE    C3 2220   7.164   4.557  16.584  0.0478  0.3386 -0.1015
   18DOPE    HX 2221   7.121   4.657  16.607  1.5588  0.9661  0.1004
   18DOPE    HY 2222   7.131   4.480  16.657  1.8179 -0.4772 -0.1149
   18DOPE   O31 2223   7.143   4.507  16.449 -0.3380 -0.5122  0.3889
   18DOPE   C31 2224   7.063   4.575  16.365  0.1442  0.1888  0.7030
   18DOPE   O32 2225   7.002   4.674  16.398  0.5586 -0.1702 -0.3433
   18DOPE   C32 2226   7.078   4.525  16.222 -0.7844  0.4700  0.5157
   18DOPE   H2X 2227   7.182   4.558  16.200 -1.6170  3.6671  0.9149
   18DOPE   H2Y 2228   7.067   4.415  16.228 -1.6943  0.4763 -0.7663
   18DOPE   C23 2229   7.453   4.761  16.222 -0.5226  0.1066 -0.5504
   18DOPE   H3R 2230   7.357   4.706  16.218  0.0043 -0.7903 -1.3528
   18DOPE   H3S 2231   7.521   4.690  16.169  0.6572  1.1308 -0.4648
   18DOPE   C24 2232   7.437   4.888  16.145  0.0640  0.2870  0.5584
   18DOPE   H4R 2233   7.530   4.949  16.136  0.0870  0.3164  0.9841
   18DOPE   H4S 2234   7.366   4.954  16.199  0.6124 -0.1738  1.8845
   18DOPE   C25 2235   7.381   4.867  15.994 -0.1223  1.0602  0.1440
   18DOPE   H5R 2236   7.283   4.816  15.982  1.7860 -2.6517 -1.2261
   18DOPE   H5S 2237   7.452   4.802  15.940 -2.4183 -0.7009 -0.9291
   18DOPE   C26 2238   7.375   5.002  15.926 -0.5272 -0.1824 -0.0272
   18DOPE   H6R 2239   7.471   5.053  15.948 -2.1019  2.0920  2.2071
   18DOPE   H6S 2240   7.298   5.060  15.981 -0.2221  0.4746 -0.2919
   18DOPE   C27 2241   7.359   5.012  15.777  0.2624  0.1317 -0.8937
   18DOPE   H7R 2242   7.269   4.949  15.759 -1.5129  2.2335  0.0727
   18DOPE   H7S 2243   7.448   4.968  15.728  0.4567 -1.1627  0.5361
   18DOPE   C28 2244   7.341   5.153  15.723  0.3099  0.0745  0.3462
   18DOPE   H8R 2245   7.354   5.154  15.613  1.4269 -1.0050  0.4408
   18DOPE   H8S 2246   7.421   5.218  15.764  0.2310 -0.1499  0.8771
   18DOPE   C29 2247   7.211   5.211  15.777 -0.1275 -0.5428  0.6720
   18DOPE   H9R 2248   7.220   5.242  15.883  2.3911  1.4137 -0.0160
   18DOPE  C210 2249   7.093   5.221  15.712  0.7619 -0.0030 -0.9822
   18DOPE  H10R 2250   7.004   5.243  15.772  0.0335 -1.7921 -1.3254
   18DOPE  C211 2251   7.057   5.169  15.577 -0.3502  0.4863  0.0017
   18DOPE  H11R 2252   6.950   5.181  15.549 -0.0841 -0.3279 -1.4770
   18DOPE  H11S 2253   7.089   5.063  15.574  0.4280  0.7187 -0.1094
   18DOPE  C212 2254   7.125   5.238  15.454  0.5510  0.2952 -0.4925
   18DOPE  H12R 2255   7.086   5.197  15.359 -0.8337  0.8882 -0.1939
   18DOPE  H12S 2256   7.236   5.242  15.466  0.2455  1.1980  3.3226
   18DOPE  C213 2257   7.091   5.388  15.449 -0.3259  0.1057  0.6361
   18DOPE  H13R 2258   7.179   5.443  15.486  0.9582 -0.1240 -1.8706
   18DOPE  H13S 2259   6.999   5.414  15.507 -1.3417 -0.6164 -0.5854
   18DOPE  C214 2260   7.062   5.428  15.300 -0.2605 -0.0333  0.3233
   18DOPE  H14R 2261   7.038   5.536  15.304 -3.8027 -0.7034  0.3451
   18DOPE  H14S 2262   6.971   5.383  15.255  0.2569 -2.7311  1.7537
   18DOPE  C215 2263   7.177   5.395  15.203 -0.4039  0.5815  0.4840
   18DOPE  H15R 2264   7.191   5.285  15.197  3.2459  0.6195  4.1268
   18DOPE  H15S 2265   7.278   5.431  15.233  0.1367 -0.3288 -0.1967
   18DOPE  C216 2266   7.170   5.466  15.062 -0.8421 -0.2424 -0.1336
   18DOPE  H16R 2267   7.269   5.456  15.012  0.0286 -1.7402  1.7488
   18DOPE  H16S 2268   7.164   5.575  15.083  0.4490  0.3554 -2.4817
   18DOPE  C217 2269   7.060   5.419  14.968 -0.0531  0.0629 -0.3573
   18DOPE  H17R 2270   6.963   5.428  15.021 -1.5610  0.6585 -3.0406
   18DOPE  H17S 2271   7.077   5.312  14.941 -1.1015 -0.1669 -0.1305
   18DOPE  C218 2272   7.068   5.496  14.835 -0.5766  0.1605 -0.2491
   18DOPE  H18R 2273   7.070   5.605  14.854 -0.5446  0.4632 -1.8418
   18DOPE  H18S 2274   6.986   5.456  14.771 -1.3052  2.4591 -0.8351
   18DOPE  H18T 2275   7.166   5.474  14.787  0.0334  0.4222  0.8552
   18DOPE   C33 2276   6.977   4.589  16.126  0.3666 -0.3529  0.0923
   18DOPE   H3X 2277   7.001   4.697  16.121  0.9735 -0.3696  1.9527
   18DOPE   H3Y 2278   6.871   4.582  16.158  0.4521 -2.7985  0.0653
   18DOPE   C34 2279   6.990   4.527  15.984 -0.7031 -0.4315 -0.0264
   18DOPE   H4X 2280   6.943   4.593  15.908 -0.5118  0.0129  0.2350
   18DOPE   H4Y 2281   7.097   4.519  15.956 -1.0846  1.4316 -2.2960
   18DOPE   C35 2282   6.921   4.385  15.976  0.0842  0.4718  0.5134
   18DOPE   H5X 2283   6.813   4.402  15.993 -0.3370 -0.1061 -1.3964
   18DOPE   H5Y 2284   6.961   4.320  16.057  1.2075  0.2153 -0.2205
   18DOPE   C36 2285   6.934   4.326  15.835  0.6120 -0.2202  0.7644
   18DOPE   H6X 2286   7.043   4.312  15.823  0.8619  1.5357  0.7479
   18DOPE   H6Y 2287   6.899   4.398  15.758  0.9585 -0.0608  0.7580
   18DOPE   C37 2288   6.858   4.188  15.825  0.2635 -0.6642 -0.5081
   18DOPE   H7X 2289   6.916   4.125  15.896 -1.3519 -0.5250  1.0000
   18DOPE   H7Y 2290   6.752   4.211  15.850  0.5703  1.4046 -0.9207
   18DOPE   C38 2291   6.872   4.118  15.689  0.3974  0.2644 -0.3912
   18DOPE   H8X 2292   6.944   4.034  15.703  0.5646  0.3364 -0.8098
   18DOPE   H8Y 2293   6.918   4.180  15.609  0.4009 -0.8936 -1.3240
   18DOPE   C39 2294   6.742   4.051  15.633  0.4376 -0.2383  0.0518
   18DOPE   H9X 2295   6.703   4.103  15.544  2.8941 -1.2025 -1.6997
   18DOPE  C310 2296   6.703   3.928  15.681 -0.0001 -0.5340 -0.5905
   18DOPE  H10X 2297   6.610   3.885  15.640 -0.2039 -0.6404 -0.0179
   18DOPE  C311 2298   6.757   3.850  15.793  0.1245 -0.4604  0.1155
   18DOPE  H11X 2299   6.805   3.919  15.866 -0.3863 -0.1745  0.1842
   18DOPE  H11Y 2300   6.668   3.818  15.852 -0.4650 -0.4920 -0.7725
   18DOPE  C312 2301   6.841   3.738  15.751 -0.2981  0.9305 -0.2754
   18DOPE  H12X 2302   6.891   3.712  15.847 -2.3590 -0.7326  0.4326
   18DOPE  H12Y 2303   6.909   3.768  15.670 -0.2033  0.3742 -0.4096
   18DOPE  C313 2304   6.771   3.607  15.703  0.0990  0.5798 -0.6066
   18DOPE  H13X 2305   6.667   3.590  15.737  0.8131 -2.4607  0.3187
   18DOPE  H13Y 2306   6.750   3.608  15.594 -2.3042  0.0481 -0.1961
   18DOPE  C314 2307   6.844   3.474  15.735  0.0193 -0.5827 -0.1230
   18DOPE  H14X 2308   6.787   3.394  15.684 -0.4093  1.1074 -2.4601
   18DOPE  H14Y 2309   6.847   3.456  15.844 -0.4274  1.7941  0.3566
   18DOPE  C315 2310   6.991   3.475  15.684 -0.7938  0.3708  0.1233
   18DOPE  H15X 2311   7.043   3.550  15.748 -1.7962  0.5510  0.7588
   18DOPE  H15Y 2312   6.981   3.507  15.578 -0.9678 -2.9404 -0.9548
   18DOPE  C316 2313   7.069   3.346  15.703  0.5764  0.0135  0.5658
   18DOPE  H16X 2314   7.024   3.258  15.652  0.9482  1.3434 -2.2928
   18DOPE  H16Y 2315   7.087   3.319  15.809  1.2571 -2.1277 -0.0456
   18DOPE  C317 2316   7.204   3.351  15.630 -0.5296 -0.4970 -0.3320
   18DOPE  H17X 2317   7.196   3.391  15.527  0.5609 -0.2597 -0.3352
   18DOPE  H17Y 2318   7.254   3.432  15.687 -1.4593 -0.9683  1.2401
   18DOPE  C318 2319   7.291   3.229  15.626 -0.0721  0.5140 -0.0808
   18DOPE  H18X 2320   7.369   3.239  15.547 -0.5521 -0.1588 -0.6632
   18DOPE  H18Y 2321   7.336   3.222  15.727  0.9058 -2.4603 -0.6097
   18DOPE  H18Z 2322   7.221   3.147  15.598 -0.7927  1.1753 -0.2243
   19DOPE     N 2323   7.253   5.634  16.851 -0.0041  0.4387 -0.5205
   19DOPE   HN1 2324   7.232   5.697  16.931 -3.3175 -1.9927  0.7551
   19DOPE   HN2 2325   7.187   5.556  16.869  2.6946 -1.5284  1.6768
   19DOPE   HN3 2326   7.347   5.595  16.871 -1.0136 -1.5936  0.5215
   19DOPE   C12 2327   7.244   5.702  16.716 -0.9319 -0.2033 -0.4836
   19DOPE  H12A 2328   7.314   5.788  16.718 -2.6817  1.2752  0.1816
   19DOPE  H12B 2329   7.143   5.747  16.704 -0.0544  1.8692 -0.5786
   19DOPE   C11 2330   7.293   5.617  16.595 -0.8460  0.1650  0.2660
   19DOPE  H11A 2331   7.400   5.598  16.616 -1.0854  0.8987  2.4224
   19DOPE  H11B 2332   7.289   5.678  16.503  0.6041  1.1778  0.8447
   19DOPE     P 2333   7.085   5.472  16.519  0.2971 -0.3329 -0.3358
   19DOPE   O13 2334   6.989   5.571  16.565  0.1317  0.2491  0.2677
   19DOPE   O14 2335   7.050   5.331  16.544  0.1032  0.0126 -0.1611
   19DOPE   O11 2336   7.110   5.488  16.366  0.7843  0.2824  0.0596
   19DOPE   O12 2337   7.224   5.494  16.594  0.5566 -0.5449  0.3253
   19DOPE    C1 2338   7.232   5.451  16.300  0.1106 -0.0270 -0.2335
   19DOPE    HA 2339   7.315   5.450  16.374 -0.6097  0.3791  0.6064
   19DOPE    HB 2340   7.239   5.533  16.225 -0.3108  0.2195 -0.0098
   19DOPE    C2 2341   7.234   5.325  16.220 -0.2002 -0.3384  0.0598
   19DOPE    HS 2342   7.260   5.236  16.282  1.7247  0.7451  0.8924
   19DOPE   O21 2343   7.330   5.339  16.121  0.1684 -0.1052 -0.3640
   19DOPE   C21 2344   7.462   5.335  16.161  0.0342  0.4392  0.2491
   19DOPE   O22 2345   7.503   5.273  16.255  0.3544 -0.2372 -0.0052
   19DOPE   C22 2346   7.549   5.402  16.054 -0.3770  0.1810 -0.0308
   19DOPE   H2R 2347   7.557   5.509  16.082  1.5273 -0.2712  1.3913
   19DOPE   H2S 2348   7.505   5.389  15.953 -1.4657 -0.1845  0.4737
   19DOPE    C3 2349   7.085   5.306  16.158  0.1572 -0.9605 -0.2996
   19DOPE    HX 2350   7.068   5.406  16.112 -0.9086 -0.6023  0.8118
   19DOPE    HY 2351   7.007   5.310  16.237  0.8973  0.6410  0.4075
   19DOPE   O31 2352   7.071   5.204  16.062 -0.0811 -0.3674  0.3345
   19DOPE   C31 2353   7.060   5.078  16.116 -0.6567 -0.0161 -0.4410
   19DOPE   O32 2354   7.087   5.052  16.231  0.1019  0.2584 -0.1993
   19DOPE   C32 2355   7.024   4.978  16.015 -0.0962  0.1463  0.3710
   19DOPE   H2X 2356   7.091   5.001  15.929  1.4295 -0.1705  1.4204
   19DOPE   H2Y 2357   7.049   4.881  16.064  0.7166  0.9402  1.5850
   19DOPE   C23 2358   7.690   5.329  16.037 -0.6697  0.1568  0.1254
   19DOPE   H3R 2359   7.681   5.218  16.038 -0.9154  0.1529 -1.1260
   19DOPE   H3S 2360   7.761   5.351  16.120  0.2434 -1.1781 -0.2505
   19DOPE   C24 2361   7.760   5.386  15.906  0.5382  0.8617  0.4654
   19DOPE   H4R 2362   7.744   5.496  15.908 -0.5883  0.7098  0.6798
   19DOPE   H4S 2363   7.694   5.343  15.828 -0.4304  2.8900  0.1026
   19DOPE   C25 2364   7.907   5.341  15.872 -0.4297  0.7438 -0.0884
   19DOPE   H5R 2365   7.972   5.383  15.953  1.1435  1.3356 -1.5891
   19DOPE   H5S 2366   7.943   5.381  15.775 -2.4704  2.8825 -0.0651
   19DOPE   C26 2367   7.922   5.185  15.878  0.1643  0.7866  0.7574
   19DOPE   H6R 2368   7.898   5.149  15.776  0.0675  0.1379  1.0002
   19DOPE   H6S 2369   7.838   5.141  15.936 -1.0340  1.0297 -0.7264
   19DOPE   C27 2370   8.062   5.138  15.930 -0.1688  0.1995  0.2772
   19DOPE   H7R 2371   8.062   5.055  16.003  2.5284  0.5834  0.8082
   19DOPE   H7S 2372   8.095   5.228  15.986 -1.0809  0.1764  0.8760
   19DOPE   C28 2373   8.152   5.102  15.805  0.3675 -0.2286  0.1082
   19DOPE   H8R 2374   8.149   5.192  15.739  0.0649 -1.1228 -1.1361
   19DOPE   H8S 2375   8.107   5.016  15.752 -0.9480  0.3874  0.1897
   19DOPE   C29 2376   8.295   5.090  15.845 -0.4010  0.2993  0.0263
   19DOPE   H9R 2377   8.315   5.121  15.948 -1.8875  0.2149  0.3709
   19DOPE  C210 2378   8.386   5.025  15.770 -0.1000  0.2080 -0.5563
   19DOPE  H10R 2379   8.487   5.028  15.815 -0.3046  3.8467 -0.0459
   19DOPE  C211 2380   8.376   4.968  15.630 -0.4851  0.4347 -0.6807
   19DOPE  H11R 2381   8.454   5.009  15.562  0.8437 -0.3409  0.3499
   19DOPE  H11S 2382   8.279   5.003  15.586 -1.5091 -0.9966  0.3581
   19DOPE  C212 2383   8.390   4.816  15.604  0.0907 -0.3224 -0.6775
   19DOPE  H12R 2384   8.396   4.800  15.494 -1.7806  2.9148 -1.3948
   19DOPE  H12S 2385   8.314   4.763  15.666  0.6746  1.7646  2.0243
   19DOPE  C213 2386   8.523   4.761  15.663  0.6116  0.3872  0.0669
   19DOPE  H13R 2387   8.530   4.651  15.645  1.4860  0.3637  0.5416
   19DOPE  H13S 2388   8.520   4.785  15.771  0.3375  0.4457  0.0482
   19DOPE  C214 2389   8.653   4.833  15.609  0.1091  0.0852  0.0396
   19DOPE  H14R 2390   8.641   4.942  15.628  0.2152 -0.1815  1.8500
   19DOPE  H14S 2391   8.670   4.804  15.503 -1.5333 -0.4936 -0.1009
   19DOPE  C215 2392   8.773   4.793  15.700 -0.2417  0.0455 -0.6131
   19DOPE  H15R 2393   8.772   4.684  15.722  0.4522  0.2875  0.6791
   19DOPE  H15S 2394   8.762   4.836  15.802  0.8988 -3.5751  1.2146
   19DOPE  C216 2395   8.902   4.856  15.646 -0.2167 -0.4113 -0.1994
   19DOPE  H16R 2396   8.905   4.959  15.686 -0.1014 -0.0155 -1.1804
   19DOPE  H16S 2397   8.907   4.841  15.536  1.0928 -0.4311 -0.1560
   19DOPE  C217 2398   9.040   4.795  15.700  0.6348 -0.6794  0.1081
   19DOPE  H17R 2399   9.122   4.865  15.674  1.1271 -1.4335 -0.3988
   19DOPE  H17S 2400   9.061   4.695  15.658  0.4005 -1.1185  1.0110
   19DOPE  C218 2401   9.038   4.795  15.857  1.1273  0.2448  0.1827
   19DOPE  H18R 2402   9.029   4.897  15.901 -1.6032  0.2216 -0.1443
   19DOPE  H18S 2403   9.132   4.744  15.885  0.6496 -1.2405 -0.7890
   19DOPE  H18T 2404   8.954   4.728  15.885 -0.9368  2.8550  0.6046
   19DOPE   C33 2405   6.880   4.991  15.967 -0.1234 -0.5212 -0.3731
   19DOPE   H3X 2406   6.872   5.087  15.911  2.1165 -1.8603 -3.2224
   19DOPE   H3Y 2407   6.813   4.988  16.056  0.7442 -0.4379  0.2887
   19DOPE   C34 2408   6.824   4.877  15.886  0.1245  0.5130 -0.2756
   19DOPE   H4X 2409   6.811   4.782  15.942  0.5527  0.0261 -0.9976
   19DOPE   H4Y 2410   6.726   4.919  15.855 -0.3316  0.1078  0.5767
   19DOPE   C35 2411   6.909   4.867  15.761 -0.2874 -0.8128 -0.1846
   19DOPE   H5X 2412   7.009   4.823  15.782  0.9717  2.0867  0.3320
   19DOPE   H5Y 2413   6.926   4.965  15.712  1.0388 -0.9066  0.0454
   19DOPE   C36 2414   6.834   4.775  15.659  0.0376  0.4876  0.4655
   19DOPE   H6X 2415   6.737   4.818  15.628 -0.6561 -1.1984  0.1530
   19DOPE   H6Y 2416   6.815   4.673  15.700  1.3719 -0.0533 -0.1905
   19DOPE   C37 2417   6.918   4.750  15.535  0.0349 -0.2754 -0.5515
   19DOPE   H7X 2418   6.958   4.844  15.491  0.3783 -1.1012 -2.0742
   19DOPE   H7Y 2419   7.009   4.693  15.561  0.9444  0.3460 -2.1780
   19DOPE   C38 2420   6.846   4.676  15.418 -1.2646  0.1466 -0.0952
   19DOPE   H8X 2421   6.926   4.683  15.340 -0.8701  0.0200  0.2911
   19DOPE   H8Y 2422   6.764   4.747  15.396 -2.4183 -1.0018  0.3707
   19DOPE   C39 2423   6.811   4.521  15.435  0.2308  0.4488  0.8953
   19DOPE   H9X 2424   6.796   4.501  15.542 -2.5830  1.1401  0.7157
   19DOPE  C310 2425   6.812   4.420  15.346  0.9424  0.4895  0.5985
   19DOPE  H10X 2426   6.774   4.323  15.384  1.0679 -0.0766 -0.6824
   19DOPE  C311 2427   6.849   4.437  15.201  0.4562 -0.5579  0.2497
   19DOPE  H11X 2428   6.892   4.537  15.180 -0.2282 -0.7521 -2.3608
   19DOPE  H11Y 2429   6.934   4.370  15.175  1.6951  0.9114  0.3781
   19DOPE  C312 2430   6.736   4.409  15.108 -0.1220 -0.2926  0.5822
   19DOPE  H12X 2431   6.642   4.458  15.140  0.2219 -0.1725  1.4449
   19DOPE  H12Y 2432   6.711   4.301  15.107  1.0845 -0.6450  2.3841
   19DOPE  C313 2433   6.782   4.461  14.965 -0.0697  0.2559 -0.3971
   19DOPE  H13X 2434   6.777   4.572  14.970  0.7615  0.5565 -3.7497
   19DOPE  H13Y 2435   6.883   4.420  14.945 -1.1465 -2.5950 -0.3626
   19DOPE  C314 2436   6.701   4.412  14.850 -0.2193 -0.1166 -0.4179
   19DOPE  H14X 2437   6.597   4.437  14.881 -0.2900 -0.6856 -0.1943
   19DOPE  H14Y 2438   6.707   4.301  14.853 -5.6549 -0.6737  1.8356
   19DOPE  C315 2439   6.749   4.467  14.710  0.5551  0.1424  0.3249
   19DOPE  H15X 2440   6.855   4.437  14.701  0.1812 -0.8232 -1.1786
   19DOPE  H15Y 2441   6.746   4.578  14.724 -1.3138  0.0477  0.9341
   19DOPE  C316 2442   6.654   4.411  14.608 -0.4417  0.6784  0.1292
   19DOPE  H16X 2443   6.548   4.415  14.640 -0.1173 -0.3195  1.4477
   19DOPE  H16Y 2444   6.679   4.306  14.580  0.8537  0.8646  0.4963
   19DOPE  C317 2445   6.671   4.494  14.481 -0.2403 -0.7509 -0.1826
   19DOPE  H17X 2446   6.776   4.497  14.443 -0.0612  2.6501  0.2473
   19DOPE  H17Y 2447   6.610   4.447  14.402  0.5256 -0.9548 -0.6647
   19DOPE  C318 2448   6.622   4.640  14.489  1.3429  0.2564  0.2330
   19DOPE  H18X 2449   6.700   4.686  14.554  3.2305 -1.2262 -0.8645
   19DOPE  H18Y 2450   6.620   4.689  14.390 -2.5021  2.6230  1.2809
   19DOPE  H18Z 2451   6.521   4.636  14.535  0.9245 -3.3818 -0.6657
   20DOPE     N 2452   5.104   8.088  16.807  0.4546  0.2982  0.1387
   20DOPE   HN1 2453   5.091   7.992  16.771 -1.7260  0.5945 -0.0173
   20DOPE   HN2 2454   5.011   8.132  16.794 -0.2462 -1.0230  0.4841
   20DOPE   HN3 2455   5.165   8.153  16.753  1.8095 -0.1031  1.1214
   20DOPE   C12 2456   5.135   8.106  16.955 -0.0162  0.0511  0.3610
   20DOPE  H12A 2457   5.192   8.017  16.989  2.1502  0.8821 -0.9197
   20DOPE  H12B 2458   5.036   8.108  17.006  0.5745 -0.8763  1.6069
   20DOPE   C11 2459   5.203   8.243  16.984  0.3153  0.3710 -0.2884
   20DOPE  H11A 2460   5.239   8.231  17.088 -1.2440  0.8417  0.3211
   20DOPE  H11B 2461   5.129   8.325  16.985 -0.6826 -0.3777 -2.8050
   20DOPE     P 2462   5.397   8.391  16.920  0.1678  0.0049  0.4297
   20DOPE   O13 2463   5.520   8.343  16.984 -0.6241 -0.1579  0.1227
   20DOPE   O14 2464   5.321   8.502  16.981  0.2699  0.0746 -0.2455
   20DOPE   O11 2465   5.431   8.437  16.768 -0.7729 -0.1277  0.0091
   20DOPE   O12 2466   5.305   8.267  16.894  0.3833  0.4580  0.2205
   20DOPE    C1 2467   5.420   8.349  16.659  0.6884  0.1414 -0.1764
   20DOPE    HA 2468   5.313   8.325  16.648 -0.7029  4.9353  0.4154
   20DOPE    HB 2469   5.480   8.257  16.678 -0.9466 -0.6815  1.2494
   20DOPE    C2 2470   5.467   8.418  16.530 -0.1101  0.7101  0.7040
   20DOPE    HS 2471   5.563   8.469  16.553  0.8773 -1.5892  1.9058
   20DOPE   O21 2472   5.366   8.504  16.485 -0.5648  0.2540  0.2792
   20DOPE   C21 2473   5.415   8.610  16.418  1.5105  0.2922  0.3665
   20DOPE   O22 2474   5.532   8.637  16.399  0.1762 -0.2051 -0.2390
   20DOPE   C22 2475   5.307   8.684  16.345  0.4449  0.2025 -0.4200
   20DOPE   H2R 2476   5.328   8.790  16.323  0.1406  0.2180 -0.6363
   20DOPE   H2S 2477   5.217   8.678  16.410  2.3348 -0.1591  2.3617
   20DOPE    C3 2478   5.503   8.312  16.419  0.4517  0.5185 -0.2297
   20DOPE    HX 2479   5.425   8.234  16.407  2.2135 -1.3187 -0.3438
   20DOPE    HY 2480   5.582   8.241  16.452 -0.3078 -0.3693 -0.2682
   20DOPE   O31 2481   5.518   8.374  16.289  0.1205  0.1412  0.0707
   20DOPE   C31 2482   5.640   8.401  16.245  0.0587 -0.0604 -0.8264
   20DOPE   O32 2483   5.738   8.376  16.309 -0.0017 -0.0536  0.2987
   20DOPE   C32 2484   5.638   8.451  16.102  0.2876  0.1242  0.3053
   20DOPE   H2X 2485   5.557   8.408  16.039  0.9549 -0.6561 -0.0472
   20DOPE   H2Y 2486   5.600   8.555  16.111 -1.9513 -0.3574 -2.2238
   20DOPE   C23 2487   5.279   8.629  16.207  0.1303  0.2570  0.1756
   20DOPE   H3R 2488   5.170   8.615  16.190  0.5794 -0.8996 -2.0909
   20DOPE   H3S 2489   5.319   8.526  16.198 -1.1893 -0.2961  0.3566
   20DOPE   C24 2490   5.324   8.711  16.086 -0.0388 -0.0572 -0.2267
   20DOPE   H4R 2491   5.431   8.735  16.100  0.2640  0.4653 -2.9009
   20DOPE   H4S 2492   5.265   8.804  16.068 -0.4541 -0.4426 -0.9359
   20DOPE   C25 2493   5.320   8.639  15.953  0.3175 -0.6851  1.1550
   20DOPE   H5R 2494   5.401   8.564  15.964  1.0639 -0.3237 -1.2852
   20DOPE   H5S 2495   5.372   8.706  15.881  0.2417 -0.9483  0.8570
   20DOPE   C26 2496   5.187   8.589  15.894  0.3642 -0.0887 -0.4110
   20DOPE   H6R 2497   5.112   8.671  15.891 -1.1170 -1.3334  0.9088
   20DOPE   H6S 2498   5.150   8.513  15.967  0.7127 -0.3947 -0.5479
   20DOPE   C27 2499   5.198   8.527  15.757  0.0096 -0.3343  0.2391
   20DOPE   H7R 2500   5.092   8.506  15.734 -0.2218  0.5416  0.4671
   20DOPE   H7S 2501   5.255   8.432  15.770 -0.3799 -0.5058  0.7511
   20DOPE   C28 2502   5.266   8.610  15.647 -0.1100  0.6968 -0.1951
   20DOPE   H8R 2503   5.360   8.663  15.670 -0.3049  0.1783  1.9461
   20DOPE   H8S 2504   5.193   8.681  15.602  1.4345  2.0327 -0.6545
   20DOPE   C29 2505   5.284   8.515  15.530 -0.7225  0.3920 -0.0199
   20DOPE   H9R 2506   5.196   8.467  15.485 -1.6382  2.4213 -0.5373
   20DOPE  C210 2507   5.406   8.488  15.482  0.8818 -0.0401  0.5602
   20DOPE  H10R 2508   5.416   8.418  15.398 -1.7446  0.1886 -0.0157
   20DOPE  C211 2509   5.540   8.526  15.538  0.1796  0.3559 -0.2657
   20DOPE  H11R 2510   5.532   8.532  15.649 -2.7067 -1.8025 -0.2507
   20DOPE  H11S 2511   5.577   8.628  15.512  1.6318 -0.1520 -0.2855
   20DOPE  C212 2512   5.654   8.430  15.502  0.4899 -0.0673 -0.6137
   20DOPE  H12R 2513   5.748   8.491  15.499  0.5387 -0.0349  0.8008
   20DOPE  H12S 2514   5.646   8.419  15.392 -3.2544  0.9752 -0.5520
   20DOPE  C213 2515   5.655   8.303  15.576 -0.3826  0.1748  0.1463
   20DOPE  H13R 2516   5.548   8.274  15.583 -0.9631  1.7351 -1.6378
   20DOPE  H13S 2517   5.684   8.332  15.680  1.5324 -1.8222  0.2699
   20DOPE  C214 2518   5.746   8.192  15.511 -0.9278 -0.3403  0.3579
   20DOPE  H14R 2519   5.852   8.225  15.517 -0.8121 -0.8274  1.2675
   20DOPE  H14S 2520   5.721   8.173  15.405  1.4461  1.7911 -0.6997
   20DOPE  C215 2521   5.722   8.049  15.580 -0.3243  0.4388 -0.6113
   20DOPE  H15R 2522   5.736   8.063  15.689 -0.5597 -2.9626 -0.0282
   20DOPE  H15S 2523   5.799   7.979  15.540  0.5421  2.1041 -2.0029
   20DOPE  C216 2524   5.580   8.002  15.564  0.1117 -0.4445  0.0996
   20DOPE  H16R 2525   5.545   8.016  15.460 -1.6100  1.3043  0.8463
   20DOPE  H16S 2526   5.508   8.062  15.624 -1.2268 -1.0753 -0.8334
   20DOPE  C217 2527   5.559   7.853  15.598 -0.3044 -0.7183  0.1373
   20DOPE  H17R 2528   5.571   7.830  15.705  1.7548  0.6466  0.2738
   20DOPE  H17S 2529   5.630   7.791  15.539 -2.1570 -1.4650 -1.4186
   20DOPE  C218 2530   5.419   7.806  15.547  0.1741 -0.3694  0.7831
   20DOPE  H18R 2531   5.343   7.835  15.623  0.2672 -0.2271  0.8210
   20DOPE  H18S 2532   5.415   7.695  15.539  0.7191 -0.2802 -0.9282
   20DOPE  H18T 2533   5.400   7.847  15.446 -0.3208 -1.2942  0.4875
   20DOPE   C33 2534   5.776   8.440  16.034  0.5853 -0.2820 -0.2887
   20DOPE   H3X 2535   5.853   8.479  16.104 -0.2289 -0.0595  0.5023
   20DOPE   H3Y 2536   5.764   8.509  15.948  0.2902  1.0434  0.7785
   20DOPE   C34 2537   5.815   8.296  15.997  0.1213  0.2901  0.1256
   20DOPE   H4X 2538   5.833   8.243  16.093 -0.0214  1.1373  0.6302
   20DOPE   H4Y 2539   5.727   8.243  15.954 -1.0949  1.4761  1.0563
   20DOPE   C35 2540   5.932   8.285  15.899 -0.0283 -0.1121 -0.4994
   20DOPE   H5X 2541   5.909   8.326  15.798  1.3996 -0.0241 -0.8215
   20DOPE   H5Y 2542   5.953   8.178  15.875 -0.3246  0.0111 -1.3631
   20DOPE   C36 2543   6.060   8.353  15.944 -0.4479  0.5712 -0.0147
   20DOPE   H6X 2544   6.042   8.463  15.936  0.1763  0.7666  1.0690
   20DOPE   H6Y 2545   6.134   8.331  15.864 -0.0317  2.7121 -0.2817
   20DOPE   C37 2546   6.111   8.314  16.079  0.4719  0.4243 -0.3176
   20DOPE   H7X 2547   6.039   8.339  16.160 -0.4429  2.1486 -1.6033
   20DOPE   H7Y 2548   6.122   8.203  16.071  0.0071  0.4639 -1.5570
   20DOPE   C38 2549   6.257   8.355  16.105  0.5414  0.1684 -0.3202
   20DOPE   H8X 2550   6.323   8.307  16.030  0.6961 -1.9684  1.1018
   20DOPE   H8Y 2551   6.307   8.322  16.199 -1.8734 -2.2681  0.2191
   20DOPE   C39 2552   6.263   8.505  16.103 -0.3051  0.2028  0.3491
   20DOPE   H9X 2553   6.216   8.548  16.193  0.1981  0.8163  0.3304
   20DOPE  C310 2554   6.311   8.584  16.002 -0.0627  0.6047  0.5080
   20DOPE  H10X 2555   6.273   8.686  15.994 -3.7972 -0.6702  0.2435
   20DOPE  C311 2556   6.385   8.528  15.881  0.4014 -0.1238 -0.0738
   20DOPE  H11X 2557   6.423   8.423  15.889 -0.4829 -0.5713 -1.3710
   20DOPE  H11Y 2558   6.312   8.509  15.799  1.6803  1.9607 -1.8084
   20DOPE  C312 2559   6.493   8.620  15.829  0.0921  0.6566 -0.5330
   20DOPE  H12X 2560   6.466   8.725  15.807  0.3028  0.7013 -0.5814
   20DOPE  H12Y 2561   6.523   8.575  15.731 -3.0894  1.1508 -1.8624
   20DOPE  C313 2562   6.616   8.622  15.926  0.3267 -0.0869  0.0563
   20DOPE  H13X 2563   6.585   8.639  16.032 -0.4757 -1.7876  0.1299
   20DOPE  H13Y 2564   6.654   8.519  15.913 -2.8192 -1.5239  0.9807
   20DOPE  C314 2565   6.734   8.719  15.882  0.5754 -0.1383  0.1978
   20DOPE  H14X 2566   6.711   8.827  15.897 -1.2599 -0.6451  1.4557
   20DOPE  H14Y 2567   6.747   8.705  15.773  0.9314  1.0856  0.0732
   20DOPE  C315 2568   6.859   8.702  15.967 -0.0194  0.3157 -0.4154
   20DOPE  H15X 2569   6.870   8.595  15.995  3.6361  0.7034  0.0680
   20DOPE  H15Y 2570   6.851   8.765  16.058  0.4263  0.4987 -0.5025
   20DOPE  C316 2571   6.988   8.738  15.885 -0.0869 -0.7731  0.8670
   20DOPE  H16X 2572   6.995   8.654  15.813 -0.7580  2.2130 -3.0423
   20DOPE  H16Y 2573   7.076   8.728  15.952  0.4694 -0.2901  0.2284
   20DOPE  C317 2574   6.986   8.868  15.800  0.5064  0.1942 -0.7159
   20DOPE  H17X 2575   6.889   8.871  15.747  0.8457 -0.4211 -1.3888
   20DOPE  H17Y 2576   6.980   8.942  15.883 -1.1305 -1.8939  1.1332
   20DOPE  C318 2577   7.100   8.897  15.709  0.1985 -0.3395  0.5244
   20DOPE  H18X 2578   7.200   8.889  15.755  1.2804  1.5391 -1.3609
   20DOPE  H18Y 2579   7.099   8.829  15.621  0.7785  0.8957 -0.4607
   20DOPE  H18Z 2580   7.086   9.000  15.669 -2.5532 -1.0460 -0.6409
   21DOPE     N 2581   1.697   0.132  17.408 -0.2821 -0.2172 -0.3921
   21DOPE   HN1 2582   1.612   0.081  17.378 -1.3482  0.2916  1.6264
   21DOPE   HN2 2583   1.766   0.077  17.463  3.4149  3.6708 -0.5005
   21DOPE   HN3 2584   1.663   0.215  17.461  0.4409 -0.3482  0.2976
   21DOPE   C12 2585   1.783   0.183  17.290 -0.0334  0.7540  0.0443
   21DOPE  H12A 2586   1.883   0.134  17.302  0.2727  0.9816 -1.4514
   21DOPE  H12B 2587   1.778   0.293  17.297  0.4724  0.9271 -1.9027
   21DOPE   C11 2588   1.740   0.131  17.158  0.0298  0.7881 -0.4989
   21DOPE  H11A 2589   1.791   0.180  17.072  1.8673 -1.9003 -1.0519
   21DOPE  H11B 2590   1.636   0.170  17.160 -0.4173 -0.3907  0.2671
   21DOPE     P 2591   1.630  -0.102  17.110 -0.1139  0.5433 -0.2142
   21DOPE   O13 2592   1.545  -0.129  17.229 -0.6583 -0.5357 -0.8498
   21DOPE   O14 2593   1.701  -0.221  17.053 -0.1114 -0.6554  0.5460
   21DOPE   O11 2594   1.552  -0.027  16.994  0.0445 -0.1587  0.5381
   21DOPE   O12 2595   1.750  -0.012  17.149 -0.0819 -0.3104  0.7064
   21DOPE    C1 2596   1.606   0.014  16.872  0.1122  0.7361 -0.5677
   21DOPE    HA 2597   1.681  -0.057  16.832 -0.5094 -2.6858  3.6019
   21DOPE    HB 2598   1.655   0.114  16.880  0.6107  0.4239  0.4091
   21DOPE    C2 2599   1.500   0.028  16.764  0.4713 -0.3463  0.2325
   21DOPE    HS 2600   1.551   0.062  16.671  3.0957 -1.5872  1.1354
   21DOPE   O21 2601   1.399   0.109  16.807 -0.1298 -0.0326 -0.0958
   21DOPE   C21 2602   1.419   0.246  16.801 -0.2828  0.4122  0.8783
   21DOPE   O22 2603   1.523   0.303  16.770 -0.2480  0.3843  0.1102
   21DOPE   C22 2604   1.286   0.314  16.837 -0.9223 -0.1514  0.3424
   21DOPE   H2R 2605   1.289   0.342  16.945 -0.9021  0.3175  0.2211
   21DOPE   H2S 2606   1.204   0.238  16.833 -0.9905 -0.0263 -0.9338
   21DOPE    C3 2607   1.449  -0.111  16.732  0.5887  0.7080  0.1304
   21DOPE    HX 2608   1.414  -0.154  16.828  0.9830  0.0096 -0.0354
   21DOPE    HY 2609   1.528  -0.174  16.686  0.0646 -0.0310  0.2295
   21DOPE   O31 2610   1.337  -0.112  16.640  0.1721 -0.0851  0.3832
   21DOPE   C31 2611   1.210  -0.091  16.683 -0.8564 -0.9247 -0.3150
   21DOPE   O32 2612   1.177  -0.090  16.801  0.2360  0.5077  0.3145
   21DOPE   C32 2613   1.121  -0.060  16.566  0.3049  0.2348  0.2076
   21DOPE   H2X 2614   1.013  -0.075  16.586 -0.6672  4.1303 -1.1208
   21DOPE   H2Y 2615   1.120   0.048  16.540 -0.6138 -0.1053 -1.2287
   21DOPE   C23 2616   1.247   0.436  16.759  0.8250  0.6203  0.5157
   21DOPE   H3R 2617   1.336   0.501  16.743  0.8720  0.1681 -1.2986
   21DOPE   H3S 2618   1.167   0.487  16.815  0.2454  1.1908 -0.7807
   21DOPE   C24 2619   1.182   0.404  16.622  0.2082  0.4167 -0.8357
   21DOPE   H4R 2620   1.109   0.483  16.595  1.5579  1.8300 -0.5222
   21DOPE   H4S 2621   1.127   0.309  16.635  1.7392 -0.3381  0.4722
   21DOPE   C25 2622   1.266   0.381  16.497  0.2401  0.0959  0.0522
   21DOPE   H5R 2623   1.340   0.299  16.507 -0.4781 -0.8761 -1.9100
   21DOPE   H5S 2624   1.326   0.472  16.477 -1.6299  1.9433  2.2924
   21DOPE   C26 2625   1.189   0.364  16.363  1.0044 -0.6311  0.3453
   21DOPE   H6R 2626   1.166   0.455  16.303 -0.6160 -2.1802 -1.5138
   21DOPE   H6S 2627   1.085   0.335  16.391  0.3218  1.6182  0.3724
   21DOPE   C27 2628   1.255   0.266  16.272  0.0439  0.1323  0.1222
   21DOPE   H7R 2629   1.249   0.163  16.314  1.8605 -0.2856 -0.5209
   21DOPE   H7S 2630   1.362   0.296  16.285 -0.1879  0.5712  1.1237
   21DOPE   C28 2631   1.229   0.263  16.120 -0.1821  0.2690  0.0657
   21DOPE   H8R 2632   1.313   0.226  16.058 -1.1151 -1.6239 -0.1357
   21DOPE   H8S 2633   1.202   0.364  16.084 -0.6793  0.0001 -0.3224
   21DOPE   C29 2634   1.109   0.173  16.085  0.1726  0.5195  0.0281
   21DOPE   H9R 2635   1.034   0.160  16.165  1.3280  0.1315  1.0797
   21DOPE  C210 2636   1.088   0.109  15.970  0.0547 -0.0294  0.0299
   21DOPE  H10R 2637   1.006   0.038  15.950 -0.8379  1.2991 -1.1850
   21DOPE  C211 2638   1.174   0.120  15.852 -0.4913  0.7265  0.5717
   21DOPE  H11R 2639   1.283   0.107  15.869 -0.3582 -0.0701 -0.7442
   21DOPE  H11S 2640   1.174   0.221  15.805  1.3968  0.9047  0.8809
   21DOPE  C212 2641   1.147   0.012  15.743 -0.2914 -0.0735 -0.5281
   21DOPE  H12R 2642   1.039   0.019  15.719 -0.7261 -1.7338  0.7745
   21DOPE  H12S 2643   1.154  -0.090  15.787  0.0486 -0.1401 -0.7352
   21DOPE  C213 2644   1.250   0.029  15.629  0.3420  0.0107 -0.3522
   21DOPE  H13R 2645   1.355   0.004  15.656  0.6647 -0.4342 -1.9352
   21DOPE  H13S 2646   1.250   0.139  15.611  1.0076  0.3522  1.5361
   21DOPE  C214 2647   1.209  -0.062  15.505  0.1023 -0.3066  0.4447
   21DOPE  H14R 2648   1.104  -0.052  15.472 -0.6647 -1.3473  2.3853
   21DOPE  H14S 2649   1.228  -0.166  15.540 -0.9886  0.0800  2.3220
   21DOPE  C215 2650   1.295  -0.026  15.384 -0.7846 -0.0930  0.1854
   21DOPE  H15R 2651   1.399  -0.020  15.423  0.3318  0.6913 -2.6689
   21DOPE  H15S 2652   1.277   0.072  15.335 -0.4632  0.0039  0.2570
   21DOPE  C216 2653   1.297  -0.132  15.280 -0.2150  0.4803  0.4528
   21DOPE  H16R 2654   1.195  -0.145  15.237 -0.6994  2.8319  0.7975
   21DOPE  H16S 2655   1.316  -0.223  15.340  0.9203  1.0093  0.9054
   21DOPE  C217 2656   1.409  -0.124  15.175 -0.0831 -0.2165  0.5044
   21DOPE  H17R 2657   1.429  -0.222  15.126 -1.3075 -0.1811 -0.1296
   21DOPE  H17S 2658   1.504  -0.090  15.220  0.8819 -1.0579 -0.8182
   21DOPE  C218 2659   1.364  -0.032  15.058 -0.2040  0.0733 -0.0489
   21DOPE  H18R 2660   1.360  -0.089  14.963  0.3720  0.3649 -0.2523
   21DOPE  H18S 2661   1.434   0.052  15.038  0.3920 -0.5629 -0.6627
   21DOPE  H18T 2662   1.263   0.010  15.075  0.3852  0.9680  1.4226
   21DOPE   C33 2663   1.157  -0.153  16.441  0.4010  0.4028 -0.2514
   21DOPE   H3X 2664   1.192  -0.253  16.476 -1.5590 -0.2421  0.0126
   21DOPE   H3Y 2665   1.240  -0.101  16.389  2.5317 -1.4295  1.1517
   21DOPE   C34 2666   1.035  -0.180  16.352  0.1267 -0.4764  0.3444
   21DOPE   H4X 2667   0.955  -0.243  16.396  0.6844 -0.3723  1.5677
   21DOPE   H4Y 2668   0.992  -0.080  16.327 -0.4807 -0.0810  2.7396
   21DOPE   C35 2669   1.086  -0.246  16.216 -0.0816 -0.7711  0.4341
   21DOPE   H5X 2670   1.178  -0.306  16.233  0.6282 -0.0030 -0.5706
   21DOPE   H5Y 2671   1.116  -0.162  16.149  3.8876 -1.3550  1.2232
   21DOPE   C36 2672   0.981  -0.323  16.138  1.1600 -0.3265  0.1987
   21DOPE   H6X 2673   0.879  -0.279  16.150 -0.0480 -2.8573  0.0260
   21DOPE   H6Y 2674   0.971  -0.428  16.173 -0.7570  0.1962  1.3959
   21DOPE   C37 2675   1.006  -0.312  15.985  0.2175  0.5651 -0.4864
   21DOPE   H7X 2676   1.001  -0.203  15.963  2.5527  1.2296  1.7730
   21DOPE   H7Y 2677   1.110  -0.348  15.969  0.4457  0.0210  1.8645
   21DOPE   C38 2678   0.912  -0.395  15.901  0.1868 -0.2407 -0.0318
   21DOPE   H8X 2679   0.805  -0.379  15.926 -0.2599  1.3525 -2.6434
   21DOPE   H8Y 2680   0.937  -0.500  15.930  1.8983  0.6569  2.0536
   21DOPE   C39 2681   0.937  -0.362  15.760  0.0429 -0.1075  0.7669
   21DOPE   H9X 2682   1.029  -0.392  15.707 -0.3107  1.7102 -1.0324
   21DOPE  C310 2683   0.865  -0.277  15.686 -0.1666 -0.3209 -0.3577
   21DOPE  H10X 2684   0.898  -0.252  15.584 -0.5176 -0.0361 -0.4006
   21DOPE  C311 2685   0.743  -0.195  15.725 -0.4206  0.1181  0.3287
   21DOPE  H11X 2686   0.665  -0.213  15.649  0.9839  0.9599 -1.3823
   21DOPE  H11Y 2687   0.698  -0.232  15.819  1.9345  0.7686  1.8053
   21DOPE  C312 2688   0.776  -0.049  15.721 -0.3430 -0.3170 -0.2894
   21DOPE  H12X 2689   0.847  -0.023  15.802  0.2413  0.5690 -1.0607
   21DOPE  H12Y 2690   0.688   0.017  15.739 -1.0250 -0.8256 -1.6218
   21DOPE  C313 2691   0.829   0.005  15.588 -0.3259 -0.5387 -0.4639
   21DOPE  H13X 2692   0.919  -0.054  15.558 -0.9610 -3.6862  3.0261
   21DOPE  H13Y 2693   0.755  -0.009  15.507 -0.1617 -1.7514 -0.4188
   21DOPE  C314 2694   0.856   0.153  15.585 -0.2677 -0.5387 -0.2384
   21DOPE  H14X 2695   0.931   0.182  15.662  0.9598 -0.6197 -1.3621
   21DOPE  H14Y 2696   0.759   0.207  15.590 -0.4490 -0.9062  0.2551
   21DOPE  C315 2697   0.916   0.202  15.449 -0.3544 -0.6575  0.0153
   21DOPE  H15X 2698   0.862   0.150  15.367 -1.2016  0.9083 -0.4743
   21DOPE  H15Y 2699   1.017   0.157  15.441  0.1111  0.3031  0.2533
   21DOPE  C316 2700   0.925   0.353  15.442  0.0164  0.2904 -1.0795
   21DOPE  H16X 2701   0.965   0.391  15.538 -0.9164  2.7989 -1.6104
   21DOPE  H16Y 2702   0.820   0.385  15.425 -1.7263 -3.0152  2.0695
   21DOPE  C317 2703   1.002   0.413  15.321 -0.1099  0.3521 -0.1971
   21DOPE  H17X 2704   0.942   0.371  15.237 -0.0558 -1.8193  0.7632
   21DOPE  H17Y 2705   0.997   0.524  15.322 -1.0425  0.3221 -0.3789
   21DOPE  C318 2706   1.144   0.380  15.305 -0.0713  0.0448  0.4955
   21DOPE  H18X 2707   1.212   0.393  15.392 -0.1515  1.1553  0.4129
   21DOPE  H18Y 2708   1.160   0.279  15.261 -0.9952 -0.0464  0.3574
   21DOPE  H18Z 2709   1.197   0.447  15.234  1.1293 -0.2282  1.0927
   22DOPE     N 2710   7.728   5.915  17.055  0.2554 -0.0405  0.3538
   22DOPE   HN1 2711   7.770   5.822  17.036  1.9699  0.7018  0.2949
   22DOPE   HN2 2712   7.783   5.969  17.125  1.6721  2.4763 -2.4381
   22DOPE   HN3 2713   7.631   5.896  17.084  0.7965  0.9755  3.1860
   22DOPE   C12 2714   7.718   5.997  16.931 -0.7251  0.1450  0.3142
   22DOPE  H12A 2715   7.806   6.065  16.934 -2.5386  2.9869 -2.9189
   22DOPE  H12B 2716   7.636   6.069  16.950  0.7210  1.3511  2.4549
   22DOPE   C11 2717   7.700   5.909  16.798  0.8025  0.4343  0.4306
   22DOPE  H11A 2718   7.683   5.978  16.712  0.8118  1.7698  1.4775
   22DOPE  H11B 2719   7.610   5.848  16.819  1.4165 -0.9658 -0.7558
   22DOPE     P 2720   7.841   5.679  16.814  0.1637 -0.2181 -0.3009
   22DOPE   O13 2721   7.827   5.686  16.961 -0.0253  0.4558 -0.1285
   22DOPE   O14 2722   7.972   5.628  16.761 -0.2726 -0.4850 -0.0928
   22DOPE   O11 2723   7.722   5.612  16.746  0.0142 -0.3053  0.6967
   22DOPE   O12 2724   7.817   5.825  16.763 -0.1728  0.0863 -0.9286
   22DOPE    C1 2725   7.734   5.548  16.616  0.6434 -0.2140 -0.3035
   22DOPE    HA 2726   7.636   5.498  16.597  0.6845  0.0395 -1.2576
   22DOPE    HB 2727   7.811   5.468  16.618  2.5353  1.5348  0.2078
   22DOPE    C2 2728   7.747   5.641  16.483  0.0355  0.7013 -0.2489
   22DOPE    HS 2729   7.840   5.694  16.513 -0.2280  0.1616  1.5995
   22DOPE   O21 2730   7.634   5.728  16.478 -0.9373 -0.5963 -0.4046
   22DOPE   C21 2731   7.660   5.853  16.445 -0.2112 -0.2779  0.2326
   22DOPE   O22 2732   7.771   5.901  16.418  0.5832  0.0712  0.0450
   22DOPE   C22 2733   7.530   5.936  16.457 -0.0558 -0.7102  0.2497
   22DOPE   H2R 2734   7.570   6.040  16.451  1.9092 -1.4281  0.2409
   22DOPE   H2S 2735   7.474   5.907  16.548  1.4051 -0.6841  1.2018
   22DOPE    C3 2736   7.769   5.562  16.351  0.5000 -0.3260 -0.3854
   22DOPE    HX 2737   7.687   5.492  16.326 -0.1358  1.5235 -4.0705
   22DOPE    HY 2738   7.862   5.503  16.368  0.9746  0.4124 -0.3798
   22DOPE   O31 2739   7.774   5.667  16.247 -0.0372  0.0969  1.1320
   22DOPE   C31 2740   7.898   5.715  16.213  0.2773  0.3083  0.4806
   22DOPE   O32 2741   8.002   5.676  16.261 -0.4450 -0.1575 -0.1289
   22DOPE   C32 2742   7.889   5.821  16.099  0.2211  0.6107 -0.1397
   22DOPE   H2X 2743   7.836   5.913  16.129 -0.4497 -0.1504  1.1155
   22DOPE   H2Y 2744   7.994   5.851  16.083  0.3506 -0.8970 -2.6139
   22DOPE   C23 2745   7.439   5.911  16.341 -0.2134  0.4411  0.0652
   22DOPE   H3R 2746   7.338   5.955  16.350 -1.0103 -1.0629 -1.1478
   22DOPE   H3S 2747   7.405   5.805  16.346 -1.0104  0.6772 -0.3003
   22DOPE   C24 2748   7.516   5.920  16.209 -0.4221  0.1977  0.5295
   22DOPE   H4R 2749   7.570   5.827  16.182 -0.3985  0.9136 -2.0999
   22DOPE   H4S 2750   7.594   5.998  16.225  1.2500 -1.6602  1.9977
   22DOPE   C25 2751   7.434   5.960  16.080  0.5616 -0.4682  0.6877
   22DOPE   H5R 2752   7.398   6.063  16.103 -0.2138 -1.0909  2.4703
   22DOPE   H5S 2753   7.350   5.888  16.070  2.2347 -2.3997 -0.0569
   22DOPE   C26 2754   7.508   5.969  15.943 -0.1470 -0.5198 -0.4321
   22DOPE   H6R 2755   7.551   5.874  15.904  0.6425 -0.2613 -0.1999
   22DOPE   H6S 2756   7.600   6.027  15.964  0.6241 -1.8601 -0.0045
   22DOPE   C27 2757   7.424   6.021  15.828 -0.1289  0.2971 -0.3851
   22DOPE   H7R 2758   7.404   6.127  15.854  0.2046  0.2631  0.0067
   22DOPE   H7S 2759   7.319   5.984  15.833 -0.6866  1.9990  2.7789
   22DOPE   C28 2760   7.490   6.008  15.688  0.4166  0.2182  0.0846
   22DOPE   H8R 2761   7.522   5.905  15.664 -0.5249 -0.7117  2.5813
   22DOPE   H8S 2762   7.586   6.064  15.693  1.1431 -0.9922  0.0411
   22DOPE   C29 2763   7.392   6.062  15.582  0.2272  0.0023  0.2489
   22DOPE   H9R 2764   7.352   6.162  15.601  0.5485  0.2162 -0.1885
   22DOPE  C210 2765   7.335   5.992  15.485 -0.5179 -0.1000  0.8480
   22DOPE  H10R 2766   7.272   6.051  15.416 -2.1908 -0.8561  1.6684
   22DOPE  C211 2767   7.371   5.857  15.436 -0.2736 -0.2293 -0.4162
   22DOPE  H11R 2768   7.294   5.781  15.461 -0.2107 -0.7449 -1.6653
   22DOPE  H11S 2769   7.472   5.826  15.472  0.4157  2.5503  0.2289
   22DOPE  C212 2770   7.381   5.862  15.284 -0.3823  0.4983 -0.0899
   22DOPE  H12R 2771   7.426   5.769  15.244  3.1457  1.5130  1.1590
   22DOPE  H12S 2772   7.451   5.943  15.255 -0.4966  0.1587 -1.3587
   22DOPE  C213 2773   7.241   5.864  15.217  0.0766 -0.0659 -0.5517
   22DOPE  H13R 2774   7.192   5.958  15.252 -0.5759 -0.6414  0.1223
   22DOPE  H13S 2775   7.172   5.783  15.248 -0.9366  1.4780  1.4219
   22DOPE  C214 2776   7.249   5.856  15.067 -0.0524  0.0662  0.7059
   22DOPE  H14R 2777   7.293   5.760  15.033  0.2870  0.8437 -1.1711
   22DOPE  H14S 2778   7.325   5.927  15.029  1.8927 -1.7953  0.9449
   22DOPE  C215 2779   7.117   5.866  14.996 -0.4503 -0.3051 -0.5118
   22DOPE  H15R 2780   7.067   5.956  15.037  0.3467  0.6891 -1.6675
   22DOPE  H15S 2781   7.054   5.778  15.020 -0.7358 -0.6390 -2.3351
   22DOPE  C216 2782   7.143   5.890  14.848  0.5009 -0.2914  0.2537
   22DOPE  H16R 2783   7.198   5.801  14.808  0.5622 -0.9068  1.6360
   22DOPE  H16S 2784   7.193   5.987  14.826  1.1408 -0.3379  1.4615
   22DOPE  C217 2785   7.016   5.896  14.767  0.5254 -0.4183 -0.6580
   22DOPE  H17R 2786   6.958   5.982  14.806  1.9773  0.5942 -0.6576
   22DOPE  H17S 2787   6.954   5.811  14.802 -0.9738  0.7014 -0.5202
   22DOPE  C218 2788   7.042   5.895  14.613 -1.0125  0.1213  0.9645
   22DOPE  H18R 2789   7.089   5.796  14.594 -0.1734  0.9950 -2.1140
   22DOPE  H18S 2790   7.111   5.979  14.592 -0.5574  0.4545  3.4556
   22DOPE  H18T 2791   6.948   5.899  14.554 -0.4901  1.4376  0.1789
   22DOPE   C33 2792   7.824   5.758  15.975 -0.2626 -0.1982  0.1327
   22DOPE   H3X 2793   7.713   5.763  15.979 -0.2859  1.2213 -1.4659
   22DOPE   H3Y 2794   7.873   5.659  15.960  1.1538  0.9511 -4.3458
   22DOPE   C34 2795   7.862   5.839  15.847 -0.3370  0.0478  0.3881
   22DOPE   H4X 2796   7.819   5.941  15.837  1.1829  0.7561  0.8055
   22DOPE   H4Y 2797   7.973   5.844  15.843 -0.3815  0.7007 -0.1389
   22DOPE   C35 2798   7.818   5.764  15.724 -0.1862 -0.0796 -0.1883
   22DOPE   H5X 2799   7.707   5.753  15.723 -0.3571  1.2069  1.5282
   22DOPE   H5Y 2800   7.857   5.660  15.714 -1.7034 -0.6778 -0.2101
   22DOPE   C36 2801   7.862   5.831  15.593 -0.3800 -0.1858  0.3462
   22DOPE   H6X 2802   7.972   5.846  15.603 -0.1748 -1.1722 -0.2663
   22DOPE   H6Y 2803   7.806   5.927  15.594  2.0178  1.3557  2.7686
   22DOPE   C37 2804   7.812   5.734  15.488 -0.4668  0.5752 -0.4057
   22DOPE   H7X 2805   7.869   5.639  15.500  1.5418  1.8977  1.3112
   22DOPE   H7Y 2806   7.708   5.708  15.518  1.0094 -2.3582  2.8708
   22DOPE   C38 2807   7.839   5.785  15.349 -0.3963 -0.5804 -0.2578
   22DOPE   H8X 2808   7.943   5.813  15.322  0.1158 -1.2810  0.8869
   22DOPE   H8Y 2809   7.784   5.881  15.348  1.6948  0.6875 -0.1404
   22DOPE   C39 2810   7.787   5.678  15.249 -0.6844  0.2104  0.2121
   22DOPE   H9X 2811   7.838   5.586  15.278  0.5364  1.3268  1.7713
   22DOPE  C310 2812   7.732   5.696  15.126  0.2879 -0.4565 -1.0707
   22DOPE  H10X 2813   7.693   5.611  15.069 -2.1640  0.6544 -1.1643
   22DOPE  C311 2814   7.691   5.840  15.086 -0.2850 -0.1515  0.9666
   22DOPE  H11X 2815   7.581   5.839  15.100 -0.5903 -3.1537 -0.5927
   22DOPE  H11Y 2816   7.715   5.923  15.155 -0.3422  0.9570 -0.2972
   22DOPE  C312 2817   7.729   5.898  14.943  0.6548  0.6453  0.0097
   22DOPE  H12X 2818   7.670   5.837  14.871  1.0746  0.4056 -0.1304
   22DOPE  H12Y 2819   7.838   5.885  14.930  0.5507 -0.3787  0.0690
   22DOPE  C313 2820   7.696   6.048  14.926 -0.4318  0.6159  0.5168
   22DOPE  H13X 2821   7.587   6.043  14.948 -0.5779 -1.9963 -0.3836
   22DOPE  H13Y 2822   7.756   6.101  15.003  4.1001 -1.2795 -1.3621
   22DOPE  C314 2823   7.696   6.101  14.780  0.0776  0.0229  1.3350
   22DOPE  H14X 2824   7.648   6.019  14.722  0.0717  1.2329 -0.4422
   22DOPE  H14Y 2825   7.799   6.107  14.737  0.0952 -0.0030  1.3742
   22DOPE  C315 2826   7.618   6.227  14.759 -0.0824 -0.4062 -0.0090
   22DOPE  H15X 2827   7.679   6.315  14.789  0.8392 -1.4307  1.2698
   22DOPE  H15Y 2828   7.529   6.235  14.825  0.1070 -1.8917  0.4722
   22DOPE  C316 2829   7.564   6.256  14.618  0.1088  0.2830 -0.1190
   22DOPE  H16X 2830   7.494   6.341  14.632  0.7890  0.8771 -0.2707
   22DOPE  H16Y 2831   7.501   6.168  14.592  1.0643  0.3209 -2.9488
   22DOPE  C317 2832   7.671   6.288  14.502 -0.5068 -0.2465 -0.2578
   22DOPE  H17X 2833   7.735   6.367  14.547  0.7103  0.5342 -3.0877
   22DOPE  H17Y 2834   7.734   6.199  14.481  0.9450  0.6073  0.3223
   22DOPE  C318 2835   7.613   6.336  14.379  0.5760  0.2728  1.1231
   22DOPE  H18X 2836   7.609   6.261  14.298 -1.9788  1.3369  0.1554
   22DOPE  H18Y 2837   7.513   6.383  14.396  0.3601  0.2618 -0.0366
   22DOPE  H18Z 2838   7.672   6.418  14.333  0.5770 -0.2721  0.1416
   23DOPE     N 2839   3.987   0.120  17.553  0.4733  0.1673  0.5686
   23DOPE   HN1 2840   3.941   0.071  17.633  0.2276 -1.5933 -0.6024
   23DOPE   HN2 2841   4.067   0.066  17.515  1.1317  1.1836  0.4662
   23DOPE   HN3 2842   4.024   0.209  17.592  0.9867 -0.8370  2.5014
   23DOPE   C12 2843   3.883   0.138  17.434 -0.8486  0.0310  0.1007
   23DOPE  H12A 2844   3.795   0.189  17.478 -0.3712 -1.0891  2.5122
   23DOPE  H12B 2845   3.854   0.039  17.395 -4.0100  0.0580  2.0661
   23DOPE   C11 2846   3.961   0.237  17.332 -0.2169 -0.0941  0.7109
   23DOPE  H11A 2847   3.886   0.261  17.254  0.1852  1.8109  0.8558
   23DOPE  H11B 2848   4.043   0.177  17.286 -1.7391 -3.1734  1.7833
   23DOPE     P 2849   4.036   0.487  17.308  0.2481 -0.1840  0.2026
   23DOPE   O13 2850   4.182   0.506  17.320 -0.3975 -0.1209  0.2035
   23DOPE   O14 2851   3.945   0.601  17.349 -0.5692 -0.2698  0.2857
   23DOPE   O11 2852   3.998   0.442  17.157 -0.1156  0.2165  0.0602
   23DOPE   O12 2853   4.000   0.359  17.386  0.0938 -0.2852 -0.3755
   23DOPE    C1 2854   4.044   0.498  17.032  0.4318 -0.0673  0.3271
   23DOPE    HA 2855   4.150   0.527  17.051  1.2223 -0.4934 -2.8689
   23DOPE    HB 2856   3.980   0.585  17.004  0.9622 -0.2056 -1.4341
   23DOPE    C2 2857   4.056   0.394  16.916  0.4487  0.7233  0.0793
   23DOPE    HS 2858   4.089   0.439  16.820  0.5057  0.5791  0.0333
   23DOPE   O21 2859   3.934   0.317  16.897  0.1134 -0.0747  0.4588
   23DOPE   C21 2860   3.850   0.371  16.810 -0.3524  0.0763  0.0993
   23DOPE   O22 2861   3.872   0.460  16.730  0.4666 -0.2589 -0.4757
   23DOPE   C22 2862   3.725   0.288  16.804  1.2442  0.4629 -0.4543
   23DOPE   H2R 2863   3.663   0.341  16.880  2.6540  0.8548  0.4592
   23DOPE   H2S 2864   3.744   0.187  16.846 -2.2023  0.9361  2.6686
   23DOPE    C3 2865   4.172   0.299  16.957  0.1333  0.0004  0.4377
   23DOPE    HX 2866   4.133   0.232  17.036 -0.1131  0.1942  0.4796
   23DOPE    HY 2867   4.254   0.356  17.006  1.2441 -0.2592 -1.0308
   23DOPE   O31 2868   4.208   0.224  16.836 -0.0408  0.6556 -0.3811
   23DOPE   C31 2869   4.326   0.259  16.789  0.0967 -0.3359  0.3166
   23DOPE   O32 2870   4.394   0.357  16.824  0.9704  0.0897  0.4486
   23DOPE   C32 2871   4.369   0.176  16.666  0.1542 -0.2635 -0.7899
   23DOPE   H2X 2872   4.291   0.184  16.587 -0.5357  0.2808 -0.0675
   23DOPE   H2Y 2873   4.457   0.233  16.629  0.8288 -0.3177  0.6453
   23DOPE   C23 2874   3.649   0.278  16.675 -0.3638 -0.8621 -0.4735
   23DOPE   H3R 2875   3.671   0.366  16.610  0.2870 -0.7309 -0.0745
   23DOPE   H3S 2876   3.539   0.273  16.693 -0.3684  0.8107  0.1435
   23DOPE   C24 2877   3.692   0.152  16.590 -0.3381  0.1654  0.1851
   23DOPE   H4R 2878   3.698   0.068  16.663  1.7926  0.3144  0.2537
   23DOPE   H4S 2879   3.796   0.170  16.556 -0.4044 -0.7201 -0.5275
   23DOPE   C25 2880   3.600   0.126  16.467 -0.2477 -0.4156  0.2432
   23DOPE   H5R 2881   3.610   0.220  16.409  1.0969 -1.8142 -1.9140
   23DOPE   H5S 2882   3.499   0.117  16.514 -0.4776 -0.6438 -0.2850
   23DOPE   C26 2883   3.642  -0.002  16.403  0.1562 -0.0790 -0.6426
   23DOPE   H6R 2884   3.625  -0.092  16.466 -0.3736  0.8010  0.4898
   23DOPE   H6S 2885   3.749   0.009  16.377  0.6518 -0.6727  1.0078
   23DOPE   C27 2886   3.556  -0.041  16.287 -0.1890 -0.7485  0.3131
   23DOPE   H7R 2887   3.540   0.043  16.216  1.9393  0.3101  1.0158
   23DOPE   H7S 2888   3.451  -0.063  16.318  0.1515 -0.5853  1.6136
   23DOPE   C28 2889   3.609  -0.162  16.209 -0.1990 -0.8125 -0.5213
   23DOPE   H8R 2890   3.531  -0.228  16.164 -0.6085  0.0255 -1.0661
   23DOPE   H8S 2891   3.649  -0.221  16.294  0.0641  2.5205  1.8904
   23DOPE   C29 2892   3.714  -0.117  16.115  0.1642 -0.1911 -0.8319
   23DOPE   H9R 2893   3.770  -0.029  16.149 -0.4325  0.2133 -0.8844
   23DOPE  C210 2894   3.710  -0.150  15.983 -0.6664 -0.0918 -0.1557
   23DOPE  H10R 2895   3.777  -0.093  15.917  0.1895 -1.4557 -0.5006
   23DOPE  C211 2896   3.623  -0.249  15.913 -0.3096 -0.1146 -0.5241
   23DOPE  H11R 2897   3.540  -0.276  15.982  0.4448  2.7330  1.7300
   23DOPE  H11S 2898   3.675  -0.347  15.909  0.6079  0.3038  0.5818
   23DOPE  C212 2899   3.585  -0.204  15.776 -0.1885  0.6375 -0.9886
   23DOPE  H12R 2900   3.536  -0.289  15.724  1.2622  0.2811 -1.8168
   23DOPE  H12S 2901   3.673  -0.190  15.710  0.5729 -2.0713 -0.6451
   23DOPE  C213 2902   3.487  -0.079  15.783  0.5192 -0.7840  0.4784
   23DOPE  H13R 2903   3.541   0.000  15.838 -0.2155 -1.2487  1.8964
   23DOPE  H13S 2904   3.414  -0.123  15.854  0.2012  1.6449  1.7492
   23DOPE  C214 2905   3.430  -0.040  15.647  0.2373 -0.2543  0.2407
   23DOPE  H14R 2906   3.354   0.041  15.650 -0.2048 -0.5584 -1.5790
   23DOPE  H14S 2907   3.371  -0.125  15.605  1.9166 -0.5917 -1.5858
   23DOPE  C215 2908   3.521   0.001  15.536 -0.4781 -0.3061  0.3179
   23DOPE  H15R 2909   3.596  -0.081  15.526 -0.2547 -0.0610 -0.0526
   23DOPE  H15S 2910   3.579   0.087  15.577 -2.0518  0.8058  0.2769
   23DOPE  C216 2911   3.471   0.024  15.399 -0.5422  0.2412 -0.4669
   23DOPE  H16R 2912   3.434  -0.074  15.363  0.7009  0.2608 -1.8988
   23DOPE  H16S 2913   3.550   0.042  15.322 -1.3254 -0.8150 -1.5551
   23DOPE  C217 2914   3.366   0.130  15.388  0.2363  1.2740 -0.3250
   23DOPE  H17R 2915   3.286   0.115  15.464  0.1154  0.3010 -0.6285
   23DOPE  H17S 2916   3.305   0.126  15.296 -0.2016 -0.8598  0.0012
   23DOPE  C218 2917   3.429   0.270  15.422  0.8330  0.0165 -0.2407
   23DOPE  H18R 2918   3.345   0.342  15.413  1.0031  0.0474 -2.0040
   23DOPE  H18S 2919   3.506   0.302  15.348 -0.5210 -0.6413 -1.9996
   23DOPE  H18T 2920   3.469   0.271  15.525  0.5683 -0.2956 -0.1321
   23DOPE   C33 2921   4.419   0.037  16.705 -1.1687 -0.1306 -0.4041
   23DOPE   H3X 2922   4.348  -0.029  16.761 -0.4186  0.2181  1.0207
   23DOPE   H3Y 2923   4.498   0.055  16.781 -1.7725 -1.3825  0.5729
   23DOPE   C34 2924   4.459  -0.035  16.571 -0.6887 -0.3656 -0.3661
   23DOPE   H4X 2925   4.373  -0.032  16.501 -0.1965 -0.7424 -0.9899
   23DOPE   H4Y 2926   4.546   0.018  16.529  0.5264 -0.9199  1.3282
   23DOPE   C35 2927   4.507  -0.179  16.596  0.6280  0.1137 -0.3214
   23DOPE   H5X 2928   4.416  -0.242  16.610  1.1973 -1.4925 -3.1246
   23DOPE   H5Y 2929   4.571  -0.176  16.687  0.4773  2.4327 -0.2545
   23DOPE   C36 2930   4.592  -0.241  16.484  0.2468 -0.1205  0.4833
   23DOPE   H6X 2931   4.528  -0.267  16.397  0.5924  0.1689  0.1383
   23DOPE   H6Y 2932   4.625  -0.335  16.532 -0.7548 -1.6196 -1.5889
   23DOPE   C37 2933   4.720  -0.169  16.431  0.3984  0.4192 -0.2714
   23DOPE   H7X 2934   4.693  -0.061  16.424 -1.7290 -0.0870 -0.6185
   23DOPE   H7Y 2935   4.786  -0.177  16.520  0.2033  2.2100  0.0803
   23DOPE   C38 2936   4.791  -0.244  16.316  0.3002  0.0721  0.0556
   23DOPE   H8X 2937   4.890  -0.194  16.307  0.0524  0.5225 -0.2669
   23DOPE   H8Y 2938   4.740  -0.211  16.222 -0.8504  2.2818  1.3677
   23DOPE   C39 2939   4.818  -0.392  16.333 -0.0399  0.1702  0.8107
   23DOPE   H9X 2940   4.838  -0.421  16.437  3.3187 -0.4152  0.1211
   23DOPE  C310 2941   4.828  -0.488  16.239 -0.7172 -0.2743  0.1200
   23DOPE  H10X 2942   4.837  -0.589  16.282 -0.6891  0.9094  3.0934
   23DOPE  C311 2943   4.802  -0.474  16.094 -0.0926 -0.3432 -0.2166
   23DOPE  H11X 2944   4.754  -0.375  16.080 -0.3784 -0.3275  0.8245
   23DOPE  H11Y 2945   4.897  -0.467  16.037 -0.3167 -1.1666 -0.7116
   23DOPE  C312 2946   4.717  -0.586  16.036  0.1187 -0.4577 -0.5977
   23DOPE  H12X 2947   4.621  -0.582  16.092  0.8062  0.1663  0.5756
   23DOPE  H12Y 2948   4.761  -0.685  16.059  2.3028  0.1192 -1.9944
   23DOPE  C313 2949   4.698  -0.569  15.887  0.1529 -0.1969 -0.1413
   23DOPE  H13X 2950   4.700  -0.463  15.855  0.9444 -0.0383  0.3855
   23DOPE  H13Y 2951   4.780  -0.617  15.828  0.9543 -0.8004  1.4018
   23DOPE  C314 2952   4.568  -0.641  15.840  0.2475 -0.0605  0.5164
   23DOPE  H14X 2953   4.478  -0.583  15.868 -1.0263 -0.0126 -3.1782
   23DOPE  H14Y 2954   4.561  -0.745  15.877  0.3426 -0.3678 -0.3081
   23DOPE  C315 2955   4.560  -0.658  15.692 -0.4334 -0.3278 -0.4893
   23DOPE  H15X 2956   4.461  -0.698  15.660 -0.2032 -0.7491 -0.6686
   23DOPE  H15Y 2957   4.631  -0.733  15.652 -0.5183 -0.6089 -0.1073
   23DOPE  C316 2958   4.589  -0.536  15.604 -0.0580 -0.2238  0.4306
   23DOPE  H16X 2959   4.699  -0.527  15.590 -0.1974  1.6697  0.2956
   23DOPE  H16Y 2960   4.551  -0.441  15.647  2.6957  0.6271  1.1706
   23DOPE  C317 2961   4.522  -0.554  15.468 -0.5913  0.7712 -0.3844
   23DOPE  H17X 2962   4.568  -0.634  15.407 -1.1600  1.8379 -2.2641
   23DOPE  H17Y 2963   4.418  -0.588  15.486  0.4489 -1.1333  3.0820
   23DOPE  C318 2964   4.529  -0.427  15.378 -0.1194 -0.1290 -0.7240
   23DOPE  H18X 2965   4.635  -0.401  15.363  0.2443 -0.5658  0.9271
   23DOPE  H18Y 2966   4.485  -0.442  15.277 -0.6034  0.7050 -0.6477
   23DOPE  H18Z 2967   4.475  -0.351  15.439 -1.5887 -2.1947  0.7118
   24DOPE     N 2968   6.667   7.696  16.898 -0.1345  0.0435  0.5237
   24DOPE   HN1 2969   6.594   7.747  16.951 -0.5227 -0.1055  0.1343
   24DOPE   HN2 2970   6.653   7.593  16.904  0.4289  0.0140  1.5385
   24DOPE   HN3 2971   6.763   7.710  16.937  0.8412 -3.9089 -0.0126
   24DOPE   C12 2972   6.673   7.739  16.761  0.9540  0.1240  0.0830
   24DOPE  H12A 2973   6.743   7.674  16.703 -1.1697 -2.7686  0.5575
   24DOPE  H12B 2974   6.705   7.846  16.764 -0.6297  0.6314 -0.2001
   24DOPE   C11 2975   6.533   7.724  16.703  0.1298 -0.5943 -0.6154
   24DOPE  H11A 2976   6.506   7.617  16.690 -1.5923 -0.5392  1.8476
   24DOPE  H11B 2977   6.531   7.766  16.600 -0.0601  0.0298 -0.3617
   24DOPE     P 2978   6.282   7.768  16.753 -0.0394  0.4117  0.2835
   24DOPE   O13 2979   6.192   7.856  16.830  0.1014  0.3886  0.2629
   24DOPE   O14 2980   6.263   7.622  16.768 -0.3381  0.6720  0.1288
   24DOPE   O11 2981   6.265   7.794  16.599 -0.8467  0.1447 -0.3864
   24DOPE   O12 2982   6.436   7.800  16.782 -0.4528 -0.0454  0.4408
   24DOPE    C1 2983   6.185   7.902  16.543 -0.1630  0.1887 -0.7552
   24DOPE    HA 2984   6.170   7.990  16.609 -1.3857 -1.1929  0.9299
   24DOPE    HB 2985   6.080   7.865  16.536 -0.0255 -0.1327 -1.1737
   24DOPE    C2 2986   6.248   7.942  16.412  0.2241  0.1086 -0.4997
   24DOPE    HS 2987   6.178   8.014  16.363  1.2932  1.3577 -0.2304
   24DOPE   O21 2988   6.288   7.832  16.325  0.0279 -0.2387 -0.1102
   24DOPE   C21 2989   6.196   7.794  16.243 -0.0666 -0.0689  0.4827
   24DOPE   O22 2990   6.077   7.825  16.240 -0.1640 -0.0190 -0.1327
   24DOPE   C22 2991   6.262   7.698  16.134 -0.2907  0.7202  0.7794
   24DOPE   H2R 2992   6.186   7.618  16.140 -2.6175  2.6941 -0.7804
   24DOPE   H2S 2993   6.367   7.669  16.156 -0.0339  1.0356  0.0081
   24DOPE    C3 2994   6.374   8.025  16.441  0.3308  0.6521  0.0679
   24DOPE    HX 2995   6.447   7.978  16.511 -0.5370  0.3822  0.8164
   24DOPE    HY 2996   6.343   8.116  16.497  1.0191  1.3955 -0.7298
   24DOPE   O31 2997   6.428   8.080  16.319  0.3093 -0.1138  0.4393
   24DOPE   C31 2998   6.543   8.023  16.269 -0.7845  0.9203 -0.0778
   24DOPE   O32 2999   6.610   7.944  16.331  0.2378 -0.1427 -0.1969
   24DOPE   C32 3000   6.575   8.083  16.136  0.4993  0.0565  0.0633
   24DOPE   H2X 3001   6.593   7.993  16.073 -0.3212 -1.4217  1.8426
   24DOPE   H2Y 3002   6.483   8.133  16.097  1.2683  2.3929  1.0380
   24DOPE   C23 3003   6.246   7.759  15.995 -0.4738  0.2969  0.2222
   24DOPE   H3R 3004   6.137   7.781  16.002 -0.8977 -1.6622  0.2629
   24DOPE   H3S 3005   6.260   7.679  15.918  0.7556 -1.2715  1.9884
   24DOPE   C24 3006   6.343   7.881  15.968 -0.2104  0.3190  0.7847
   24DOPE   H4R 3007   6.442   7.832  15.958 -0.3955  0.2364 -0.9401
   24DOPE   H4S 3008   6.343   7.935  16.065  0.2591  1.4879  0.1443
   24DOPE   C25 3009   6.317   7.950  15.833  0.8331 -0.1628  0.0578
   24DOPE   H5R 3010   6.210   7.977  15.824  1.0618  0.6665 -0.2680
   24DOPE   H5S 3011   6.339   7.882  15.748  0.0389 -0.6273  0.2089
   24DOPE   C26 3012   6.395   8.079  15.808 -0.4007 -0.0305 -0.5650
   24DOPE   H6R 3013   6.504   8.078  15.830 -0.0768 -2.6667 -1.8972
   24DOPE   H6S 3014   6.351   8.156  15.875  0.2618  1.4062 -1.7214
   24DOPE   C27 3015   6.383   8.126  15.660 -0.1262  0.6796  0.1675
   24DOPE   H7R 3016   6.276   8.110  15.636 -0.1990 -0.7540  1.3353
   24DOPE   H7S 3017   6.451   8.065  15.597 -0.1318  0.4046  0.4261
   24DOPE   C28 3018   6.411   8.271  15.630  0.9434  0.4568 -0.0226
   24DOPE   H8R 3019   6.498   8.302  15.692  1.6654 -0.8499 -0.3408
   24DOPE   H8S 3020   6.329   8.339  15.662  0.3876 -0.1945 -0.0332
   24DOPE   C29 3021   6.432   8.290  15.479 -0.3544  0.1530  0.4552
   24DOPE   H9R 3022   6.346   8.321  15.418 -0.0185  0.4684  0.1319
   24DOPE  C210 3023   6.548   8.287  15.409 -0.5718 -0.1021  0.6542
   24DOPE  H10R 3024   6.542   8.286  15.299  1.3519 -2.7147  0.4813
   24DOPE  C211 3025   6.676   8.235  15.464  0.4214 -0.0033 -0.1641
   24DOPE  H11R 3026   6.671   8.124  15.459  1.3415 -0.0098 -3.4890
   24DOPE  H11S 3027   6.679   8.252  15.574 -1.2329 -0.4206 -0.0318
   24DOPE  C212 3028   6.802   8.287  15.395 -0.2613  0.2969  0.2987
   24DOPE  H12R 3029   6.887   8.249  15.456  0.2742 -0.0773 -0.6511
   24DOPE  H12S 3030   6.809   8.397  15.410 -0.9564  0.3803  0.0420
   24DOPE  C213 3031   6.834   8.256  15.242 -0.3600 -0.0819  0.0588
   24DOPE  H13R 3032   6.748   8.288  15.180  0.5123 -1.8376 -2.2068
   24DOPE  H13S 3033   6.845   8.147  15.225  4.9283  0.4127 -1.3241
   24DOPE  C214 3034   6.975   8.311  15.209  0.6346 -0.2579  0.2149
   24DOPE  H14R 3035   7.048   8.247  15.262 -0.3533  0.3491  2.4499
   24DOPE  H14S 3036   6.992   8.416  15.239  0.2641  0.2575 -1.2679
   24DOPE  C215 3037   7.008   8.298  15.055  0.3159  0.2855  0.0075
   24DOPE  H15R 3038   6.914   8.309  14.998  0.0727 -1.5237 -0.0036
   24DOPE  H15S 3039   7.050   8.199  15.029  1.3737  1.3278 -2.5874
   24DOPE  C216 3040   7.106   8.402  15.001  0.1421  0.7076 -0.7572
   24DOPE  H16R 3041   7.054   8.498  15.017 -1.5429 -0.2098 -0.4991
   24DOPE  H16S 3042   7.120   8.385  14.892 -1.5795  1.2756 -1.0978
   24DOPE  C217 3043   7.239   8.424  15.071 -0.4726  0.0899  0.6893
   24DOPE  H17R 3044   7.297   8.483  14.995 -0.8122 -1.3886 -0.7731
   24DOPE  H17S 3045   7.300   8.331  15.074 -0.5244 -0.0331 -0.8722
   24DOPE  C218 3046   7.228   8.502  15.207  0.1434 -0.8258  1.2885
   24DOPE  H18R 3047   7.207   8.438  15.295 -0.9086  0.8057  2.2962
   24DOPE  H18S 3048   7.149   8.579  15.196  0.2187 -1.0307 -1.0504
   24DOPE  H18T 3049   7.327   8.550  15.229 -1.1011  2.7267 -0.0796
   24DOPE   C33 3050   6.684   8.190  16.157  0.2064 -0.0426  0.5608
   24DOPE   H3X 3051   6.753   8.148  16.233 -1.6245 -2.1105  1.1903
   24DOPE   H3Y 3052   6.621   8.276  16.188 -0.7202 -0.6444  0.3769
   24DOPE   C34 3053   6.759   8.225  16.030  0.3581  0.4576  0.2650
   24DOPE   H4X 3054   6.683   8.249  15.953 -0.4852  0.0109  0.9428
   24DOPE   H4Y 3055   6.827   8.312  16.041  2.0187 -0.8073  0.3883
   24DOPE   C35 3056   6.846   8.104  15.978 -0.3047  0.0702  0.5914
   24DOPE   H5X 3057   6.786   8.012  15.963 -0.0652 -0.0945  0.6310
   24DOPE   H5Y 3058   6.912   8.074  16.063 -2.6417 -0.6630  2.2422
   24DOPE   C36 3059   6.910   8.157  15.850 -0.2106  0.5568 -0.2995
   24DOPE   H6X 3060   6.959   8.253  15.878  0.9917  0.0255 -0.4866
   24DOPE   H6Y 3061   6.837   8.188  15.773  1.0492  0.5831 -1.5189
   24DOPE   C37 3062   7.019   8.057  15.807 -0.0682 -0.3381 -0.3209
   24DOPE   H7X 3063   7.113   8.070  15.865  0.6421  2.0364 -1.8469
   24DOPE   H7Y 3064   6.982   7.954  15.827 -2.9994  0.6747 -0.0415
   24DOPE   C38 3065   7.056   8.070  15.662  0.2307 -0.1252  0.4573
   24DOPE   H8X 3066   6.975   8.034  15.595  1.7579  2.2682 -2.9178
   24DOPE   H8Y 3067   7.128   7.989  15.636  0.7391  0.9736 -1.7754
   24DOPE   C39 3068   7.107   8.206  15.625 -0.0254 -0.1230  0.5916
   24DOPE   H9X 3069   7.034   8.284  15.654  0.1324  1.1069 -2.0443
   24DOPE  C310 3070   7.223   8.235  15.553  0.5501  0.1746  0.2294
   24DOPE  H10X 3071   7.253   8.339  15.534 -0.1907  0.1150 -1.4004
   24DOPE  C311 3072   7.324   8.129  15.501  0.8195 -0.7946  0.0042
   24DOPE  H11X 3073   7.278   8.043  15.448  2.2764 -0.4507 -1.9192
   24DOPE  H11Y 3074   7.394   8.175  15.429  1.3402 -0.1867  0.8725
   24DOPE  C312 3075   7.411   8.070  15.622 -0.0268  0.1516 -0.1864
   24DOPE  H12X 3076   7.332   8.034  15.691 -0.6741  3.5020  0.9965
   24DOPE  H12Y 3077   7.463   8.157  15.666  0.4743 -0.0817 -0.3130
   24DOPE  C313 3078   7.514   7.965  15.572  0.0580  0.4846 -0.5597
   24DOPE  H13X 3079   7.563   7.982  15.474  0.3209  1.2784 -0.3042
   24DOPE  H13Y 3080   7.597   7.952  15.644  0.8116  0.9275 -1.3242
   24DOPE  C314 3081   7.450   7.828  15.567  0.1870 -0.1524 -0.0937
   24DOPE  H14X 3082   7.367   7.833  15.493 -0.8830  0.2426  1.0953
   24DOPE  H14Y 3083   7.399   7.808  15.664 -1.3043  1.9221 -0.3846
   24DOPE  C315 3084   7.549   7.713  15.539  0.0323  0.5432 -0.1556
   24DOPE  H15X 3085   7.625   7.696  15.618 -0.4957 -4.7203 -0.4271
   24DOPE  H15Y 3086   7.600   7.728  15.441 -1.3886  0.8395 -0.8754
   24DOPE  C316 3087   7.473   7.576  15.533 -0.0741  0.0182 -1.0471
   24DOPE  H16X 3088   7.366   7.607  15.535 -0.3152 -0.3565  3.9186
   24DOPE  H16Y 3089   7.481   7.525  15.631  0.1117  0.4009 -0.8610
   24DOPE  C317 3090   7.505   7.491  15.409  0.4943 -0.2575  0.1503
   24DOPE  H17X 3091   7.414   7.429  15.394 -2.1222  2.7797  2.2416
   24DOPE  H17Y 3092   7.500   7.561  15.323 -2.4376  2.0945  2.0321
   24DOPE  C318 3093   7.635   7.405  15.412  0.4358 -0.1543 -0.5994
   24DOPE  H18X 3094   7.605   7.304  15.447 -1.3426  1.1042  1.7843
   24DOPE  H18Y 3095   7.691   7.402  15.315 -0.5075  3.4588 -1.3893
   24DOPE  H18Z 3096   7.701   7.438  15.495  0.7254  0.0049 -0.8893
   25DOPE     N 3097   7.584   7.380  16.899 -0.2226 -0.2258 -0.4997
   25DOPE   HN1 3098   7.666   7.439  16.873  0.6716 -0.6350  1.2426
   25DOPE   HN2 3099   7.594   7.351  16.998 -1.0150  0.2698 -0.2599
   25DOPE   HN3 3100   7.581   7.298  16.836  0.2017 -0.4219 -0.2693
   25DOPE   C12 3101   7.454   7.456  16.896  0.1119 -0.2081  0.2819
   25DOPE  H12A 3102   7.443   7.514  16.801  0.2668  2.3514  1.7406
   25DOPE  H12B 3103   7.465   7.527  16.980  0.2536 -0.8193  0.7838
   25DOPE   C11 3104   7.337   7.356  16.913 -0.0148 -0.2891  0.3514
   25DOPE  H11A 3105   7.240   7.410  16.920  0.4032  0.7554 -1.4100
   25DOPE  H11B 3106   7.365   7.303  17.007 -0.7446 -0.5964  0.4058
   25DOPE     P 3107   7.201   7.188  16.752  0.0386  0.0474  0.0986
   25DOPE   O13 3108   7.084   7.273  16.788  0.3259  0.2660  0.0465
   25DOPE   O14 3109   7.196   7.047  16.793  0.6463  0.0997  0.3476
   25DOPE   O11 3110   7.218   7.196  16.596  0.0064  0.1414 -0.1671
   25DOPE   O12 3111   7.330   7.259  16.814  0.2746  0.6535 -0.4720
   25DOPE    C1 3112   7.268   7.317  16.538  0.3627  0.2270 -0.3261
   25DOPE    HA 3113   7.359   7.363  16.583  0.8278 -1.8680  1.0515
   25DOPE    HB 3114   7.192   7.397  16.549  0.4651  0.5918 -2.0387
   25DOPE    C2 3115   7.280   7.297  16.384 -0.2714 -0.6061 -0.3341
   25DOPE    HS 3116   7.291   7.398  16.338  0.0214 -0.7137 -0.5039
   25DOPE   O21 3117   7.166   7.228  16.331 -0.3634 -0.2102  0.7867
   25DOPE   C21 3118   7.060   7.302  16.317  0.4809  0.7787 -0.1660
   25DOPE   O22 3119   7.057   7.425  16.328  0.2804 -0.1224 -0.1508
   25DOPE   C22 3120   6.936   7.224  16.276  0.1486 -0.5329 -0.1023
   25DOPE   H2R 3121   6.863   7.300  16.239 -0.0904 -0.3878  0.6389
   25DOPE   H2S 3122   6.896   7.174  16.367  3.9691 -1.9117  0.9926
   25DOPE    C3 3123   7.396   7.208  16.348 -0.2727 -0.5571 -0.6085
   25DOPE    HX 3124   7.388   7.115  16.408  1.0753 -0.0969  0.3477
   25DOPE    HY 3125   7.492   7.253  16.381 -0.6338  0.2726 -0.6509
   25DOPE   O31 3126   7.400   7.187  16.209  0.1538  0.0035  0.1807
   25DOPE   C31 3127   7.363   7.068  16.159 -0.3582 -0.1959 -0.1495
   25DOPE   O32 3128   7.326   6.971  16.219  0.9825 -0.0581 -0.4992
   25DOPE   C32 3129   7.391   7.071  16.015  0.4820  0.2708  0.6676
   25DOPE   H2X 3130   7.360   7.168  15.972 -1.5485 -0.7618 -0.3503
   25DOPE   H2Y 3131   7.499   7.051  15.999 -0.0072 -1.1338 -1.3677
   25DOPE   C23 3132   6.949   7.123  16.165 -0.0693 -0.2041  0.0515
   25DOPE   H3R 3133   6.990   7.033  16.215 -0.8674 -0.2715  0.6002
   25DOPE   H3S 3134   7.031   7.146  16.093 -1.0137  2.3441 -0.3006
   25DOPE   C24 3135   6.816   7.100  16.088 -0.3713  0.0186  0.0339
   25DOPE   H4R 3136   6.778   7.201  16.059  0.5397  0.4635  0.3510
   25DOPE   H4S 3137   6.752   7.060  16.170 -0.0981 -0.3822  0.0519
   25DOPE   C25 3138   6.825   7.015  15.967 -0.1972  0.1166  0.6842
   25DOPE   H5R 3139   6.909   7.051  15.903 -1.2783  0.9210 -0.3176
   25DOPE   H5S 3140   6.736   7.026  15.902  1.4487  1.0352 -1.5608
   25DOPE   C26 3141   6.846   6.871  16.003 -0.0353  0.2732  0.2233
   25DOPE   H6R 3142   6.754   6.824  16.042  0.4545 -0.1596  0.8918
   25DOPE   H6S 3143   6.929   6.855  16.075 -0.8698 -1.9755  0.7502
   25DOPE   C27 3144   6.907   6.792  15.879  0.5615 -0.6716 -0.5875
   25DOPE   H7R 3145   6.932   6.689  15.911  0.7012 -0.1584  1.0547
   25DOPE   H7S 3146   7.003   6.843  15.854 -0.7417  2.1979 -0.1126
   25DOPE   C28 3147   6.811   6.804  15.758  0.2351  0.4327  0.3718
   25DOPE   H8R 3148   6.800   6.909  15.724  0.2268 -0.5454 -2.9699
   25DOPE   H8S 3149   6.709   6.766  15.778 -0.2154  1.3051 -0.2057
   25DOPE   C29 3150   6.872   6.727  15.647 -0.1635 -0.2633  0.7667
   25DOPE   H9R 3151   6.881   6.617  15.652 -0.2518 -0.3420 -0.5726
   25DOPE  C210 3152   6.913   6.776  15.527 -0.4798  0.5993 -0.1184
   25DOPE  H10R 3153   6.953   6.705  15.453  0.6000  0.7678  0.2784
   25DOPE  C211 3154   6.897   6.913  15.475  0.5192 -0.4590  0.1697
   25DOPE  H11R 3155   6.995   6.950  15.438  1.1921 -0.3667  1.9256
   25DOPE  H11S 3156   6.869   6.994  15.545  0.2268 -2.0490  2.0020
   25DOPE  C212 3157   6.787   6.925  15.369  0.2345  0.3896 -0.1169
   25DOPE  H12R 3158   6.687   6.898  15.410 -0.4514  0.1795 -1.8178
   25DOPE  H12S 3159   6.822   6.864  15.283  0.4827 -0.0659  0.3041
   25DOPE  C213 3160   6.761   7.066  15.315  0.0660 -0.2142  0.1762
   25DOPE  H13R 3161   6.847   7.133  15.295 -0.1239  0.1144  0.4598
   25DOPE  H13S 3162   6.702   7.121  15.392  1.8080  1.8437  0.1255
   25DOPE  C214 3163   6.676   7.049  15.190 -0.1197 -0.1056  0.7113
   25DOPE  H14R 3164   6.594   6.975  15.203  0.0905 -0.9634 -2.2526
   25DOPE  H14S 3165   6.749   7.027  15.109  0.4184 -0.5106  1.2991
   25DOPE  C215 3166   6.605   7.180  15.140 -0.7530  0.6772 -0.0769
   25DOPE  H15R 3167   6.521   7.212  15.206 -2.2371  2.5222 -2.6649
   25DOPE  H15S 3168   6.560   7.167  15.039  0.0169 -1.0447 -0.2364
   25DOPE  C216 3169   6.703   7.295  15.137  0.1105 -0.4357 -0.1571
   25DOPE  H16R 3170   6.775   7.269  15.056  0.3945  1.3155 -0.5075
   25DOPE  H16S 3171   6.752   7.309  15.236 -3.1804  1.8817  1.3390
   25DOPE  C217 3172   6.631   7.429  15.106 -0.0485 -0.0631 -0.1363
   25DOPE  H17R 3173   6.712   7.505  15.107  2.3330 -2.4604 -0.4932
   25DOPE  H17S 3174   6.569   7.463  15.192  2.4676 -1.6908  2.5183
   25DOPE  C218 3175   6.551   7.434  14.978  0.0809 -0.4180 -0.7230
   25DOPE  H18R 3176   6.624   7.413  14.897 -1.1761 -0.8789 -1.7761
   25DOPE  H18S 3177   6.508   7.535  14.963 -0.1585 -0.7217 -2.2851
   25DOPE  H18T 3178   6.460   7.370  14.985  1.2626 -1.9856  1.9358
   25DOPE   C33 3179   7.321   6.958  15.932  0.2933  0.1530 -0.2888
   25DOPE   H3X 3180   7.211   6.942  15.945  0.2578 -0.9268 -1.6889
   25DOPE   H3Y 3181   7.361   6.860  15.967 -1.4293  0.1317  1.8942
   25DOPE   C34 3182   7.344   6.983  15.782  0.6136  0.2932 -0.3926
   25DOPE   H4X 3183   7.315   7.090  15.774  0.1224  0.1322 -0.7944
   25DOPE   H4Y 3184   7.454   6.981  15.766  0.6794  1.0497 -0.0500
   25DOPE   C35 3185   7.264   6.889  15.693  0.1120  0.2455 -0.9419
   25DOPE   H5X 3186   7.156   6.913  15.681  0.4533  1.8976 -0.9468
   25DOPE   H5Y 3187   7.269   6.783  15.729 -0.5855 -0.0145 -1.6030
   25DOPE   C36 3188   7.306   6.878  15.551 -0.7398 -0.9181  0.9599
   25DOPE   H6X 3189   7.264   6.793  15.493  0.4725 -1.2036  0.4570
   25DOPE   H6Y 3190   7.413   6.847  15.559 -0.6718 -0.7197  0.8253
   25DOPE   C37 3191   7.318   7.015  15.468  0.2663 -0.6573 -0.9829
   25DOPE   H7X 3192   7.227   7.078  15.468  1.6012  1.5141  2.1161
   25DOPE   H7Y 3193   7.403   7.076  15.505 -0.4298 -0.5203  0.4309
   25DOPE   C38 3194   7.351   6.998  15.317  0.8914 -0.1880 -0.0802
   25DOPE   H8X 3195   7.270   6.940  15.267  1.2945 -0.6160 -0.2371
   25DOPE   H8Y 3196   7.447   6.944  15.302  2.6399  2.9499 -1.1031
   25DOPE   C39 3197   7.371   7.141  15.258 -0.2305 -0.1783  0.8945
   25DOPE   H9X 3198   7.472   7.180  15.277 -0.5948  1.7641 -0.8018
   25DOPE  C310 3199   7.285   7.209  15.177 -0.2352  0.1456 -0.4647
   25DOPE  H10X 3200   7.307   7.310  15.140 -1.2335  0.2804 -0.7335
   25DOPE  C311 3201   7.144   7.164  15.143 -0.1503 -0.3823 -0.1912
   25DOPE  H11X 3202   7.124   7.066  15.191  0.1249 -0.6502 -0.6099
   25DOPE  H11Y 3203   7.078   7.242  15.185  1.3082  0.4088  0.7350
   25DOPE  C312 3204   7.116   7.128  14.996  0.6370 -0.3954  0.2250
   25DOPE  H12X 3205   7.018   7.076  14.991  0.4857 -0.1836  0.8591
   25DOPE  H12Y 3206   7.205   7.070  14.965  2.7089  2.1732  0.9377
   25DOPE  C313 3207   7.109   7.249  14.901  0.3946 -0.7147  0.3304
   25DOPE  H13X 3208   7.062   7.331  14.960 -0.1037 -0.5613 -0.2704
   25DOPE  H13Y 3209   7.217   7.276  14.892  0.7117 -1.9723  0.2533
   25DOPE  C314 3210   7.044   7.229  14.761  0.4273  1.0801 -0.2272
   25DOPE  H14X 3211   7.063   7.131  14.714  0.2333  1.7002 -1.6587
   25DOPE  H14Y 3212   7.083   7.308  14.693 -0.9860  2.0153  0.0006
   25DOPE  C315 3213   6.892   7.248  14.769  0.2196 -0.2312  0.6150
   25DOPE  H15X 3214   6.865   7.356  14.774 -1.2590 -0.5407  0.0271
   25DOPE  H15Y 3215   6.848   7.197  14.858  0.3356  0.4149  1.0428
   25DOPE  C316 3216   6.827   7.216  14.632  0.1439 -0.0576  0.0230
   25DOPE  H16X 3217   6.727   7.266  14.636  0.9488  1.5517  1.4958
   25DOPE  H16Y 3218   6.812   7.108  14.611  0.3517 -0.5135  2.0579
   25DOPE  C317 3219   6.894   7.291  14.513  0.0798  0.3712 -0.2864
   25DOPE  H17X 3220   6.901   7.400  14.536  3.0668 -0.1331  1.7484
   25DOPE  H17Y 3221   6.997   7.258  14.486 -0.4585 -1.8854  0.2100
   25DOPE  C318 3222   6.807   7.273  14.385 -0.4403  0.3818  0.2535
   25DOPE  H18X 3223   6.700   7.287  14.409 -0.2393 -1.4061  2.4778
   25DOPE  H18Y 3224   6.840   7.349  14.310 -0.6165  1.7451  1.4921
   25DOPE  H18Z 3225   6.819   7.170  14.348 -2.4432 -0.2682  1.2824
   26DOPE     N 3226   8.225   7.760  16.782  0.4740  0.3327 -0.0663
   26DOPE   HN1 3227   8.203   7.784  16.881  0.4127 -1.1526  0.3068
   26DOPE   HN2 3228   8.328   7.770  16.776  0.4133  3.2193  1.8117
   26DOPE   HN3 3229   8.199   7.845  16.728  0.1025  1.2772  1.5464
   26DOPE   C12 3230   8.152   7.638  16.733  0.7273 -0.3024 -0.0758
   26DOPE  H12A 3231   8.142   7.567  16.818  2.2159 -0.5652 -0.0960
   26DOPE  H12B 3232   8.206   7.581  16.654 -0.4459 -0.2394 -0.9473
   26DOPE   C11 3233   8.005   7.680  16.682  0.0025 -0.5246  0.0656
   26DOPE  H11A 3234   7.964   7.584  16.643 -2.6724  0.5423  0.0261
   26DOPE  H11B 3235   8.008   7.753  16.599  2.5746 -1.6486 -0.9267
   26DOPE     P 3236   7.789   7.708  16.838 -0.3920  0.2451 -0.0766
   26DOPE   O13 3237   7.773   7.776  16.970 -0.0344  0.5348  0.1316
   26DOPE   O14 3238   7.745   7.567  16.823  0.7947 -0.2331  0.2569
   26DOPE   O11 3239   7.713   7.801  16.731  0.0068 -0.1366  0.6686
   26DOPE   O12 3240   7.934   7.732  16.796 -0.1322 -0.3752  0.0360
   26DOPE    C1 3241   7.722   7.946  16.745  0.1721  0.6992  0.1908
   26DOPE    HA 3242   7.818   7.984  16.785 -0.0160 -0.1173  1.4602
   26DOPE    HB 3243   7.640   7.982  16.811 -1.3428 -0.1998 -1.1063
   26DOPE    C2 3244   7.704   8.030  16.618 -0.2232 -0.5571 -0.1541
   26DOPE    HS 3245   7.602   8.024  16.574 -0.4947 -0.7763  0.4871
   26DOPE   O21 3246   7.798   7.995  16.520  0.2859  0.6599 -0.1247
   26DOPE   C21 3247   7.765   7.888  16.447  0.6027  0.3836 -0.1168
   26DOPE   O22 3248   7.652   7.845  16.439 -0.0439  0.7274 -0.3795
   26DOPE   C22 3249   7.886   7.869  16.357  0.7634 -0.0866 -0.4312
   26DOPE   H2R 3250   7.979   7.836  16.408 -0.5180 -2.9958  0.2211
   26DOPE   H2S 3251   7.909   7.970  16.318 -2.2442  0.4053 -1.1753
   26DOPE    C3 3252   7.734   8.178  16.647 -0.6659 -0.4034  0.1798
   26DOPE    HX 3253   7.836   8.187  16.690 -0.1109  2.9531 -1.4991
   26DOPE    HY 3254   7.660   8.219  16.719 -3.5450 -1.0527 -2.1882
   26DOPE   O31 3255   7.733   8.258  16.531 -0.7418  0.6134 -0.4184
   26DOPE   C31 3256   7.622   8.294  16.482  0.2077 -0.4713 -0.7164
   26DOPE   O32 3257   7.509   8.270  16.536 -0.7632  0.5071 -0.1923
   26DOPE   C32 3258   7.636   8.357  16.344 -0.4519  0.1131 -0.5262
   26DOPE   H2X 3259   7.545   8.419  16.329 -0.7867 -0.4013 -0.6435
   26DOPE   H2Y 3260   7.729   8.418  16.354 -0.0987 -0.6048  0.8088
   26DOPE   C23 3261   7.852   7.774  16.242  0.1523  0.1939  0.1453
   26DOPE   H3R 3262   7.759   7.796  16.186  1.3702 -1.1865 -2.6472
   26DOPE   H3S 3263   7.831   7.674  16.284 -0.1488  0.2170  0.0505
   26DOPE   C24 3264   7.967   7.756  16.139  0.1390 -0.3340  0.5116
   26DOPE   H4R 3265   7.942   7.671  16.072  0.5039 -0.0270 -0.0223
   26DOPE   H4S 3266   8.055   7.737  16.204  0.1643  2.8334  1.5498
   26DOPE   C25 3267   7.999   7.887  16.058  0.8137 -0.2330  0.0519
   26DOPE   H5R 3268   8.097   7.881  16.006  1.5346  1.4830  1.1310
   26DOPE   H5S 3269   8.006   7.967  16.134 -1.7323  0.6797 -0.5865
   26DOPE   C26 3270   7.892   7.910  15.951  0.0972  0.4610  0.5587
   26DOPE   H6R 3271   7.827   7.992  15.988 -0.8543  1.6032 -3.1973
   26DOPE   H6S 3272   7.832   7.818  15.933 -0.8031  0.8938  1.2746
   26DOPE   C27 3273   7.957   7.958  15.818  0.2897 -0.0596  0.4633
   26DOPE   H7R 3274   8.051   8.008  15.850  0.7264 -1.9034  2.3095
   26DOPE   H7S 3275   7.886   8.024  15.765  0.2434 -0.0768  0.5034
   26DOPE   C28 3276   7.998   7.845  15.710 -0.2504  0.1899 -1.0200
   26DOPE   H8R 3277   8.005   7.893  15.610  0.6944  0.8918 -0.6362
   26DOPE   H8S 3278   7.910   7.777  15.712 -1.1838  1.3425  1.4592
   26DOPE   C29 3279   8.134   7.782  15.750  0.0670 -0.1579  0.1601
   26DOPE   H9R 3280   8.211   7.861  15.747 -1.4538  1.4455  1.5506
   26DOPE  C210 3281   8.160   7.654  15.783 -0.2714 -0.2719 -0.7039
   26DOPE  H10R 3282   8.268   7.638  15.794 -0.3272  0.3097  1.0597
   26DOPE  C211 3283   8.068   7.537  15.816  0.1238  0.2865 -0.0906
   26DOPE  H11R 3284   7.980   7.538  15.748  0.4043  1.2168 -0.4435
   26DOPE  H11S 3285   8.024   7.550  15.917  2.6712  1.3699  0.9701
   26DOPE  C212 3286   8.135   7.407  15.787 -0.2802 -0.0754 -0.4269
   26DOPE  H12R 3287   8.139   7.392  15.678  0.5857  0.9566 -0.5526
   26DOPE  H12S 3288   8.062   7.331  15.822 -2.1956  0.9033 -2.0681
   26DOPE  C213 3289   8.274   7.383  15.847 -0.5332 -0.3785 -0.3953
   26DOPE  H13R 3290   8.276   7.414  15.953  0.2718  1.6699 -0.9543
   26DOPE  H13S 3291   8.346   7.452  15.798 -1.0915  0.4953 -0.0077
   26DOPE  C214 3292   8.331   7.244  15.811  0.3635 -0.1500  0.0610
   26DOPE  H14R 3293   8.253   7.170  15.838  0.0559  0.6543  1.4750
   26DOPE  H14S 3294   8.414   7.222  15.881  0.2067  1.1335  0.6936
   26DOPE  C215 3295   8.398   7.230  15.671 -0.4297  0.0675  0.4714
   26DOPE  H15R 3296   8.491   7.290  15.664 -1.2781  1.6608  1.9800
   26DOPE  H15S 3297   8.327   7.280  15.601  2.5623  3.6298 -0.3343
   26DOPE  C216 3298   8.422   7.084  15.642 -0.2546  0.2454 -0.6991
   26DOPE  H16R 3299   8.325   7.029  15.643 -1.6779  2.5587 -2.0761
   26DOPE  H16S 3300   8.496   7.037  15.711 -0.4378  0.5616 -0.2822
   26DOPE  C217 3301   8.467   7.061  15.496  0.0277 -0.0847 -0.0767
   26DOPE  H17R 3302   8.380   7.082  15.431 -1.1010 -2.9840  0.3587
   26DOPE  H17S 3303   8.480   6.952  15.482 -0.1715  0.0930 -1.8950
   26DOPE  C218 3304   8.589   7.131  15.449 -0.9106  0.5003  0.7133
   26DOPE  H18R 3305   8.679   7.114  15.512 -0.3972  0.9003  0.1026
   26DOPE  H18S 3306   8.571   7.237  15.424 -3.2856 -0.2685 -1.2325
   26DOPE  H18T 3307   8.621   7.079  15.356  1.2720  0.5888  1.3519
   26DOPE   C33 3308   7.649   8.254  16.238  0.7395  0.5644 -0.2064
   26DOPE   H3X 3309   7.740   8.191  16.249  0.3055 -0.3708 -1.6429
   26DOPE   H3Y 3310   7.658   8.311  16.143  1.2890 -0.9356 -1.0977
   26DOPE   C34 3311   7.525   8.158  16.225  0.2402  0.0753 -0.2207
   26DOPE   H4X 3312   7.521   8.102  16.321  1.6139  2.2157  1.1901
   26DOPE   H4Y 3313   7.434   8.221  16.224 -1.6904 -2.5626 -0.9278
   26DOPE   C35 3314   7.521   8.069  16.098  0.4493 -0.0502  0.1151
   26DOPE   H5X 3315   7.625   8.044  16.069  0.1340 -1.6504  0.2685
   26DOPE   H5Y 3316   7.475   8.132  16.020  0.9810  0.5607  0.2939
   26DOPE   C36 3317   7.458   7.933  16.119  0.2915 -0.0839 -0.5378
   26DOPE   H6X 3318   7.348   7.948  16.115  0.2110 -0.6778 -0.6641
   26DOPE   H6Y 3319   7.473   7.896  16.222 -0.3835 -0.1219 -0.4526
   26DOPE   C37 3320   7.498   7.831  16.015  0.2603 -0.0899  0.0462
   26DOPE   H7X 3321   7.503   7.864  15.909  4.2624 -0.4073 -0.0253
   26DOPE   H7Y 3322   7.608   7.821  16.029  0.9382  1.7151 -3.0261
   26DOPE   C38 3323   7.418   7.698  16.009 -0.5024  0.2552  0.7026
   26DOPE   H8X 3324   7.427   7.654  15.907  0.5798  1.3269  0.3029
   26DOPE   H8Y 3325   7.311   7.725  16.021 -1.0620 -2.0828  1.3569
   26DOPE   C39 3326   7.459   7.611  16.127 -0.5877  0.0852 -0.6121
   26DOPE   H9X 3327   7.415   7.636  16.224 -1.6620 -1.9436 -0.5164
   26DOPE  C310 3328   7.536   7.495  16.124  0.3664  0.4060  0.0017
   26DOPE  H10X 3329   7.529   7.430  16.213 -0.2438  0.4643  0.0025
   26DOPE  C311 3330   7.598   7.438  15.999 -0.4490  0.1009 -0.1310
   26DOPE  H11X 3331   7.559   7.338  15.968  0.5767 -0.5209  0.5140
   26DOPE  H11Y 3332   7.582   7.509  15.915 -3.5887 -1.6517 -1.2028
   26DOPE  C312 3333   7.751   7.440  16.014  0.3207  0.0961  0.1175
   26DOPE  H12X 3334   7.789   7.545  16.016  0.3107  0.1188 -0.5124
   26DOPE  H12Y 3335   7.793   7.397  15.921 -1.7477 -0.4633 -0.6147
   26DOPE  C313 3336   7.801   7.362  16.137 -0.1754 -0.0392  0.3715
   26DOPE  H13X 3337   7.744   7.388  16.229 -1.4480 -1.0083 -0.1205
   26DOPE  H13Y 3338   7.775   7.255  16.124  2.7607 -1.0199  1.6962
   26DOPE  C314 3339   7.949   7.381  16.160  0.4502  0.3831 -0.5138
   26DOPE  H14X 3340   7.983   7.486  16.171 -1.1461  0.7566  1.5076
   26DOPE  H14Y 3341   8.012   7.336  16.081  0.9885  1.4584 -0.7188
   26DOPE  C315 3342   7.984   7.326  16.299 -0.4400  0.2016  0.0494
   26DOPE  H15X 3343   7.957   7.219  16.313 -2.7805  0.5678 -1.2300
   26DOPE  H15Y 3344   7.917   7.379  16.371  1.4438 -0.4120  2.4000
   26DOPE  C316 3345   8.135   7.354  16.344 -0.2193 -0.5161 -0.1438
   26DOPE  H16X 3346   8.204   7.289  16.286  1.3596 -0.3288  1.4627
   26DOPE  H16Y 3347   8.137   7.312  16.447 -1.7807 -2.0846 -0.6904
   26DOPE  C317 3348   8.177   7.497  16.338 -0.1805 -0.4487 -0.0808
   26DOPE  H17X 3349   8.171   7.532  16.233  1.9123  0.5857  0.1022
   26DOPE  H17Y 3350   8.096   7.556  16.386 -0.2405 -0.4611 -0.1656
   26DOPE  C318 3351   8.321   7.518  16.397  0.3793 -0.1940 -0.3985
   26DOPE  H18X 3352   8.322   7.495  16.506  0.3158 -0.2981 -0.4179
   26DOPE  H18Y 3353   8.401   7.454  16.353  0.9363 -0.4479  0.9483
   26DOPE  H18Z 3354   8.347   7.626  16.399 -0.8355  0.0994  1.0736
   27DOPE     N 3355   4.720   2.001  16.667  0.1154 -0.5053  0.0453
   27DOPE   HN1 3356   4.669   2.055  16.740 -0.4183  0.6240 -1.1212
   27DOPE   HN2 3357   4.667   1.911  16.665  0.0427 -0.4563 -1.4865
   27DOPE   HN3 3358   4.815   1.969  16.695  1.0491  2.5714  0.6816
   27DOPE   C12 3359   4.728   2.064  16.535 -0.4375  1.3908  0.0724
   27DOPE  H12A 3360   4.633   2.123  16.528 -1.8411 -0.8785 -1.3053
   27DOPE  H12B 3361   4.740   1.978  16.467 -3.0897 -0.2200  1.4603
   27DOPE   C11 3362   4.866   2.140  16.526 -0.3975 -0.4259  0.8763
   27DOPE  H11A 3363   4.877   2.184  16.425 -0.1562 -3.0507 -0.2944
   27DOPE  H11B 3364   4.946   2.066  16.544  0.1666 -0.3302 -1.0857
   27DOPE     P 3365   4.954   2.365  16.645 -0.1180  0.3064  0.3838
   27DOPE   O13 3366   5.093   2.319  16.632  0.1611 -0.3327  0.1135
   27DOPE   O14 3367   4.907   2.411  16.778 -0.3020 -0.1367 -0.3498
   27DOPE   O11 3368   4.912   2.461  16.534 -0.0350  0.8809 -0.2239
   27DOPE   O12 3369   4.861   2.240  16.626 -0.0398  0.0496  0.1685
   27DOPE    C1 3370   4.783   2.499  16.490  0.7853  0.2559  0.6078
   27DOPE    HA 3371   4.786   2.609  16.478 -2.5741  0.3590 -0.1780
   27DOPE    HB 3372   4.698   2.484  16.560  0.0087  0.1679 -0.3407
   27DOPE    C2 3373   4.759   2.437  16.354  0.0407  0.1797  0.0703
   27DOPE    HS 3374   4.730   2.330  16.365  0.6743  0.1194  1.4542
   27DOPE   O21 3375   4.874   2.462  16.269  0.1922  0.0706 -0.1875
   27DOPE   C21 3376   4.910   2.354  16.191  0.1469  0.1267 -0.7020
   27DOPE   O22 3377   4.865   2.243  16.200  0.0669 -0.4203  0.4894
   27DOPE   C22 3378   5.015   2.395  16.088  0.1908 -0.6235  0.3123
   27DOPE   H2R 3379   5.115   2.355  16.116  0.7278  0.4724  0.0525
   27DOPE   H2S 3380   5.024   2.506  16.086  2.7312 -0.7543 -1.7571
   27DOPE    C3 3381   4.640   2.497  16.273  0.6782  0.2107  0.3591
   27DOPE    HX 3382   4.663   2.604  16.251 -0.9949  0.6195  0.4031
   27DOPE    HY 3383   4.546   2.497  16.332  0.9346 -3.5535  0.9849
   27DOPE   O31 3384   4.612   2.422  16.155  0.3727  0.9134  0.2658
   27DOPE   C31 3385   4.551   2.305  16.168 -0.0475  0.1542  0.4859
   27DOPE   O32 3386   4.501   2.261  16.272 -0.0023  0.2859  0.6311
   27DOPE   C32 3387   4.566   2.226  16.033 -0.3844  0.6608  0.3820
   27DOPE   H2X 3388   4.670   2.190  16.025 -0.9795 -0.6033 -3.3432
   27DOPE   H2Y 3389   4.494   2.141  16.035 -0.5615  0.7893 -0.2688
   27DOPE   C23 3390   4.985   2.353  15.943  0.3566  0.6253 -0.0299
   27DOPE   H3R 3391   4.885   2.378  15.901  0.7208  2.8247  0.3069
   27DOPE   H3S 3392   5.009   2.245  15.937 -0.1675  0.3365  2.1889
   27DOPE   C24 3393   5.085   2.423  15.844  0.2141 -0.1219 -0.5138
   27DOPE   H4R 3394   5.176   2.438  15.905  0.3202  0.2683 -0.7614
   27DOPE   H4S 3395   5.049   2.526  15.824  1.7321  0.7339  0.9253
   27DOPE   C25 3396   5.122   2.330  15.729  0.2105 -0.3452 -1.0713
   27DOPE   H5R 3397   5.168   2.244  15.782 -0.6212  0.7095  1.5325
   27DOPE   H5S 3398   5.203   2.384  15.676  0.6933  0.0398  0.0361
   27DOPE   C26 3399   5.011   2.265  15.643 -0.6318  0.0972  0.4607
   27DOPE   H6R 3400   4.949   2.346  15.600 -0.3790 -1.0170 -2.2024
   27DOPE   H6S 3401   4.943   2.211  15.713 -1.3192  1.0766  0.5714
   27DOPE   C27 3402   5.070   2.194  15.522  0.4460 -0.3068 -0.0627
   27DOPE   H7R 3403   5.111   2.270  15.453  0.2051 -0.5606 -0.4933
   27DOPE   H7S 3404   4.983   2.151  15.468  0.6287 -1.4370  0.5036
   27DOPE   C28 3405   5.174   2.090  15.549  0.5081 -0.3991 -0.8072
   27DOPE   H8R 3406   5.159   2.045  15.650 -0.2698  1.6208  0.0569
   27DOPE   H8S 3407   5.270   2.145  15.561  0.5963 -0.9708  1.7785
   27DOPE   C29 3408   5.191   1.984  15.440  0.2015  0.1412 -0.1539
   27DOPE   H9R 3409   5.087   1.955  15.416 -0.5987  0.2090  2.7658
   27DOPE  C210 3410   5.300   1.942  15.386  0.1934 -0.2625  0.2005
   27DOPE  H10R 3411   5.299   1.887  15.291 -0.8148  1.6858 -0.9738
   27DOPE  C211 3412   5.435   1.989  15.424 -1.2592 -0.1690 -0.1852
   27DOPE  H11R 3413   5.445   2.036  15.524  1.1851 -1.4762  0.2493
   27DOPE  H11S 3414   5.459   2.075  15.358  1.8018 -0.3603  0.5362
   27DOPE  C212 3415   5.553   1.883  15.418  0.4134  0.4083 -0.1921
   27DOPE  H12R 3416   5.510   1.787  15.455 -0.5383  0.7026 -0.5054
   27DOPE  H12S 3417   5.649   1.907  15.469  1.2720 -0.2107 -1.4679
   27DOPE  C213 3418   5.593   1.848  15.277  0.1816  0.0145 -0.5009
   27DOPE  H13R 3419   5.625   1.935  15.215 -2.2350  0.9448 -0.5611
   27DOPE  H13S 3420   5.498   1.823  15.226 -3.2158  0.6922  4.7749
   27DOPE  C214 3421   5.684   1.725  15.286 -0.1573  0.3436  0.0730
   27DOPE  H14R 3422   5.630   1.645  15.341 -0.5566  0.6887  0.1867
   27DOPE  H14S 3423   5.785   1.752  15.321 -0.1866  2.8737 -1.5585
   27DOPE  C215 3424   5.731   1.656  15.148 -0.0692  0.6660  0.2931
   27DOPE  H15R 3425   5.643   1.642  15.082 -0.3666 -1.4606  1.0698
   27DOPE  H15S 3426   5.771   1.554  15.167  0.3477  0.6527 -0.6203
   27DOPE  C216 3427   5.832   1.748  15.069 -0.0928  0.1032 -0.7763
   27DOPE  H16R 3428   5.933   1.742  15.113 -0.8313  3.8622  1.9502
   27DOPE  H16S 3429   5.802   1.855  15.080  0.4053  0.1158  0.5836
   27DOPE  C217 3430   5.855   1.720  14.917 -0.7277  0.8807 -0.1629
   27DOPE  H17R 3431   5.760   1.733  14.861  0.2014 -2.6416 -2.9747
   27DOPE  H17S 3432   5.896   1.617  14.904 -0.7213  0.9691 -0.9093
   27DOPE  C218 3433   5.969   1.812  14.855  0.4703 -0.1098  0.1573
   27DOPE  H18R 3434   5.977   1.813  14.745  0.8668 -0.0831  0.1854
   27DOPE  H18S 3435   6.071   1.793  14.895 -0.1923 -1.7703  1.1766
   27DOPE  H18T 3436   5.951   1.920  14.874 -0.3913 -0.3406  0.7433
   27DOPE   C33 3437   4.538   2.322  15.913  0.4387 -0.2955 -0.3006
   27DOPE   H3X 3438   4.626   2.390  15.905  0.5539 -0.4546 -0.3988
   27DOPE   H3Y 3439   4.457   2.395  15.931  1.9336  0.6627  3.6409
   27DOPE   C34 3440   4.531   2.236  15.789  0.0878 -0.0118 -0.1133
   27DOPE   H4X 3441   4.612   2.160  15.795  1.1453  1.1387  0.6511
   27DOPE   H4Y 3442   4.432   2.184  15.783  1.1859 -2.1720 -0.7212
   27DOPE   C35 3443   4.567   2.317  15.666  0.4803 -0.2069 -0.4572
   27DOPE   H5X 3444   4.667   2.365  15.677  1.2667 -1.9631  0.4636
   27DOPE   H5Y 3445   4.489   2.395  15.656  1.1668  0.4918 -0.4587
   27DOPE   C36 3446   4.562   2.234  15.530 -0.1282 -0.2585 -0.6187
   27DOPE   H6X 3447   4.577   2.303  15.445 -0.8152  1.7555  0.8000
   27DOPE   H6Y 3448   4.460   2.189  15.523 -0.3736  0.1383  0.2083
   27DOPE   C37 3449   4.668   2.117  15.530 -0.4872  1.1805  0.8448
   27DOPE   H7X 3450   4.770   2.161  15.539 -0.0481 -0.0172  2.0039
   27DOPE   H7Y 3451   4.641   2.046  15.611 -3.7886 -0.5897 -1.5710
   27DOPE   C38 3452   4.661   2.024  15.407 -0.0409 -0.3199 -0.0358
   27DOPE   H8X 3453   4.680   2.085  15.316  0.0240  2.7557  1.9064
   27DOPE   H8Y 3454   4.558   1.984  15.398 -0.9087  1.7453  0.1919
   27DOPE   C39 3455   4.767   1.913  15.418  0.0227  0.6030  0.5705
   27DOPE   H9X 3456   4.789   1.879  15.520  2.3186 -0.4378 -0.1957
   27DOPE  C310 3457   4.840   1.857  15.316  0.4603 -0.4582  0.1115
   27DOPE  H10X 3458   4.904   1.768  15.327  1.1936 -0.0385 -0.6222
   27DOPE  C311 3459   4.819   1.887  15.172 -0.8199  0.0559 -0.9235
   27DOPE  H11X 3460   4.748   1.971  15.152 -1.5624 -0.9261 -2.6749
   27DOPE  H11Y 3461   4.919   1.917  15.133 -1.0442  2.8537  0.3813
   27DOPE  C312 3462   4.758   1.766  15.087 -0.1759 -0.0221  0.0428
   27DOPE  H12X 3463   4.656   1.745  15.126  0.8678 -0.5132  2.7097
   27DOPE  H12Y 3464   4.819   1.673  15.094  1.8438  1.2862  0.8602
   27DOPE  C313 3465   4.731   1.796  14.937  0.4862  0.2818 -0.3627
   27DOPE  H13X 3466   4.630   1.763  14.904  0.2339 -1.5467  1.9429
   27DOPE  H13Y 3467   4.719   1.906  14.932 -0.8332  0.5169  4.0770
   27DOPE  C314 3468   4.848   1.726  14.860 -0.0208 -0.3833  0.1015
   27DOPE  H14X 3469   4.819   1.619  14.866 -1.0894 -0.1681 -0.7714
   27DOPE  H14Y 3470   4.941   1.756  14.913  0.6233 -1.6440 -0.2764
   27DOPE  C315 3471   4.868   1.777  14.717 -0.4549  0.0636 -0.2193
   27DOPE  H15X 3472   4.852   1.887  14.716 -0.2122  0.1023 -1.3716
   27DOPE  H15Y 3473   4.794   1.725  14.651 -0.4165  0.3188 -0.4643
   27DOPE  C316 3474   5.012   1.753  14.659 -0.4835  0.5027  0.0188
   27DOPE  H16X 3475   5.031   1.645  14.642 -0.1596  0.3510  1.2079
   27DOPE  H16Y 3476   5.084   1.789  14.736 -0.4743 -1.0906  0.8144
   27DOPE  C317 3477   5.026   1.821  14.522  0.0432  0.6149  0.7584
   27DOPE  H17X 3478   4.933   1.809  14.463  0.7296  2.8396 -0.8986
   27DOPE  H17Y 3479   5.034   1.929  14.545  0.2583  0.6130  0.6998
   27DOPE  C318 3480   5.146   1.767  14.438  0.0696  0.2195  0.4479
   27DOPE  H18X 3481   5.132   1.662  14.407 -2.6996  0.9463 -1.1859
   27DOPE  H18Y 3482   5.143   1.833  14.348  3.9363  1.4470  1.0314
   27DOPE  H18Z 3483   5.242   1.785  14.490 -0.6635  2.7213  1.0941
   28DOPE     N 3484   7.487   8.214  17.127 -0.7418 -0.1677 -0.5060
   28DOPE   HN1 3485   7.458   8.291  17.191  0.6836 -0.0113 -0.0114
   28DOPE   HN2 3486   7.490   8.123  17.178 -0.1044 -1.4368 -2.6960
   28DOPE   HN3 3487   7.581   8.241  17.093  0.6118 -1.3987  1.9736
   28DOPE   C12 3488   7.408   8.207  17.001  0.3246  0.6214  0.2217
   28DOPE  H12A 3489   7.304   8.177  17.027 -0.2509  1.5405 -0.9887
   28DOPE  H12B 3490   7.455   8.118  16.954 -0.0799  0.8162 -0.5582
   28DOPE   C11 3491   7.413   8.333  16.921  0.2697 -0.9222  0.0862
   28DOPE  H11A 3492   7.341   8.330  16.836 -0.8363 -1.4006  1.0098
   28DOPE  H11B 3493   7.515   8.342  16.878  0.1245  1.9431  0.1479
   28DOPE     P 3494   7.470   8.585  16.967 -0.0999  0.3302 -0.4686
   28DOPE   O13 3495   7.613   8.555  16.969  0.4757  0.2480 -0.5641
   28DOPE   O14 3496   7.427   8.690  17.062 -0.1584  0.2654  0.1386
   28DOPE   O11 3497   7.424   8.627  16.822 -0.4979  0.3933  0.2927
   28DOPE   O12 3498   7.399   8.450  17.002 -0.1625  0.3748  0.2008
   28DOPE    C1 3499   7.475   8.755  16.767 -0.3145 -0.4227 -0.1722
   28DOPE    HA 3500   7.521   8.818  16.845 -2.5310  0.5893  0.3936
   28DOPE    HB 3501   7.391   8.822  16.740  0.7321  0.4492 -1.4260
   28DOPE    C2 3502   7.569   8.733  16.640  0.2311  0.2263 -0.1998
   28DOPE    HS 3503   7.609   8.834  16.618 -0.8994  0.3062 -2.1155
   28DOPE   O21 3504   7.499   8.682  16.522  0.5045 -0.1294  0.1234
   28DOPE   C21 3505   7.426   8.775  16.474 -0.0159 -0.4458 -0.8290
   28DOPE   O22 3506   7.405   8.887  16.517 -0.2436 -0.0381 -0.0321
   28DOPE   C22 3507   7.371   8.729  16.339 -0.5824 -1.3722 -0.6167
   28DOPE   H2R 3508   7.313   8.635  16.352 -1.1806 -1.1449 -1.5373
   28DOPE   H2S 3509   7.458   8.714  16.272  0.5383 -0.8057  0.6796
   28DOPE    C3 3510   7.687   8.641  16.669  0.7709 -0.5798  0.6736
   28DOPE    HX 3511   7.647   8.539  16.690  0.4934 -0.3224  1.4279
   28DOPE    HY 3512   7.736   8.688  16.757 -0.2946  2.1541 -0.0971
   28DOPE   O31 3513   7.772   8.631  16.551 -0.0114  0.1177 -0.7858
   28DOPE   C31 3514   7.898   8.589  16.575  0.2411 -0.2848  0.0803
   28DOPE   O32 3515   7.944   8.544  16.677  0.5507  0.2439 -0.2009
   28DOPE   C32 3516   7.965   8.585  16.443 -0.5361  0.4854  0.6847
   28DOPE   H2X 3517   7.911   8.618  16.352  1.3851  0.0837 -0.6577
   28DOPE   H2Y 3518   8.054   8.649  16.458  1.6482 -2.7989  3.0632
   28DOPE   C23 3519   7.265   8.817  16.266  0.0665 -0.2831  0.2723
   28DOPE   H3R 3520   7.262   8.777  16.162  1.0387  0.3688 -0.0098
   28DOPE   H3S 3521   7.295   8.923  16.280 -0.8540  0.2216 -1.3867
   28DOPE   C24 3522   7.130   8.801  16.338 -1.1626  0.1769 -0.2888
   28DOPE   H4R 3523   7.141   8.867  16.427 -1.3780  0.1486 -0.2402
   28DOPE   H4S 3524   7.106   8.699  16.375 -1.7283  0.3729 -0.1037
   28DOPE   C25 3525   7.019   8.863  16.258  0.0073  0.3843  1.0413
   28DOPE   H5R 3526   6.927   8.857  16.319 -0.8995  0.6718 -0.2767
   28DOPE   H5S 3527   6.997   8.795  16.173 -0.2613  1.4798  0.2194
   28DOPE   C26 3528   7.058   9.002  16.212  0.5906  0.1275  0.3649
   28DOPE   H6R 3529   7.133   8.998  16.130  0.8762 -0.5218  0.6494
   28DOPE   H6S 3530   7.086   9.060  16.303  1.8462  0.9841 -0.5398
   28DOPE   C27 3531   6.929   9.069  16.160 -0.1011 -0.4517 -0.0479
   28DOPE   H7R 3532   6.853   9.065  16.241 -0.0492  0.4793  0.0500
   28DOPE   H7S 3533   6.876   9.007  16.085 -1.3598 -0.7911  1.0927
   28DOPE   C28 3534   6.937   9.213  16.116  0.3348  0.0873  0.0913
   28DOPE   H8R 3535   6.998   9.213  16.023  0.5261  0.3372  0.2153
   28DOPE   H8S 3536   7.001   9.273  16.185  1.2376  0.6715 -1.2120
   28DOPE   C29 3537   6.798   9.280  16.100  0.9403 -0.1936  0.1630
   28DOPE   H9R 3538   6.739   9.314  16.187  2.1840  3.0544 -0.1274
   28DOPE  C210 3539   6.735   9.298  15.979 -0.0525 -0.4048  0.6646
   28DOPE  H10R 3540   6.647   9.362  15.958  0.3165 -0.9210 -2.9933
   28DOPE  C211 3541   6.809   9.269  15.847  0.3411 -0.1086  0.1728
   28DOPE  H11R 3542   6.901   9.207  15.856 -0.2209 -1.0096 -0.1332
   28DOPE  H11S 3543   6.836   9.364  15.796  0.6114 -0.2546  0.0392
   28DOPE  C212 3544   6.709   9.185  15.760 -0.0704  0.7278  0.3365
   28DOPE  H12R 3545   6.603   9.220  15.763 -0.2485  0.1177  2.3495
   28DOPE  H12S 3546   6.705   9.087  15.811  2.7484  0.5246  0.3177
   28DOPE  C213 3547   6.746   9.160  15.611 -0.5941 -0.2957 -0.6574
   28DOPE  H13R 3548   6.687   9.073  15.575 -1.0049 -0.8014  1.1804
   28DOPE  H13S 3549   6.855   9.140  15.599  0.1682  0.3835  3.6220
   28DOPE  C214 3550   6.717   9.281  15.511 -0.0367  0.6783  0.3211
   28DOPE  H14R 3551   6.796   9.357  15.523 -0.0537  0.9235 -0.9488
   28DOPE  H14S 3552   6.618   9.318  15.547 -0.8558  0.0146 -1.1394
   28DOPE  C215 3553   6.728   9.232  15.364 -1.0062  0.0631  0.5966
   28DOPE  H15R 3554   6.770   9.129  15.362  1.7138  1.0777 -0.1145
   28DOPE  H15S 3555   6.803   9.296  15.313 -0.7033 -1.4649 -0.9767
   28DOPE  C216 3556   6.585   9.240  15.301  0.2332  0.8464 -0.9127
   28DOPE  H16R 3557   6.538   9.337  15.329 -0.8523 -0.5800  2.8389
   28DOPE  H16S 3558   6.525   9.166  15.360  2.3154  1.3154  1.9981
   28DOPE  C217 3559   6.568   9.204  15.158 -0.1174  0.2530  0.3066
   28DOPE  H17R 3560   6.607   9.103  15.133 -1.0778  0.0313 -0.3356
   28DOPE  H17S 3561   6.629   9.275  15.097  2.3674 -2.3085 -0.4244
   28DOPE  C218 3562   6.419   9.207  15.122 -0.3264 -0.1150  0.8128
   28DOPE  H18R 3563   6.372   9.304  15.152  0.7134  0.2125  1.4199
   28DOPE  H18S 3564   6.365   9.124  15.173 -1.0485 -0.5823 -0.6640
   28DOPE  H18T 3565   6.407   9.199  15.012  2.2849  0.0076  0.4563
   28DOPE   C33 3566   8.019   8.442  16.409 -0.0083 -0.5583 -0.0210
   28DOPE   H3X 3567   7.947   8.359  16.423  0.1957 -1.1583 -2.2064
   28DOPE   H3Y 3568   8.099   8.415  16.482  1.5317  1.7094 -0.7477
   28DOPE   C34 3569   8.087   8.439  16.273  0.7835 -0.1398 -0.6324
   28DOPE   H4X 3570   8.145   8.530  16.247  0.6719  0.0337 -0.2671
   28DOPE   H4Y 3571   8.158   8.354  16.261  0.7904 -0.0204 -1.5676
   28DOPE   C35 3572   7.979   8.422  16.158  0.1743  0.2381  0.1799
   28DOPE   H5X 3573   7.926   8.519  16.148  0.3665  0.2938 -0.2776
   28DOPE   H5Y 3574   7.906   8.346  16.195 -0.5797  0.7298 -0.2588
   28DOPE   C36 3575   8.051   8.381  16.031  0.4046 -0.2849  0.2473
   28DOPE   H6X 3576   8.105   8.285  16.047 -0.7034 -0.7263  1.4952
   28DOPE   H6Y 3577   8.120   8.465  16.006  0.2245 -0.2421 -0.1046
   28DOPE   C37 3578   7.967   8.359  15.910 -0.2470 -0.6623 -0.1856
   28DOPE   H7X 3579   8.030   8.328  15.823 -1.6001 -1.5682 -0.8793
   28DOPE   H7Y 3580   7.907   8.268  15.932  0.4804 -0.9363  0.7707
   28DOPE   C38 3581   7.872   8.477  15.875 -0.6548 -0.8149 -0.3130
   28DOPE   H8X 3582   7.781   8.470  15.938  0.0967 -0.3705  0.8362
   28DOPE   H8Y 3583   7.839   8.476  15.769  0.0529 -0.6254 -0.5423
   28DOPE   C39 3584   7.935   8.615  15.891  0.1172 -0.2348 -0.1026
   28DOPE   H9X 3585   7.962   8.640  15.994  2.9924 -0.9894 -0.5753
   28DOPE  C310 3586   7.983   8.702  15.798  0.7125  0.2749 -0.1747
   28DOPE  H10X 3587   8.046   8.786  15.831  0.2762  0.9229 -0.9640
   28DOPE  C311 3588   7.965   8.678  15.649 -0.2043 -0.7881  0.3659
   28DOPE  H11X 3589   8.060   8.638  15.608 -0.0726 -0.2958  0.1892
   28DOPE  H11Y 3590   7.884   8.604  15.630 -0.1233 -0.9265  0.5521
   28DOPE  C312 3591   7.943   8.807  15.564  1.0704 -0.5366 -0.3419
   28DOPE  H12X 3592   8.027   8.879  15.578 -1.7905  3.1991 -0.7237
   28DOPE  H12Y 3593   7.852   8.863  15.596 -0.3043 -2.7877 -0.1019
   28DOPE  C313 3594   7.952   8.774  15.411  1.0857 -0.2073 -0.6664
   28DOPE  H13X 3595   7.868   8.709  15.378 -1.0246  1.5419  0.9463
   28DOPE  H13Y 3596   7.926   8.863  15.350 -1.3306 -0.0986  0.4186
   28DOPE  C314 3597   8.075   8.708  15.360 -0.1954  0.0469 -0.1006
   28DOPE  H14X 3598   8.111   8.627  15.427 -0.5499  0.1615  0.2325
   28DOPE  H14Y 3599   8.151   8.787  15.373  1.0868 -1.3369  1.1634
   28DOPE  C315 3600   8.055   8.662  15.217 -0.8333  0.2855  0.0812
   28DOPE  H15X 3601   8.056   8.750  15.149  1.4563  0.6743  0.5121
   28DOPE  H15Y 3602   7.957   8.616  15.193  0.5242 -2.8469  0.0483
   28DOPE  C316 3603   8.160   8.567  15.166 -0.5986 -0.1869  0.1250
   28DOPE  H16X 3604   8.124   8.544  15.063  2.9191  2.4455 -1.9143
   28DOPE  H16Y 3605   8.175   8.479  15.232 -1.7099 -1.1616 -0.8709
   28DOPE  C317 3606   8.300   8.628  15.154  0.7024  0.0581 -0.2490
   28DOPE  H17X 3607   8.290   8.732  15.117 -1.3685 -0.0938 -0.1907
   28DOPE  H17Y 3608   8.344   8.635  15.256 -0.0988 -0.8905  0.1752
   28DOPE  C318 3609   8.392   8.549  15.067  0.8144 -0.2148 -0.4440
   28DOPE  H18X 3610   8.395   8.441  15.091 -0.0786 -0.3103 -0.7195
   28DOPE  H18Y 3611   8.357   8.559  14.962  0.5848  1.9168 -0.2219
   28DOPE  H18Z 3612   8.494   8.594  15.076  0.0071  1.6978 -0.2707
   29DOPE     N 3613   6.057   2.081  16.586  0.2633  0.6294  0.0748
   29DOPE   HN1 3614   6.011   1.988  16.595 -0.2738  0.7913 -0.8592
   29DOPE   HN2 3615   6.006   2.147  16.523 -0.1441 -0.2848 -0.5769
   29DOPE   HN3 3616   6.153   2.075  16.547  0.3276  3.7634 -0.5172
   29DOPE   C12 3617   6.079   2.128  16.725  1.0162  0.2585 -0.3878
   29DOPE  H12A 3618   6.098   2.041  16.793  1.1224 -0.1713 -0.9634
   29DOPE  H12B 3619   5.984   2.173  16.761  0.9522 -0.7490  0.7939
   29DOPE   C11 3620   6.189   2.237  16.735 -0.0288 -0.0113  0.1589
   29DOPE  H11A 3621   6.206   2.271  16.839 -2.0204 -0.0580  0.5387
   29DOPE  H11B 3622   6.155   2.334  16.693  2.2504  1.0738  0.6187
   29DOPE     P 3623   6.439   2.263  16.698 -0.3311 -0.2605  0.0579
   29DOPE   O13 3624   6.554   2.188  16.643  0.0592  0.9528  0.1610
   29DOPE   O14 3625   6.451   2.324  16.831  0.0371  0.2540  0.5044
   29DOPE   O11 3626   6.420   2.395  16.605  0.3009  1.1484 -0.1335
   29DOPE   O12 3627   6.305   2.183  16.671  0.0049  0.4439  0.0965
   29DOPE    C1 3628   6.372   2.384  16.475 -0.0186  0.0554 -0.3597
   29DOPE    HA 3629   6.342   2.485  16.439  1.4177 -0.0921 -2.1276
   29DOPE    HB 3630   6.281   2.321  16.470 -1.5620  1.8721  2.3846
   29DOPE    C2 3631   6.480   2.351  16.363 -0.3027  0.5730 -0.5005
   29DOPE    HS 3632   6.524   2.253  16.390  1.6156  1.7778  1.1420
   29DOPE   O21 3633   6.580   2.451  16.354  0.8316 -0.0301  0.7245
   29DOPE   C21 3634   6.699   2.409  16.313 -0.3810 -0.5929  0.2454
   29DOPE   O22 3635   6.731   2.295  16.290  0.0604 -0.5838 -0.3825
   29DOPE   C22 3636   6.795   2.522  16.284  0.5552 -0.0818  0.4398
   29DOPE   H2R 3637   6.824   2.566  16.382  1.0955  0.2477  0.1401
   29DOPE   H2S 3638   6.749   2.602  16.221  0.9717 -1.0407 -1.1395
   29DOPE    C3 3639   6.400   2.343  16.228 -0.0841 -0.0582 -0.0098
   29DOPE    HX 3640   6.380   2.449  16.203 -2.1408 -0.4347 -0.0807
   29DOPE    HY 3641   6.304   2.289  16.241  0.1559 -0.8312 -1.2976
   29DOPE   O31 3642   6.484   2.281  16.125 -0.0200 -0.1844  0.0246
   29DOPE   C31 3643   6.493   2.152  16.127  0.6380  0.8612 -0.3105
   29DOPE   O32 3644   6.454   2.077  16.213  0.4866 -0.1106 -0.0289
   29DOPE   C32 3645   6.590   2.113  16.019 -0.2820 -0.6015 -0.6138
   29DOPE   H2X 3646   6.585   2.178  15.929 -0.5434 -1.6141 -1.3544
   29DOPE   H2Y 3647   6.691   2.139  16.058 -0.8895  0.7364  0.1554
   29DOPE   C23 3648   6.930   2.481  16.228 -0.5628  0.2685  0.4063
   29DOPE   H3R 3649   6.918   2.436  16.127  0.3836  1.4447 -0.2568
   29DOPE   H3S 3650   6.988   2.421  16.301  0.4712 -0.6079 -1.0769
   29DOPE   C24 3651   7.004   2.613  16.192 -0.1350 -0.1430  0.2567
   29DOPE   H4R 3652   7.024   2.664  16.289 -0.0465 -3.5601  2.2014
   29DOPE   H4S 3653   6.930   2.660  16.125 -0.7761 -2.1702 -0.5318
   29DOPE   C25 3654   7.141   2.595  16.120 -0.3546 -0.2759  0.2848
   29DOPE   H5R 3655   7.194   2.693  16.122 -1.8814  0.5628  1.8001
   29DOPE   H5S 3656   7.112   2.559  16.019 -0.4419  1.9686 -0.5473
   29DOPE   C26 3657   7.232   2.489  16.188  0.5183 -0.2647  0.1622
   29DOPE   H6R 3658   7.179   2.392  16.197  0.6260 -0.2135  1.4073
   29DOPE   H6S 3659   7.249   2.515  16.294  2.2190  0.8160 -0.3287
   29DOPE   C27 3660   7.378   2.481  16.134  0.7435  0.6479 -0.6193
   29DOPE   H7R 3661   7.428   2.401  16.193  1.9391  2.1686  0.5404
   29DOPE   H7S 3662   7.426   2.578  16.158  0.4279  0.7699 -0.4790
   29DOPE   C28 3663   7.396   2.431  15.985 -0.6817  0.3469 -0.5010
   29DOPE   H8R 3664   7.507   2.434  15.974 -0.3702 -0.8949  1.7428
   29DOPE   H8S 3665   7.352   2.511  15.922 -0.7224 -1.1071 -2.4017
   29DOPE   C29 3666   7.346   2.295  15.948  0.1286 -0.0753 -0.3284
   29DOPE   H9R 3667   7.282   2.248  16.024  1.5478  0.2717  1.1545
   29DOPE  C210 3668   7.394   2.209  15.855 -0.9077  1.2360 -0.5024
   29DOPE  H10R 3669   7.373   2.101  15.867  0.8126  1.0062  0.7979
   29DOPE  C211 3670   7.500   2.253  15.764  0.2894 -0.5514  0.2171
   29DOPE  H11R 3671   7.526   2.361  15.768  0.7963 -0.6350 -0.5097
   29DOPE  H11S 3672   7.459   2.234  15.662 -3.2436  0.8952  1.2011
   29DOPE  C212 3673   7.630   2.173  15.780  0.2087  0.5709 -0.4115
   29DOPE  H12R 3674   7.698   2.193  15.694  0.9683 -0.4862 -0.0670
   29DOPE  H12S 3675   7.603   2.066  15.781 -0.5093  0.7503  0.0322
   29DOPE  C213 3676   7.718   2.200  15.901 -0.7935  0.2809  0.3530
   29DOPE  H13R 3677   7.746   2.307  15.905  0.8162 -0.1115  0.2159
   29DOPE  H13S 3678   7.812   2.142  15.889  0.7965  1.3196  5.3959
   29DOPE  C214 3679   7.650   2.155  16.032  0.1834 -0.1667  0.4034
   29DOPE  H14R 3680   7.599   2.058  16.015  2.2861 -1.0729 -1.3317
   29DOPE  H14S 3681   7.567   2.226  16.050  0.7918  0.7965 -0.4146
   29DOPE  C215 3682   7.753   2.157  16.150  0.6406 -0.2812  0.3968
   29DOPE  H15R 3683   7.777   2.259  16.189  0.5508 -0.2608  0.3991
   29DOPE  H15S 3684   7.839   2.106  16.103  0.6690  0.3149 -0.2268
   29DOPE  C216 3685   7.696   2.091  16.279  0.3547 -0.0955  0.0360
   29DOPE  H16R 3686   7.663   1.988  16.252 -0.2282 -0.2488  1.2872
   29DOPE  H16S 3687   7.607   2.154  16.302 -1.1851 -0.4146 -4.1155
   29DOPE  C217 3688   7.794   2.096  16.399 -0.0219 -0.7224 -0.0599
   29DOPE  H17R 3689   7.732   2.054  16.482  1.2901 -1.3110  0.6641
   29DOPE  H17S 3690   7.821   2.201  16.422 -0.8442 -0.4287 -0.4071
   29DOPE  C218 3691   7.927   2.018  16.395 -0.3252 -0.4808 -0.4042
   29DOPE  H18R 3692   7.907   1.922  16.341  0.8583  0.4040 -2.5544
   29DOPE  H18S 3693   7.967   1.995  16.496  1.6038 -1.6396 -1.3623
   29DOPE  H18T 3694   8.009   2.067  16.339  2.3112 -2.9801  0.9730
   29DOPE   C33 3695   6.569   1.969  15.980 -0.0975 -0.1045 -0.3463
   29DOPE   H3X 3696   6.597   1.914  16.073  1.6750 -0.2227 -0.9268
   29DOPE   H3Y 3697   6.651   1.937  15.913 -0.1980 -3.8648  1.1179
   29DOPE   C34 3698   6.428   1.932  15.924 -0.3146  0.8858 -0.1450
   29DOPE   H4X 3699   6.439   1.825  15.898  1.7495  1.0299 -0.0240
   29DOPE   H4Y 3700   6.346   1.939  15.999  0.0925  0.6628  0.3294
   29DOPE   C35 3701   6.395   2.006  15.795  0.2379 -0.3817 -0.8491
   29DOPE   H5X 3702   6.366   2.105  15.835 -1.1543 -0.1860 -2.2675
   29DOPE   H5Y 3703   6.310   1.956  15.743 -0.1400 -2.7065  1.7927
   29DOPE   C36 3704   6.509   2.007  15.689  0.5325  0.0858 -0.2404
   29DOPE   H6X 3705   6.534   1.900  15.669 -0.7682 -0.4240  0.6725
   29DOPE   H6Y 3706   6.601   2.051  15.733  0.2607  1.4354 -1.0034
   29DOPE   C37 3707   6.482   2.089  15.563 -0.2103 -0.3082 -0.5323
   29DOPE   H7X 3708   6.380   2.069  15.523 -0.8660  2.3517 -0.3891
   29DOPE   H7Y 3709   6.491   2.198  15.582 -0.2802 -0.3958  0.0129
   29DOPE   C38 3710   6.575   2.062  15.443 -0.3581  0.0499  0.5720
   29DOPE   H8X 3711   6.539   2.125  15.359  1.8321 -1.6124 -1.7585
   29DOPE   H8Y 3712   6.565   1.956  15.411  1.0521 -0.9925  3.3124
   29DOPE   C39 3713   6.719   2.093  15.450 -0.8481 -0.5690  0.1256
   29DOPE   H9X 3714   6.761   2.116  15.549  0.7643  0.8202 -0.8273
   29DOPE  C310 3715   6.812   2.105  15.347  0.8553  0.1255  0.5854
   29DOPE  H10X 3716   6.918   2.122  15.372  1.0764 -0.5099  0.1075
   29DOPE  C311 3717   6.785   2.065  15.208  0.4846  0.7114  0.4457
   29DOPE  H11X 3718   6.856   1.985  15.180  0.3998  1.5818 -2.6536
   29DOPE  H11Y 3719   6.677   2.041  15.191 -0.0332  1.9292  1.8069
   29DOPE  C312 3720   6.806   2.182  15.105 -0.7262 -0.3483  0.3032
   29DOPE  H12X 3721   6.882   2.252  15.145 -0.5943 -0.8227  0.9150
   29DOPE  H12Y 3722   6.708   2.234  15.102 -0.0437  0.9599  0.1976
   29DOPE  C313 3723   6.831   2.132  14.966 -0.0123 -0.2697 -0.0956
   29DOPE  H13X 3724   6.929   2.081  14.955 -0.3140 -1.1367  1.0019
   29DOPE  H13Y 3725   6.754   2.056  14.941 -1.6238 -0.0379  3.5273
   29DOPE  C314 3726   6.843   2.249  14.868  0.7221 -0.3805 -0.0032
   29DOPE  H14X 3727   6.917   2.319  14.912  0.4351  0.5899 -0.9973
   29DOPE  H14Y 3728   6.746   2.301  14.852  1.5264  0.8035 -1.2663
   29DOPE  C315 3729   6.894   2.211  14.730 -0.3355  0.2171  0.0435
   29DOPE  H15X 3730   6.830   2.129  14.692  2.0590  0.2944 -4.9996
   29DOPE  H15Y 3731   6.994   2.163  14.725  0.4433  1.7966 -0.3202
   29DOPE  C316 3732   6.899   2.327  14.636  0.0241 -0.4938 -0.3658
   29DOPE  H16X 3733   6.965   2.406  14.678 -0.0628 -0.0748 -1.0021
   29DOPE  H16Y 3734   6.798   2.368  14.617 -0.8268 -2.7115 -0.9316
   29DOPE  C317 3735   6.967   2.296  14.501 -0.6745  0.1286 -0.4276
   29DOPE  H17X 3736   7.075   2.304  14.527 -0.2935 -0.3197 -1.8263
   29DOPE  H17Y 3737   6.932   2.198  14.463 -1.5294  0.0383  0.5533
   29DOPE  C318 3738   6.946   2.400  14.393 -0.0622  0.2718 -0.1427
   29DOPE  H18X 3739   6.837   2.409  14.372 -0.0551  0.8507  0.0608
   29DOPE  H18Y 3740   6.975   2.496  14.439  1.0422 -1.1843  2.3942
   29DOPE  H18Z 3741   7.009   2.366  14.308  0.2292  0.2259  0.0917
   30DOPE     N 3742   6.224   1.677  16.473 -0.0668 -0.0979  0.1659
   30DOPE   HN1 3743   6.121   1.673  16.464  0.0896 -2.0537 -1.8519
   30DOPE   HN2 3744   6.264   1.755  16.416  0.0235 -0.4270 -0.2257
   30DOPE   HN3 3745   6.262   1.584  16.445  0.5098  0.0171  0.5405
   30DOPE   C12 3746   6.264   1.711  16.613 -0.5888  0.5730  0.3782
   30DOPE  H12A 3747   6.208   1.635  16.672  0.3938 -0.9458 -0.5523
   30DOPE  H12B 3748   6.237   1.815  16.638  0.4942  0.2969  3.1636
   30DOPE   C11 3749   6.411   1.696  16.635 -0.1556  0.6577  0.0339
   30DOPE  H11A 3750   6.414   1.726  16.742 -2.7928  1.1707  0.0403
   30DOPE  H11B 3751   6.463   1.769  16.570  0.3828  0.3550  0.1128
   30DOPE     P 3752   6.485   1.442  16.692 -0.1310 -0.4213 -0.4067
   30DOPE   O13 3753   6.369   1.362  16.734 -0.0143  0.1605  0.0737
   30DOPE   O14 3754   6.565   1.500  16.807 -0.1804  0.1955 -0.0828
   30DOPE   O11 3755   6.586   1.356  16.609 -0.1628 -0.5414 -0.1972
   30DOPE   O12 3756   6.445   1.565  16.600  0.5651  0.1933  0.0215
   30DOPE    C1 3757   6.707   1.408  16.560 -0.3452  0.3962  0.8853
   30DOPE    HA 3758   6.796   1.347  16.589  0.3292  0.7494 -0.3521
   30DOPE    HB 3759   6.726   1.514  16.585  1.8858  0.8863 -2.1771
   30DOPE    C2 3760   6.704   1.402  16.403  0.5820  0.4211  0.6248
   30DOPE    HS 3761   6.643   1.484  16.360  1.0457  1.0927  1.2124
   30DOPE   O21 3762   6.660   1.270  16.358  0.3220 -0.2090  0.3690
   30DOPE   C21 3763   6.598   1.280  16.238  0.7213 -0.5804 -0.1229
   30DOPE   O22 3764   6.571   1.376  16.172  0.4266 -0.0543  0.3078
   30DOPE   C22 3765   6.556   1.138  16.196  0.7987  0.5731 -1.1461
   30DOPE   H2R 3766   6.510   1.086  16.283 -0.3556  2.4357 -0.5798
   30DOPE   H2S 3767   6.642   1.069  16.182 -0.2800 -0.7615 -1.4561
   30DOPE    C3 3768   6.850   1.433  16.347 -0.1805 -0.5406  0.1926
   30DOPE    HX 3769   6.921   1.350  16.370  0.5595  0.4749  1.7059
   30DOPE    HY 3770   6.897   1.523  16.391 -0.0362  0.7267 -2.4034
   30DOPE   O31 3771   6.848   1.442  16.203  0.0540  0.1374  0.2874
   30DOPE   C31 3772   6.837   1.561  16.144 -0.5347 -0.0449  0.3323
   30DOPE   O32 3773   6.823   1.667  16.199 -0.0348 -0.4876  0.1434
   30DOPE   C32 3774   6.842   1.538  15.993  1.0781 -0.0519 -0.2015
   30DOPE   H2X 3775   6.932   1.477  15.971  0.5915 -1.6038  1.8215
   30DOPE   H2Y 3776   6.744   1.493  15.967  0.3839 -0.4985  2.8302
   30DOPE   C23 3777   6.471   1.122  16.066  0.4235 -0.3265 -0.3391
   30DOPE   H3R 3778   6.370   1.166  16.081 -1.3087 -3.9451 -0.3612
   30DOPE   H3S 3779   6.456   1.013  16.048 -1.0520 -0.1056 -0.5697
   30DOPE   C24 3780   6.549   1.184  15.945 -0.1828  0.3011  0.4367
   30DOPE   H4R 3781   6.658   1.163  15.954  0.1214 -0.8695 -3.5949
   30DOPE   H4S 3782   6.533   1.294  15.941 -1.0166  0.1730 -0.0724
   30DOPE   C25 3783   6.496   1.143  15.807  0.1642  0.6188  0.1229
   30DOPE   H5R 3784   6.385   1.144  15.797  0.2014 -1.0939 -0.9479
   30DOPE   H5S 3785   6.509   1.033  15.800 -0.7058  0.5447 -0.6346
   30DOPE   C26 3786   6.573   1.199  15.688  0.3602 -0.3077  0.0563
   30DOPE   H6R 3787   6.676   1.157  15.695 -1.0245 -3.9912  0.9453
   30DOPE   H6S 3788   6.579   1.309  15.701 -1.8740 -0.2182  0.8958
   30DOPE   C27 3789   6.508   1.156  15.558 -0.3085 -0.2010  0.6830
   30DOPE   H7R 3790   6.491   1.047  15.568  0.2370 -0.4604 -0.9557
   30DOPE   H7S 3791   6.588   1.168  15.482 -0.4967  0.5630  0.5952
   30DOPE   C28 3792   6.374   1.228  15.527  0.1697  0.0288  0.5495
   30DOPE   H8R 3793   6.388   1.335  15.497  2.9587 -0.1650  0.9438
   30DOPE   H8S 3794   6.308   1.219  15.615 -2.4354 -1.5609 -1.3991
   30DOPE   C29 3795   6.304   1.161  15.410  0.4234 -0.0192 -0.2074
   30DOPE   H9R 3796   6.224   1.091  15.438  0.6693  0.0994  0.8499
   30DOPE  C210 3797   6.338   1.157  15.277 -0.4682 -0.2223  0.0542
   30DOPE  H10R 3798   6.276   1.103  15.204 -1.9194  0.7206  0.5541
   30DOPE  C211 3799   6.448   1.229  15.214 -1.0408  0.1006 -0.5094
   30DOPE  H11R 3800   6.533   1.240  15.284 -1.2419 -1.2059 -0.0280
   30DOPE  H11S 3801   6.414   1.333  15.195 -0.6869  0.2657 -0.2563
   30DOPE  C212 3802   6.490   1.170  15.078  0.0038 -0.2478 -0.2416
   30DOPE  H12R 3803   6.534   1.070  15.093 -1.8356 -1.2494 -1.1285
   30DOPE  H12S 3804   6.575   1.225  15.032 -0.6778  2.4307  1.4737
   30DOPE  C213 3805   6.395   1.151  14.960 -0.1371  0.3639  0.3170
   30DOPE  H13R 3806   6.334   1.243  14.946 -2.7518 -0.9820  1.9280
   30DOPE  H13S 3807   6.325   1.069  14.986 -3.4421  3.2532  1.4461
   30DOPE  C214 3808   6.477   1.109  14.839 -0.2727 -0.5050 -0.2218
   30DOPE  H14R 3809   6.527   1.012  14.858  0.3634 -0.0859  0.2472
   30DOPE  H14S 3810   6.548   1.191  14.815 -0.5896 -0.0672  0.3128
   30DOPE  C215 3811   6.381   1.098  14.727 -0.3442 -0.1720 -0.0484
   30DOPE  H15R 3812   6.300   1.175  14.735  0.1783  0.2843  0.9301
   30DOPE  H15S 3813   6.334   0.998  14.737  1.2381 -1.2860 -2.6878
   30DOPE  C216 3814   6.455   1.105  14.590 -0.0509 -0.3476 -0.1191
   30DOPE  H16R 3815   6.498   1.003  14.573 -0.9319 -0.7018 -0.2505
   30DOPE  H16S 3816   6.535   1.182  14.598 -1.6869  1.3031  0.8403
   30DOPE  C217 3817   6.356   1.137  14.477  0.4374  0.1494  0.4961
   30DOPE  H17R 3818   6.404   1.168  14.382 -0.9981  2.2889  0.3943
   30DOPE  H17S 3819   6.297   1.225  14.511  0.8064  0.1195  1.2303
   30DOPE  C218 3820   6.253   1.021  14.462  0.2678  0.4845 -0.0227
   30DOPE  H18R 3821   6.301   0.921  14.472  0.5742  0.4920 -1.3391
   30DOPE  H18S 3822   6.199   1.033  14.366  0.0195 -2.2189 -0.2961
   30DOPE  H18T 3823   6.179   1.022  14.545  1.6679  2.1559  1.2905
   30DOPE   C33 3824   6.847   1.676  15.921 -0.5247  0.6854  0.2757
   30DOPE   H3X 3825   6.942   1.723  15.952 -0.1573  0.0055  0.2099
   30DOPE   H3Y 3826   6.774   1.750  15.959 -0.6306  1.6184 -1.6046
   30DOPE   C34 3827   6.845   1.663  15.765 -0.1339  0.0738 -0.6107
   30DOPE   H4X 3828   6.894   1.757  15.732  1.5344 -0.1776  0.9917
   30DOPE   H4Y 3829   6.920   1.585  15.740  1.4981  1.4924 -0.3317
   30DOPE   C35 3830   6.700   1.655  15.719 -0.1744  0.1346 -0.1645
   30DOPE   H5X 3831   6.637   1.730  15.772  0.2004  1.9737 -2.1513
   30DOPE   H5Y 3832   6.666   1.553  15.745 -0.3482 -0.5241 -2.7043
   30DOPE   C36 3833   6.666   1.669  15.564  0.7265  0.2320 -0.4141
   30DOPE   H6X 3834   6.731   1.748  15.520  0.0224  0.2301 -1.4820
   30DOPE   H6Y 3835   6.558   1.689  15.549  0.9477  1.7139 -0.1333
   30DOPE   C37 3836   6.694   1.538  15.488 -0.0625  0.4805  0.1009
   30DOPE   H7X 3837   6.805   1.527  15.492  0.1015  1.8306  0.0449
   30DOPE   H7Y 3838   6.649   1.458  15.550 -0.9322  1.1736  0.3871
   30DOPE   C38 3839   6.631   1.533  15.346  1.0536 -0.2870 -0.1652
   30DOPE   H8X 3840   6.520   1.534  15.352  0.9678 -0.0771 -1.4556
   30DOPE   H8Y 3841   6.659   1.437  15.298 -1.2313 -0.9382 -0.3513
   30DOPE   C39 3842   6.689   1.646  15.263  0.1032  0.7327 -0.0602
   30DOPE   H9X 3843   6.683   1.748  15.305  0.5184  1.2188 -1.1119
   30DOPE  C310 3844   6.731   1.634  15.139  0.0551  0.0636  0.0369
   30DOPE  H10X 3845   6.761   1.721  15.079 -2.2174 -0.0398 -1.3928
   30DOPE  C311 3846   6.744   1.503  15.069 -0.0473  0.0375 -0.0307
   30DOPE  H11X 3847   6.835   1.458  15.113  1.0909  1.0393 -1.2789
   30DOPE  H11Y 3848   6.654   1.438  15.066  0.1820 -0.2750 -0.1714
   30DOPE  C312 3849   6.782   1.499  14.919  0.3830  0.7326 -0.0112
   30DOPE  H12X 3850   6.787   1.393  14.886 -1.5464  0.8888 -0.9481
   30DOPE  H12Y 3851   6.880   1.547  14.897 -0.6294  1.6709 -3.1105
   30DOPE  C313 3852   6.686   1.584  14.830  0.4791  0.3455 -0.4721
   30DOPE  H13X 3853   6.671   1.687  14.870 -1.9512 -0.6155  1.3655
   30DOPE  H13Y 3854   6.733   1.596  14.730  3.4117  0.8816  0.8536
   30DOPE  C314 3855   6.546   1.522  14.830  0.7507 -0.6720 -0.1443
   30DOPE  H14X 3856   6.494   1.539  14.927  0.9355 -1.5430  0.1117
   30DOPE  H14Y 3857   6.556   1.412  14.815  0.4251 -0.9059  1.1539
   30DOPE  C315 3858   6.451   1.580  14.724  0.1170  0.2038  0.4371
   30DOPE  H15X 3859   6.510   1.586  14.630 -0.7071 -0.6710 -0.1641
   30DOPE  H15Y 3860   6.443   1.686  14.757 -1.7613  0.3720 -0.4050
   30DOPE  C316 3861   6.317   1.524  14.707  0.7310  0.2126  0.2893
   30DOPE  H16X 3862   6.264   1.517  14.804  0.1709  0.3123 -0.0029
   30DOPE  H16Y 3863   6.322   1.425  14.656 -3.4208  0.6171 -1.3334
   30DOPE  C317 3864   6.234   1.618  14.613  0.2744 -0.1156 -0.1326
   30DOPE  H17X 3865   6.135   1.568  14.603 -0.5426  0.7977  2.6114
   30DOPE  H17Y 3866   6.200   1.717  14.649  0.5428 -0.6248  1.6123
   30DOPE  C318 3867   6.306   1.642  14.483  1.4755 -0.2434  0.1441
   30DOPE  H18X 3868   6.306   1.550  14.421 -1.0568  0.1288 -0.5346
   30DOPE  H18Y 3869   6.234   1.700  14.421 -0.1294 -1.8836  0.3668
   30DOPE  H18Z 3870   6.406   1.689  14.483  1.0381  0.7907 -1.9899
   31DOPE     N 3871   3.153   4.364  13.635  0.0835 -0.4328  0.6154
   31DOPE   HN1 3872   3.052   4.389  13.640  0.3898  0.9596  0.2595
   31DOPE   HN2 3873   3.207   4.441  13.680  0.6324  0.4537 -1.4275
   31DOPE   HN3 3874   3.164   4.354  13.532 -0.1123  0.5390  0.4935
   31DOPE   C12 3875   3.159   4.228  13.691  0.0832  0.8245 -0.4825
   31DOPE  H12A 3876   3.139   4.229  13.800 -1.0381  0.6482 -0.6835
   31DOPE  H12B 3877   3.265   4.194  13.680 -0.5391 -0.9724 -1.2079
   31DOPE   C11 3878   3.059   4.139  13.620  0.2926 -0.0894  0.0907
   31DOPE  H11A 3879   3.073   4.039  13.668  0.5736  0.0234  0.2463
   31DOPE  H11B 3880   3.082   4.123  13.512  2.4752 -0.1807  0.5148
   31DOPE     P 3881   2.806   4.143  13.552  0.3097  0.0446 -0.0470
   31DOPE   O13 3882   2.807   3.991  13.563  0.1283 -0.6549 -0.5300
   31DOPE   O14 3883   2.800   4.209  13.422  0.2287 -0.3196 -0.5799
   31DOPE   O11 3884   2.683   4.206  13.635  0.0910  0.4294  0.5115
   31DOPE   O12 3885   2.929   4.201  13.638  0.3269  0.1513 -0.2583
   31DOPE    C1 3886   2.668   4.144  13.769  0.5498 -0.3685 -0.4336
   31DOPE    HA 3887   2.719   4.208  13.845 -0.5848  0.2259 -0.1440
   31DOPE    HB 3888   2.704   4.040  13.781  1.1250 -0.1085  0.2180
   31DOPE    C2 3889   2.513   4.153  13.803  0.0011  0.4836 -0.2990
   31DOPE    HS 3890   2.470   4.077  13.734 -0.5153  0.9283 -0.4737
   31DOPE   O21 3891   2.461   4.284  13.777  0.2630  0.1871 -0.5025
   31DOPE   C21 3892   2.324   4.288  13.766 -0.0996 -0.0735  0.4321
   31DOPE   O22 3893   2.258   4.187  13.755  0.3770 -0.1570 -0.4770
   31DOPE   C22 3894   2.270   4.431  13.762  0.1108  0.0013  1.2444
   31DOPE   H2R 3895   2.184   4.427  13.691  1.0289 -0.1460  0.1171
   31DOPE   H2S 3896   2.343   4.493  13.705  0.7174 -2.1149 -0.4063
   31DOPE    C3 3897   2.488   4.101  13.951 -0.0596  0.4679 -0.4941
   31DOPE    HX 3898   2.383   4.119  13.980  0.1962  3.3340 -1.0565
   31DOPE    HY 3899   2.534   4.181  14.013 -1.0806  0.3859  0.3871
   31DOPE   O31 3900   2.551   3.976  13.982 -0.1051  0.1761 -0.0446
   31DOPE   C31 3901   2.489   3.873  13.930 -0.1478 -0.4372 -0.3287
   31DOPE   O32 3902   2.392   3.878  13.857  0.2191 -0.3567  0.0876
   31DOPE   C32 3903   2.563   3.743  13.958 -0.0000 -0.0237  0.4550
   31DOPE   H2X 3904   2.633   3.715  13.876  0.1430  0.1021  0.5334
   31DOPE   H2Y 3905   2.624   3.751  14.050  0.9303  0.0698 -0.1635
   31DOPE   C23 3906   2.225   4.496  13.889 -0.1526  0.9290 -0.4442
   31DOPE   H3R 3907   2.157   4.421  13.934  1.2772 -1.2268 -1.6891
   31DOPE   H3S 3908   2.156   4.583  13.883  0.3128  1.3972  0.7085
   31DOPE   C24 3909   2.340   4.536  13.983 -0.5208  0.1349  0.2743
   31DOPE   H4R 3910   2.384   4.625  13.934  1.2889 -1.0560 -0.3609
   31DOPE   H4S 3911   2.421   4.460  13.976  0.4837  1.1634  0.5250
   31DOPE   C25 3912   2.311   4.580  14.130  0.2748 -0.2604 -0.7516
   31DOPE   H5R 3913   2.253   4.674  14.126  0.6914  0.0666  0.5178
   31DOPE   H5S 3914   2.410   4.590  14.179  0.2973 -1.3483 -0.5418
   31DOPE   C26 3915   2.248   4.458  14.199 -0.3948 -1.0662 -0.1518
   31DOPE   H6R 3916   2.325   4.379  14.214 -0.4904 -1.5504 -2.0337
   31DOPE   H6S 3917   2.155   4.418  14.154 -0.5675 -0.9462  0.0962
   31DOPE   C27 3918   2.200   4.495  14.340 -0.2093 -0.4133  0.4108
   31DOPE   H7R 3919   2.145   4.407  14.379 -1.2091 -0.1632 -0.3921
   31DOPE   H7S 3920   2.132   4.583  14.343  0.6499  0.2654  0.6632
   31DOPE   C28 3921   2.308   4.541  14.441 -0.2301  0.1612  0.1060
   31DOPE   H8R 3922   2.348   4.641  14.414 -1.1393 -0.0033 -2.0090
   31DOPE   H8S 3923   2.387   4.463  14.441  1.2692  1.6100  1.2745
   31DOPE   C29 3924   2.241   4.555  14.578 -0.2898  0.4011  0.4067
   31DOPE   H9R 3925   2.162   4.632  14.579  0.4302  1.3170 -2.6393
   31DOPE  C210 3926   2.259   4.479  14.685  0.6419 -0.1645 -0.2478
   31DOPE  H10R 3927   2.194   4.489  14.773 -0.7380 -3.6528 -0.7077
   31DOPE  C211 3928   2.338   4.362  14.696 -0.0482  0.6077 -0.0600
   31DOPE  H11R 3929   2.433   4.373  14.752  1.9613 -3.9901 -1.9691
   31DOPE  H11S 3930   2.389   4.322  14.606  1.3261 -1.6180  1.6076
   31DOPE  C212 3931   2.279   4.238  14.757  0.2489 -0.6588 -0.1845
   31DOPE  H12R 3932   2.216   4.275  14.841  0.0818  0.0217 -0.6025
   31DOPE  H12S 3933   2.363   4.176  14.795  0.3495  1.3204  3.2223
   31DOPE  C213 3934   2.170   4.178  14.658 -0.5822  0.2377 -0.2584
   31DOPE  H13R 3935   2.204   4.190  14.553 -2.1009  0.6053 -0.7327
   31DOPE  H13S 3936   2.078   4.234  14.684 -0.3356  0.2908  0.5325
   31DOPE  C214 3937   2.133   4.026  14.686 -0.1715 -0.8165 -0.4649
   31DOPE  H14R 3938   2.106   4.020  14.794  1.1822  2.4900  0.1658
   31DOPE  H14S 3939   2.222   3.969  14.653  1.6220  2.2727 -1.4095
   31DOPE  C215 3940   2.012   3.972  14.614  0.1550 -0.0707 -0.0215
   31DOPE  H15R 3941   2.002   4.005  14.508  0.3364  0.7731  0.2145
   31DOPE  H15S 3942   1.919   4.013  14.659  1.8238  0.5003  3.1806
   31DOPE  C216 3943   1.997   3.817  14.624 -0.0866  0.5448 -0.4324
   31DOPE  H16R 3944   1.997   3.779  14.729  0.1167 -0.2111 -0.6978
   31DOPE  H16S 3945   2.088   3.765  14.585 -0.3041  0.2460 -0.5410
   31DOPE  C217 3946   1.867   3.757  14.567  0.0536 -0.1565  0.3076
   31DOPE  H17R 3947   1.832   3.806  14.473 -0.4523  0.2587  0.7076
   31DOPE  H17S 3948   1.787   3.777  14.641 -0.1305  0.3365 -0.0152
   31DOPE  C218 3949   1.866   3.599  14.544  0.0618  0.0604  0.1405
   31DOPE  H18R 3950   1.762   3.562  14.525 -0.0963  0.6106 -0.0762
   31DOPE  H18S 3951   1.891   3.547  14.639 -1.3649 -2.0264 -0.5554
   31DOPE  H18T 3952   1.937   3.573  14.463  0.6900  0.6401  0.4954
   31DOPE   C33 3953   2.467   3.620  13.969  0.2637  0.3013  0.8359
   31DOPE   H3X 3954   2.531   3.533  13.992 -0.1607 -0.9708 -2.2462
   31DOPE   H3Y 3955   2.397   3.610  13.883  1.1701  1.9945 -0.1532
   31DOPE   C34 3956   2.374   3.641  14.087  0.3938  0.6020  0.4611
   31DOPE   H4X 3957   2.306   3.728  14.072 -0.8144  0.4066  3.9267
   31DOPE   H4Y 3958   2.304   3.555  14.079 -0.5979  1.5674 -3.1613
   31DOPE   C35 3959   2.451   3.651  14.219  1.2455  0.4918 -0.7215
   31DOPE   H5X 3960   2.528   3.731  14.220  1.5626  0.1962  0.0615
   31DOPE   H5Y 3961   2.514   3.560  14.226 -0.6672 -0.7821  1.2890
   31DOPE   C36 3962   2.362   3.659  14.347 -0.1682 -0.1741 -0.5240
   31DOPE   H6X 3963   2.287   3.577  14.344 -1.2009  0.7672 -1.6191
   31DOPE   H6Y 3964   2.307   3.755  14.343 -2.0506 -0.9869  2.5084
   31DOPE   C37 3965   2.437   3.658  14.480 -0.1731 -0.4412 -0.0633
   31DOPE   H7X 3966   2.361   3.647  14.561 -1.1833  0.3198 -0.8721
   31DOPE   H7Y 3967   2.507   3.573  14.465  0.1190 -0.1074 -0.6019
   31DOPE   C38 3968   2.519   3.778  14.525 -0.5178 -0.2830  0.3805
   31DOPE   H8X 3969   2.457   3.870  14.520  1.9737  1.4421 -1.2004
   31DOPE   H8Y 3970   2.613   3.796  14.468  0.2985 -1.2530  1.3728
   31DOPE   C39 3971   2.580   3.770  14.662  0.4152 -0.2378 -0.1136
   31DOPE   H9X 3972   2.518   3.821  14.737 -0.2391 -2.9211  1.3158
   31DOPE  C310 3973   2.709   3.747  14.698  0.5544  0.0910 -0.5513
   31DOPE  H10X 3974   2.737   3.768  14.802 -0.3290  1.6438 -0.5988
   31DOPE  C311 3975   2.822   3.709  14.605 -0.5116 -0.4221 -0.2247
   31DOPE  H11X 3976   2.831   3.598  14.606 -0.4560 -0.4271 -1.0183
   31DOPE  H11Y 3977   2.804   3.735  14.499 -0.3945 -0.6094 -0.2914
   31DOPE  C312 3978   2.946   3.758  14.677  0.0984 -0.0359 -0.7265
   31DOPE  H12X 3979   2.968   3.723  14.781  2.9619 -1.2719 -1.6440
   31DOPE  H12Y 3980   2.927   3.868  14.683 -1.0967 -0.1421 -2.0080
   31DOPE  C313 3981   3.079   3.743  14.607  0.0090 -0.5750 -0.4454
   31DOPE  H13X 3982   3.101   3.635  14.596  1.1074 -0.5486  1.0957
   31DOPE  H13Y 3983   3.065   3.783  14.505  0.7367  0.8200 -0.0320
   31DOPE  C314 3984   3.204   3.819  14.671  0.0638 -0.0001  0.5857
   31DOPE  H14X 3985   3.248   3.752  14.747 -0.1550 -0.8020  0.0092
   31DOPE  H14Y 3986   3.174   3.915  14.719 -1.3795  0.1864 -0.5959
   31DOPE  C315 3987   3.312   3.860  14.572 -0.1488 -0.0616 -0.6478
   31DOPE  H15X 3988   3.394   3.919  14.619  0.7626  0.0574 -2.3095
   31DOPE  H15Y 3989   3.266   3.936  14.505 -1.6817  1.1714  1.6684
   31DOPE  C316 3990   3.382   3.748  14.497  0.3319  0.1099 -0.6369
   31DOPE  H16X 3991   3.429   3.786  14.403  0.6393  1.8639  0.1938
   31DOPE  H16Y 3992   3.303   3.674  14.473  1.2801 -0.7902 -1.0970
   31DOPE  C317 3993   3.498   3.678  14.578  0.2267 -0.3193  0.2426
   31DOPE  H17X 3994   3.568   3.759  14.608 -0.0967 -0.3478  1.1039
   31DOPE  H17Y 3995   3.458   3.637  14.673  0.9695  0.9476  1.1389
   31DOPE  C318 3996   3.579   3.576  14.509 -0.5779  0.4769 -0.2143
   31DOPE  H18X 3997   3.627   3.612  14.415  0.2851 -1.0670 -0.3974
   31DOPE  H18Y 3998   3.658   3.537  14.577 -1.9526 -0.8747  0.6788
   31DOPE  H18Z 3999   3.511   3.493  14.478 -1.5897  1.7286 -1.4567
   32DOPE     N 4000   4.911   5.132  13.814  0.3669 -0.2582 -0.1129
   32DOPE   HN1 4001   4.918   5.153  13.915 -1.7993  2.4568 -0.4260
   32DOPE   HN2 4002   4.881   5.035  13.790 -1.5582  0.2954 -0.0871
   32DOPE   HN3 4003   5.005   5.133  13.770 -0.1629 -2.6575 -1.5014
   32DOPE   C12 4004   4.838   5.240  13.743  0.3233  0.1102 -0.6007
   32DOPE  H12A 4005   4.844   5.205  13.638  1.4669 -0.7567 -0.2666
   32DOPE  H12B 4006   4.892   5.337  13.746 -2.1370  1.5520  1.0089
   32DOPE   C11 4007   4.694   5.257  13.798 -0.0831 -0.2952 -0.2682
   32DOPE  H11A 4008   4.700   5.267  13.909  3.0084  0.5047 -0.4105
   32DOPE  H11B 4009   4.635   5.168  13.768  1.6652 -2.5485  2.4725
   32DOPE     P 4010   4.577   5.497  13.823  0.1566  0.1993 -0.2610
   32DOPE   O13 4011   4.496   5.576  13.726 -0.5833  0.8881 -0.0623
   32DOPE   O14 4012   4.677   5.580  13.893 -0.5485  0.3895 -0.4445
   32DOPE   O11 4013   4.484   5.429  13.933  0.0759 -0.0583  0.6009
   32DOPE   O12 4014   4.636   5.376  13.744  0.3241 -0.4386  0.2066
   32DOPE    C1 4015   4.383   5.334  13.897  0.1989  0.0360  0.2046
   32DOPE    HA 4016   4.419   5.269  13.814  0.7842 -1.2764  1.4297
   32DOPE    HB 4017   4.292   5.388  13.866 -0.4076  1.2126  3.5635
   32DOPE    C2 4018   4.330   5.250  14.014  0.1536  0.3594 -0.4321
   32DOPE    HS 4019   4.259   5.314  14.070 -0.0958 -0.3699  0.1081
   32DOPE   O21 4020   4.443   5.220  14.104  0.1813  0.3194 -0.4500
   32DOPE   C21 4021   4.460   5.293  14.215  0.0618 -0.7548 -0.0608
   32DOPE   O22 4022   4.399   5.395  14.243 -0.1837  0.6645 -0.0202
   32DOPE   C22 4023   4.574   5.236  14.299 -0.6528 -0.0537 -0.2898
   32DOPE   H2R 4024   4.666   5.245  14.237 -0.4954  0.5062  0.0059
   32DOPE   H2S 4025   4.552   5.128  14.308  0.9792 -0.4497 -0.6568
   32DOPE    C3 4026   4.252   5.126  13.961 -0.2189  0.3237 -0.1199
   32DOPE    HX 4027   4.336   5.065  13.922  0.8099 -0.0370  2.4348
   32DOPE    HY 4028   4.188   5.161  13.878 -1.8477  1.1170  1.3921
   32DOPE   O31 4029   4.181   5.051  14.069 -0.7923  0.3384  0.0128
   32DOPE   C31 4030   4.254   4.951  14.128  0.3545 -0.2457  0.5366
   32DOPE   O32 4031   4.368   4.928  14.104 -0.0005  0.1876  0.5549
   32DOPE   C32 4032   4.166   4.866  14.223 -0.4772  0.1201  0.4274
   32DOPE   H2X 4033   4.082   4.932  14.256 -1.5765 -1.1264  0.2131
   32DOPE   H2Y 4034   4.128   4.777  14.168  0.3859 -1.9517  2.9855
   32DOPE   C23 4035   4.607   5.289  14.449  0.0383 -0.0624 -0.2763
   32DOPE   H3R 4036   4.511   5.281  14.505  0.6239  0.7419  0.8964
   32DOPE   H3S 4037   4.643   5.394  14.436  3.0665 -1.0593 -0.7676
   32DOPE   C24 4038   4.714   5.201  14.518 -0.4954  0.7842  0.7031
   32DOPE   H4R 4039   4.802   5.210  14.451 -0.6660  0.4766  0.4353
   32DOPE   H4S 4040   4.677   5.097  14.524  0.7339  0.3867  1.7931
   32DOPE   C25 4041   4.745   5.244  14.661 -0.3417  0.4227  0.1667
   32DOPE   H5R 4042   4.654   5.233  14.724  0.5790  0.8111  1.6439
   32DOPE   H5S 4043   4.775   5.350  14.670  1.9240 -0.1621  0.1311
   32DOPE   C26 4044   4.861   5.159  14.717 -0.0910  0.0423  0.2353
   32DOPE   H6R 4045   4.963   5.203  14.702  0.3911 -0.3639  2.0829
   32DOPE   H6S 4046   4.860   5.055  14.680  0.7289 -0.0765  0.5088
   32DOPE   C27 4047   4.845   5.153  14.870 -0.2247  0.0998  0.5149
   32DOPE   H7R 4048   4.747   5.104  14.884 -1.0959  1.6188  0.0352
   32DOPE   H7S 4049   4.833   5.258  14.904 -3.8909  1.0095 -2.8613
   32DOPE   C28 4050   4.959   5.068  14.941  0.9606  0.2826 -0.4265
   32DOPE   H8R 4051   5.058   5.103  14.905  1.1134 -0.9581 -1.3089
   32DOPE   H8S 4052   4.951   4.963  14.904 -0.6394 -0.4612  1.8219
   32DOPE   C29 4053   4.939   5.083  15.087 -0.4832  0.5869 -0.1651
   32DOPE   H9R 4054   4.882   5.005  15.140 -1.7943  0.6891 -1.3737
   32DOPE  C210 4055   4.994   5.184  15.158  0.4638 -0.2547  0.3533
   32DOPE  H10R 4056   4.971   5.203  15.263 -0.1433 -1.7351  0.5119
   32DOPE  C211 4057   5.071   5.296  15.086 -0.1919  0.0676 -0.4657
   32DOPE  H11R 4058   5.059   5.293  14.976 -0.0145  0.3765 -0.4948
   32DOPE  H11S 4059   5.178   5.277  15.110  0.2325 -1.2706 -3.0321
   32DOPE  C212 4060   5.018   5.434  15.135 -0.0356 -0.3411  0.2239
   32DOPE  H12R 4061   5.044   5.435  15.243  1.2625  1.2805 -0.0814
   32DOPE  H12S 4062   4.907   5.440  15.123  0.1150 -0.5299 -1.4366
   32DOPE  C213 4063   5.102   5.547  15.074 -0.2446 -0.0398 -0.2841
   32DOPE  H13R 4064   5.206   5.518  15.047 -0.0863 -0.3371  0.6123
   32DOPE  H13S 4065   5.101   5.631  15.147 -1.1175  0.9640 -1.4012
   32DOPE  C214 4066   5.043   5.576  14.935 -0.1837  0.2741 -0.0291
   32DOPE  H14R 4067   4.943   5.621  14.951 -0.7798 -0.3512 -1.7870
   32DOPE  H14S 4068   5.020   5.482  14.881 -0.1118 -0.0937  0.5645
   32DOPE  C215 4069   5.125   5.664  14.843  0.0307 -0.4028  0.2279
   32DOPE  H15R 4070   5.226   5.624  14.819  1.0302  0.1970  3.0159
   32DOPE  H15S 4071   5.143   5.759  14.899 -0.3185  1.1762 -2.1784
   32DOPE  C216 4072   5.046   5.701  14.710 -0.5190  0.1200 -0.0884
   32DOPE  H16R 4073   5.042   5.608  14.649  1.7445 -2.1142  2.8653
   32DOPE  H16S 4074   5.118   5.764  14.654 -0.6560  3.1832  2.8839
   32DOPE  C217 4075   4.906   5.759  14.735  0.6856  0.7952 -1.2094
   32DOPE  H17R 4076   4.901   5.840  14.811 -1.4542 -0.4094  0.0240
   32DOPE  H17S 4077   4.849   5.673  14.774 -0.0755  1.1741 -1.4632
   32DOPE  C218 4078   4.834   5.801  14.608  0.6004 -0.3569 -0.5362
   32DOPE  H18R 4079   4.867   5.896  14.562 -3.9898  1.7375 -0.0089
   32DOPE  H18S 4080   4.727   5.821  14.628  0.4363 -0.0981 -1.6187
   32DOPE  H18T 4081   4.832   5.718  14.535 -0.9312  0.1854 -1.1456
   32DOPE   C33 4082   4.239   4.817  14.346  0.3401  0.4728 -0.6921
   32DOPE   H3X 4083   4.327   4.752  14.327  0.9393 -0.1808  3.4898
   32DOPE   H3Y 4084   4.167   4.745  14.390  1.5335 -0.7525 -0.6858
   32DOPE   C34 4085   4.270   4.926  14.447 -0.3969 -0.1926 -0.4892
   32DOPE   H4X 4086   4.328   5.011  14.405  1.0743  0.5836  2.7752
   32DOPE   H4Y 4087   4.171   4.963  14.480 -0.6847  0.3269 -1.9024
   32DOPE   C35 4088   4.347   4.868  14.572 -0.0181  0.1747 -0.3654
   32DOPE   H5X 4089   4.457   4.873  14.557  0.5630 -0.6377  2.7596
   32DOPE   H5Y 4090   4.311   4.764  14.587 -1.7886  0.8720  0.4743
   32DOPE   C36 4091   4.317   4.951  14.700  0.5319  0.4046 -0.0955
   32DOPE   H6X 4092   4.340   4.893  14.791 -0.4120  0.7839  0.3970
   32DOPE   H6Y 4093   4.208   4.972  14.700  0.1512 -1.4634 -0.3880
   32DOPE   C37 4094   4.395   5.081  14.712  0.2426 -0.2289 -0.2369
   32DOPE   H7X 4095   4.503   5.057  14.724 -0.1252 -2.8305 -1.4519
   32DOPE   H7Y 4096   4.385   5.142  14.620 -0.9037 -0.6188 -0.3784
   32DOPE   C38 4097   4.355   5.166  14.835 -0.4313 -0.5433  0.4781
   32DOPE   H8X 4098   4.422   5.255  14.834 -0.9363 -0.1569 -0.6083
   32DOPE   H8Y 4099   4.373   5.105  14.926  0.7473  0.0386  0.6561
   32DOPE   C39 4100   4.212   5.218  14.842  0.0605  0.4872  0.7687
   32DOPE   H9X 4101   4.183   5.275  14.753 -0.8471  2.7641  2.4158
   32DOPE  C310 4102   4.137   5.234  14.951  0.2712 -0.1603 -0.0347
   32DOPE  H10X 4103   4.038   5.276  14.931  1.4931  1.6456 -3.2217
   32DOPE  C311 4104   4.177   5.189  15.091 -0.0296  0.4189 -0.6926
   32DOPE  H11X 4105   4.253   5.109  15.095  0.2494  0.7297  0.8383
   32DOPE  H11Y 4106   4.229   5.274  15.139  1.8324 -0.7842 -0.4953
   32DOPE  C312 4107   4.054   5.148  15.182 -0.6191 -0.4317 -0.3043
   32DOPE  H12X 4108   4.098   5.105  15.275  0.2760 -2.7726 -1.7231
   32DOPE  H12Y 4109   4.003   5.064  15.130  0.0116 -0.6021 -0.6578
   32DOPE  C313 4110   3.973   5.258  15.220  0.7291 -1.1413 -0.1495
   32DOPE  H13X 4111   4.030   5.352  15.211  0.3293 -0.8518  0.2610
   32DOPE  H13Y 4112   3.893   5.268  15.143 -0.5510 -0.8017  1.1628
   32DOPE  C314 4113   3.914   5.251  15.363 -0.4347 -0.0971  0.5454
   32DOPE  H14X 4114   3.866   5.151  15.378 -1.1047  0.1147 -0.1607
   32DOPE  H14Y 4115   3.834   5.328  15.370 -1.1532 -0.5088 -2.0743
   32DOPE  C315 4116   4.028   5.268  15.467  0.3438  0.0913  0.1126
   32DOPE  H15X 4117   4.083   5.362  15.447  1.9192 -0.8440 -0.0981
   32DOPE  H15Y 4118   4.107   5.190  15.463  2.5771  2.2419 -0.9793
   32DOPE  C316 4119   3.977   5.281  15.612 -0.4227  0.1692 -0.1931
   32DOPE  H16X 4120   4.061   5.300  15.683 -1.4331 -0.6140  1.2424
   32DOPE  H16Y 4121   3.926   5.190  15.649  0.7834 -0.5660 -0.2936
   32DOPE  C317 4122   3.880   5.394  15.622 -0.0658 -0.6851 -0.5712
   32DOPE  H17X 4123   3.932   5.488  15.594  0.1422 -1.2528 -2.2306
   32DOPE  H17Y 4124   3.802   5.402  15.543  1.7498  1.4341 -2.2871
   32DOPE  C318 4125   3.809   5.407  15.754  0.0267 -0.0977 -0.7627
   32DOPE  H18X 4126   3.727   5.481  15.742  0.0310 -0.1618 -1.1964
   32DOPE  H18Y 4127   3.777   5.305  15.782  3.5565 -1.8892 -2.6606
   32DOPE  H18Z 4128   3.876   5.447  15.834 -3.1727  1.3763  1.3849
   33DOPE     N 4129   2.065   2.361  13.241 -0.6168 -0.3755  0.0653
   33DOPE   HN1 4130   1.989   2.290  13.248  0.0685 -1.2633 -1.2173
   33DOPE   HN2 4131   2.035   2.448  13.290 -2.3111 -1.1275  0.4729
   33DOPE   HN3 4132   2.094   2.383  13.144  4.8664  2.9527  2.0442
   33DOPE   C12 4133   2.190   2.294  13.300  0.5588  0.0792  0.6853
   33DOPE  H12A 4134   2.241   2.239  13.219 -1.0324 -0.0267 -0.2912
   33DOPE  H12B 4135   2.157   2.217  13.373 -0.7884  0.6492  0.7138
   33DOPE   C11 4136   2.273   2.395  13.371  0.1774 -0.6607 -0.0676
   33DOPE  H11A 4137   2.368   2.354  13.412 -1.0635 -0.8977  2.8434
   33DOPE  H11B 4138   2.210   2.425  13.458  0.2222 -0.4079 -0.1228
   33DOPE     P 4139   2.265   2.656  13.320 -0.3340  0.2729 -0.0652
   33DOPE   O13 4140   2.140   2.662  13.398 -0.3606 -0.2643  0.2151
   33DOPE   O14 4141   2.275   2.745  13.199  0.1933 -0.4831 -0.5319
   33DOPE   O11 4142   2.381   2.687  13.417  0.1062 -0.1150  0.2187
   33DOPE   O12 4143   2.301   2.511  13.289  0.2942 -0.4864  0.0210
   33DOPE    C1 4144   2.390   2.804  13.498 -0.0858  0.0067  0.1267
   33DOPE    HA 4145   2.302   2.872  13.489  0.1036  0.5203  1.8251
   33DOPE    HB 4146   2.474   2.862  13.456 -1.8583  1.5248 -1.5288
   33DOPE    C2 4147   2.417   2.773  13.653  0.6923  0.2774  0.0835
   33DOPE    HS 4148   2.505   2.705  13.649  0.6322  0.1549  0.7667
   33DOPE   O21 4149   2.296   2.714  13.701 -0.0460 -0.4432  0.0752
   33DOPE   C21 4150   2.309   2.586  13.693 -0.3246  0.4132 -0.1245
   33DOPE   O22 4151   2.405   2.520  13.656 -0.3901 -0.1788 -0.5957
   33DOPE   C22 4152   2.179   2.523  13.742  0.5443 -1.1813  0.8392
   33DOPE   H2R 4153   2.109   2.519  13.656 -0.1320 -0.4057  1.3318
   33DOPE   H2S 4154   2.133   2.602  13.805 -2.4167 -1.5586 -0.6513
   33DOPE    C3 4155   2.451   2.896  13.739 -0.1610  0.0137  0.3660
   33DOPE    HX 4156   2.370   2.970  13.721 -1.1601 -0.8474  1.1978
   33DOPE    HY 4157   2.544   2.945  13.703  0.6595 -0.5772  1.6120
   33DOPE   O31 4158   2.451   2.866  13.882  0.1598 -0.3702 -0.2916
   33DOPE   C31 4159   2.562   2.789  13.928  0.5624 -0.1618  0.5985
   33DOPE   O32 4160   2.660   2.772  13.860 -0.4799 -0.1039 -0.4874
   33DOPE   C32 4161   2.543   2.748  14.072 -0.2963 -0.5765  0.0029
   33DOPE   H2X 4162   2.586   2.817  14.148 -0.0555 -1.2153  0.4507
   33DOPE   H2Y 4163   2.434   2.753  14.091 -0.4238 -0.7748 -0.6661
   33DOPE   C23 4164   2.199   2.387  13.819 -0.4721 -0.0757  0.6174
   33DOPE   H3R 4165   2.247   2.312  13.752 -1.2459 -0.4426  0.4595
   33DOPE   H3S 4166   2.100   2.341  13.841  0.5853 -2.9885 -0.1496
   33DOPE   C24 4167   2.287   2.409  13.942  0.4027 -0.1399 -0.0158
   33DOPE   H4R 4168   2.249   2.480  14.019 -1.1155  0.2536 -1.0870
   33DOPE   H4S 4169   2.378   2.460  13.907 -0.2845  0.3767 -1.0883
   33DOPE   C25 4170   2.322   2.277  14.011  0.3377 -0.1729 -0.1777
   33DOPE   H5R 4171   2.388   2.295  14.099  1.5737  0.6427 -1.2297
   33DOPE   H5S 4172   2.389   2.225  13.939  0.7930  0.1999 -0.0283
   33DOPE   C26 4173   2.198   2.190  14.038 -0.8925  0.4705 -0.2965
   33DOPE   H6R 4174   2.148   2.175  13.940 -0.2450  1.6120 -0.8297
   33DOPE   H6S 4175   2.116   2.240  14.093 -1.4869 -0.5049 -0.2729
   33DOPE   C27 4176   2.231   2.049  14.087  0.4246  0.2167  0.3028
   33DOPE   H7R 4177   2.271   2.060  14.190 -0.0369 -2.5631  0.8572
   33DOPE   H7S 4178   2.304   2.005  14.017  2.6805  4.1728 -0.1502
   33DOPE   C28 4179   2.106   1.961  14.098  0.6365  0.1818  0.0005
   33DOPE   H8R 4180   2.058   1.950  13.998 -0.3519 -0.3549  0.5199
   33DOPE   H8S 4181   2.040   2.020  14.165  3.9264  3.4924  0.6030
   33DOPE   C29 4182   2.136   1.821  14.146 -0.2374  0.0141  0.4936
   33DOPE   H9R 4183   2.157   1.751  14.065  3.2042  2.2291 -0.7564
   33DOPE  C210 4184   2.133   1.787  14.276  0.0080 -0.2450  0.6806
   33DOPE  H10R 4185   2.196   1.705  14.316  0.4266 -0.4664 -0.3962
   33DOPE  C211 4186   2.086   1.885  14.386  0.2154  0.4370  0.3888
   33DOPE  H11R 4187   2.029   1.970  14.344  2.0400  0.0436 -3.2905
   33DOPE  H11S 4188   2.165   1.921  14.455  1.6145 -1.6394 -0.0333
   33DOPE  C212 4189   1.988   1.811  14.483 -0.6532 -0.4672  0.1740
   33DOPE  H12R 4190   1.925   1.748  14.417 -1.4101 -0.6869  1.0881
   33DOPE  H12S 4191   1.926   1.892  14.527  0.4190  0.1081  0.6720
   33DOPE  C213 4192   2.057   1.725  14.587 -0.2115  0.1545  0.1743
   33DOPE  H13R 4193   2.140   1.779  14.638  1.3452 -1.8099 -0.1450
   33DOPE  H13S 4194   2.113   1.646  14.533 -0.9926 -1.1894  1.2763
   33DOPE  C214 4195   1.969   1.658  14.689  0.1252 -0.3928 -0.3340
   33DOPE  H14R 4196   1.903   1.584  14.638  0.5564 -1.2402  0.2997
   33DOPE  H14S 4197   1.901   1.736  14.729  0.2834  0.4953 -1.7434
   33DOPE  C215 4198   2.054   1.588  14.804 -0.0931  0.1444  0.0449
   33DOPE  H15R 4199   2.097   1.671  14.863  0.1076  0.7589 -0.9401
   33DOPE  H15S 4200   2.143   1.533  14.768  1.0275  2.0073 -0.1410
   33DOPE  C216 4201   1.964   1.493  14.885 -0.3875  0.0805 -0.3933
   33DOPE  H16R 4202   1.931   1.406  14.824 -2.2539  0.0901  0.5432
   33DOPE  H16S 4203   1.869   1.542  14.915 -0.2537  0.5726 -0.7685
   33DOPE  C217 4204   2.043   1.439  15.002  0.0355 -0.7062 -1.0863
   33DOPE  H17R 4205   2.058   1.519  15.079 -0.5774 -0.8762 -0.7836
   33DOPE  H17S 4206   2.147   1.410  14.979  0.2331 -1.0838  0.1983
   33DOPE  C218 4207   1.965   1.324  15.064  0.0825 -0.1736  0.1773
   33DOPE  H18R 4208   1.855   1.322  15.047  0.0788  1.7129 -0.2730
   33DOPE  H18S 4209   1.995   1.327  15.171  1.2794 -1.3958 -0.0989
   33DOPE  H18T 4210   1.997   1.230  15.015 -2.2461 -1.1789  0.4464
   33DOPE   C33 4211   2.597   2.606  14.097  0.5437  0.5960  0.1565
   33DOPE   H3X 4212   2.700   2.611  14.058  0.5531 -0.1885  0.0594
   33DOPE   H3Y 4213   2.528   2.533  14.049  0.0656  0.8036  0.5121
   33DOPE   C34 4214   2.573   2.573  14.249  0.3220  0.7530  1.0307
   33DOPE   H4X 4215   2.592   2.666  14.307 -1.1002  1.0192  1.0893
   33DOPE   H4Y 4216   2.463   2.566  14.263  0.4004 -1.3134  0.9327
   33DOPE   C35 4217   2.664   2.463  14.295  0.0969  0.0262 -0.0315
   33DOPE   H5X 4218   2.762   2.464  14.244 -0.3116 -1.7499 -0.9123
   33DOPE   H5Y 4219   2.632   2.358  14.277  0.1082 -0.2784  1.5701
   33DOPE   C36 4220   2.681   2.472  14.451  0.3468  0.3586  0.4567
   33DOPE   H6X 4221   2.710   2.574  14.485 -0.7315  0.3957  1.2922
   33DOPE   H6Y 4222   2.770   2.417  14.491  2.5757  1.6554 -2.3498
   33DOPE   C37 4223   2.556   2.434  14.533 -0.2835  0.1332  0.2339
   33DOPE   H7X 4224   2.581   2.466  14.637 -0.6931  2.1668 -0.2444
   33DOPE   H7Y 4225   2.470   2.498  14.506  0.7382  0.7599 -1.6610
   33DOPE   C38 4226   2.529   2.283  14.536 -0.3197  0.1760  0.1406
   33DOPE   H8X 4227   2.625   2.228  14.548 -0.6398 -0.5380 -0.5267
   33DOPE   H8Y 4228   2.487   2.255  14.437  1.4271  0.5121 -0.7399
   33DOPE   C39 4229   2.431   2.244  14.647  0.3650  0.9502 -0.7905
   33DOPE   H9X 4230   2.322   2.242  14.632 -0.1226  0.3296  2.2031
   33DOPE  C310 4231   2.462   2.197  14.774  0.8086 -0.6393  0.6530
   33DOPE  H10X 4232   2.382   2.162  14.840  0.2332 -2.3796 -0.8686
   33DOPE  C311 4233   2.601   2.180  14.828 -0.1154 -0.0629  0.1378
   33DOPE  H11X 4234   2.610   2.078  14.871  1.8296  0.4231  0.9998
   33DOPE  H11Y 4235   2.677   2.193  14.748 -1.3988 -0.4337 -1.1818
   33DOPE  C312 4236   2.641   2.286  14.935  0.5503  0.5493 -0.6937
   33DOPE  H12X 4237   2.661   2.387  14.894  1.2036 -0.6560 -3.5654
   33DOPE  H12Y 4238   2.738   2.256  14.982  0.5737 -0.2952 -1.2576
   33DOPE  C313 4239   2.539   2.299  15.057  0.2870  0.4434  0.0797
   33DOPE  H13X 4240   2.469   2.214  15.048  1.7492 -0.6949 -1.0700
   33DOPE  H13Y 4241   2.588   2.306  15.157 -0.4737  2.8587  0.3419
   33DOPE  C314 4242   2.451   2.431  15.045  0.1097 -1.0040 -0.0038
   33DOPE  H14X 4243   2.398   2.418  14.949  1.9553  1.4364 -1.4764
   33DOPE  H14Y 4244   2.521   2.517  15.035 -0.6994  0.0133  2.3055
   33DOPE  C315 4245   2.355   2.462  15.168  1.0433  0.4643  0.1988
   33DOPE  H15X 4246   2.413   2.444  15.261  0.4248 -0.1261  0.4732
   33DOPE  H15Y 4247   2.268   2.394  15.164  0.0931  1.6842 -0.8354
   33DOPE  C316 4248   2.309   2.603  15.164 -0.5964 -0.1294 -0.5563
   33DOPE  H16X 4249   2.251   2.615  15.070  1.6749  0.3551 -1.9813
   33DOPE  H16Y 4250   2.394   2.675  15.161 -1.4764  1.0885  1.6262
   33DOPE  C317 4251   2.238   2.653  15.296  0.1852  0.0780  0.0273
   33DOPE  H17X 4252   2.305   2.645  15.384 -0.3757  1.0294  0.5582
   33DOPE  H17Y 4253   2.207   2.760  15.297 -0.4250 -0.0992  0.6819
   33DOPE  C318 4254   2.115   2.570  15.338  0.1029  0.3676 -0.1418
   33DOPE  H18X 4255   2.029   2.590  15.270 -0.7792 -3.7243 -0.4872
   33DOPE  H18Y 4256   2.154   2.466  15.337 -0.7625 -0.0874  2.7670
   33DOPE  H18Z 4257   2.073   2.587  15.440 -2.4164  1.7186 -1.2960
   34DOPE     N 4258   1.454   5.310  13.225  0.8543  0.2909 -0.5712
   34DOPE   HN1 4259   1.499   5.402  13.205  0.3713  0.7963  0.6046
   34DOPE   HN2 4260   1.424   5.274  13.132 -0.6986 -0.5844  0.2349
   34DOPE   HN3 4261   1.366   5.317  13.278  1.0655 -0.7079 -0.0576
   34DOPE   C12 4262   1.544   5.213  13.290  0.4939  0.0194 -0.8735
   34DOPE  H12A 4263   1.591   5.273  13.372 -0.0686 -1.2060  0.3816
   34DOPE  H12B 4264   1.621   5.188  13.214  2.0537 -0.6410  0.8462
   34DOPE   C11 4265   1.474   5.080  13.330 -0.0811 -0.1298  0.5477
   34DOPE  H11A 4266   1.556   5.018  13.374  0.7558 -0.6713 -1.6451
   34DOPE  H11B 4267   1.438   5.021  13.243 -0.4521  0.0649  0.5710
   34DOPE     P 4268   1.273   4.985  13.464 -0.5260 -0.2218 -0.1913
   34DOPE   O13 4269   1.347   4.858  13.455  0.2254  0.0061  0.2891
   34DOPE   O14 4270   1.135   4.996  13.408 -0.2469  0.4085 -0.2597
   34DOPE   O11 4271   1.283   5.028  13.615  0.1657  0.4588 -0.2437
   34DOPE   O12 4272   1.358   5.110  13.407 -0.0295  0.4479  0.0246
   34DOPE    C1 4273   1.347   5.143  13.667 -0.5017  0.4292  0.3968
   34DOPE    HA 4274   1.292   5.191  13.751  1.0819  2.8835  0.1495
   34DOPE    HB 4275   1.352   5.231  13.598 -0.4980  1.2000  1.3573
   34DOPE    C2 4276   1.484   5.111  13.729  0.0007 -0.4193  0.2920
   34DOPE    HS 4277   1.542   5.075  13.642 -0.5925  0.6607 -0.5823
   34DOPE   O21 4278   1.468   5.022  13.841  0.0405  0.4040  0.1647
   34DOPE   C21 4279   1.523   4.905  13.830 -0.4320  0.2953 -0.0358
   34DOPE   O22 4280   1.605   4.874  13.744 -0.2193 -0.1543 -0.7600
   34DOPE   C22 4281   1.465   4.812  13.938  0.0534  0.0288  0.1919
   34DOPE   H2R 4282   1.541   4.732  13.953  1.6630  1.4000 -0.4229
   34DOPE   H2S 4283   1.382   4.753  13.893  0.5133  0.5335 -1.3923
   34DOPE    C3 4284   1.553   5.246  13.778  0.8638  0.0789 -0.3251
   34DOPE    HX 4285   1.505   5.269  13.875  0.5886  4.0881 -1.2590
   34DOPE    HY 4286   1.524   5.334  13.717  0.3740  0.8302  0.9724
   34DOPE   O31 4287   1.691   5.238  13.802 -0.6325 -0.2000  0.3043
   34DOPE   C31 4288   1.773   5.211  13.702  0.9913  0.3387 -0.0719
   34DOPE   O32 4289   1.738   5.190  13.587  0.1371  0.0217  0.6665
   34DOPE   C32 4290   1.915   5.212  13.747 -0.5687 -0.3668 -0.1805
   34DOPE   H2X 4291   1.960   5.276  13.668 -0.6512 -0.4995 -0.3355
   34DOPE   H2Y 4292   1.926   5.261  13.846 -2.6923  0.3468 -0.2398
   34DOPE   C23 4293   1.440   4.870  14.078  0.0033 -0.0566 -0.2170
   34DOPE   H3R 4294   1.388   4.793  14.139 -3.2329  0.2922 -2.2754
   34DOPE   H3S 4295   1.356   4.943  14.076 -0.3107 -0.3708  0.9499
   34DOPE   C24 4296   1.559   4.929  14.142  0.0545 -0.8021 -0.3382
   34DOPE   H4R 4297   1.577   5.026  14.090 -2.6072 -0.6660 -1.1582
   34DOPE   H4S 4298   1.637   4.851  14.125 -1.5646 -2.5076 -0.2615
   34DOPE   C25 4299   1.550   4.958  14.288  0.1939  0.5026 -0.2439
   34DOPE   H5R 4300   1.654   4.978  14.321 -0.3127  3.6653 -0.2385
   34DOPE   H5S 4301   1.523   4.872  14.353  0.4039 -0.0680 -0.9010
   34DOPE   C26 4302   1.480   5.095  14.311  0.0910  0.6028 -0.0651
   34DOPE   H6R 4303   1.374   5.064  14.300  0.6969 -1.3121 -1.0783
   34DOPE   H6S 4304   1.507   5.171  14.234  1.0485  1.7077  1.3021
   34DOPE   C27 4305   1.508   5.151  14.447 -0.2908 -0.9224 -0.0131
   34DOPE   H7R 4306   1.467   5.254  14.459  1.5855 -0.2338  0.9004
   34DOPE   H7S 4307   1.619   5.152  14.445 -0.2803 -1.1933  0.2859
   34DOPE   C28 4308   1.451   5.072  14.567 -0.0663  0.2629  0.1287
   34DOPE   H8R 4309   1.483   4.971  14.536  1.2981  0.7253 -0.0456
   34DOPE   H8S 4310   1.340   5.078  14.560 -0.1650 -0.2936  1.1229
   34DOPE   C29 4311   1.525   5.102  14.699  0.2763 -0.0569  0.7739
   34DOPE   H9R 4312   1.571   5.202  14.702 -0.0286  0.1502 -0.8033
   34DOPE  C210 4313   1.525   5.025  14.809 -0.6286  0.8142  0.3465
   34DOPE  H10R 4314   1.598   5.050  14.887 -0.1029  2.4134 -0.6119
   34DOPE  C211 4315   1.464   4.897  14.829 -0.4409  1.0981 -0.4372
   34DOPE  H11R 4316   1.547   4.826  14.847  0.1094  1.7541 -0.3772
   34DOPE  H11S 4317   1.411   4.860  14.738  0.8466  1.7923 -1.5060
   34DOPE  C212 4318   1.358   4.898  14.941  0.2299  0.5361  0.2056
   34DOPE  H12R 4319   1.311   4.800  14.963 -0.7862  1.0310  0.2851
   34DOPE  H12S 4320   1.270   4.952  14.902 -3.0612 -2.9807  2.1307
   34DOPE  C213 4321   1.402   4.946  15.076  0.5334  0.2497  0.0947
   34DOPE  H13R 4322   1.434   5.052  15.074  2.2477 -0.1903  1.8173
   34DOPE  H13S 4323   1.486   4.881  15.109  0.9245  0.7558  0.1132
   34DOPE  C214 4324   1.288   4.920  15.182  0.5414 -0.2383 -0.1840
   34DOPE  H14R 4325   1.282   4.809  15.182  1.4555 -0.3265  1.4033
   34DOPE  H14S 4326   1.205   4.979  15.137  0.5254 -0.0299  0.1134
   34DOPE  C215 4327   1.319   4.967  15.318 -0.1238 -0.1961 -0.3599
   34DOPE  H15R 4328   1.364   5.069  15.325 -0.1684 -0.1779 -0.3359
   34DOPE  H15S 4329   1.404   4.902  15.348 -1.0346 -0.2304  2.4096
   34DOPE  C216 4330   1.209   4.953  15.420 -0.4475 -0.3867  0.6326
   34DOPE  H16R 4331   1.170   4.849  15.421  0.0228 -0.5629  0.8757
   34DOPE  H16S 4332   1.123   5.015  15.387 -1.6970 -2.0910  0.5335
   34DOPE  C217 4333   1.245   4.999  15.560  0.5021  0.4684 -0.1864
   34DOPE  H17R 4334   1.276   5.105  15.572 -1.9633  0.8976  5.0700
   34DOPE  H17S 4335   1.334   4.944  15.594  0.5957  0.8452  0.1861
   34DOPE  C218 4336   1.132   4.980  15.660 -0.1842 -0.0072  0.1554
   34DOPE  H18R 4337   1.035   5.029  15.635 -0.1866  1.1957  2.3039
   34DOPE  H18S 4338   1.162   4.998  15.765  2.6694 -0.7988 -0.4417
   34DOPE  H18T 4339   1.102   4.874  15.648 -2.0243  0.6446 -1.7668
   34DOPE   C33 4340   1.978   5.071  13.738  0.5705 -0.1830  0.2644
   34DOPE   H3X 4341   2.085   5.063  13.709  0.7626 -0.2438  0.9700
   34DOPE   H3Y 4342   1.921   5.008  13.666 -1.0651  0.0830  1.2602
   34DOPE   C34 4343   1.961   4.984  13.865 -0.9334 -0.0682  0.2085
   34DOPE   H4X 4344   1.853   4.990  13.893 -0.3348  1.3946  2.4648
   34DOPE   H4Y 4345   1.977   4.876  13.844 -0.5753 -0.5986  2.8350
   34DOPE   C35 4346   2.042   5.035  13.982 -0.4140 -0.5204 -0.1613
   34DOPE   H5X 4347   2.009   5.141  13.989 -0.9919 -0.5704 -1.7809
   34DOPE   H5Y 4348   2.150   5.047  13.959 -0.4369  0.2508  0.0926
   34DOPE   C36 4349   2.017   4.950  14.109  0.2813  0.5993  0.3255
   34DOPE   H6X 4350   2.021   4.846  14.070 -0.0440 -0.1122  2.0671
   34DOPE   H6Y 4351   1.909   4.960  14.135 -0.1120 -2.9925  0.5588
   34DOPE   C37 4352   2.110   4.975  14.229 -0.3761 -0.4999 -0.0070
   34DOPE   H7X 4353   2.207   4.940  14.188 -0.3940 -0.4121 -0.1259
   34DOPE   H7Y 4354   2.127   5.083  14.253  0.9405 -0.7930  0.5022
   34DOPE   C38 4355   2.100   4.891  14.360  0.2527  0.5809  0.9424
   34DOPE   H8X 4356   2.188   4.912  14.425  0.5999  2.1629  0.0056
   34DOPE   H8Y 4357   2.081   4.784  14.337 -0.2500  1.2440 -2.2396
   34DOPE   C39 4358   1.971   4.926  14.434 -0.0631 -0.1671 -0.0554
   34DOPE   H9X 4359   1.884   4.890  14.377 -0.2923  0.2646  0.0181
   34DOPE  C310 4360   1.951   4.960  14.563 -0.0463 -0.5224 -0.0970
   34DOPE  H10X 4361   1.846   4.973  14.596 -0.0173  1.6146 -0.6992
   34DOPE  C311 4362   2.050   4.986  14.665 -0.4398 -0.2149 -0.0300
   34DOPE  H11X 4363   2.155   4.965  14.637 -1.1114 -1.3905 -1.8512
   34DOPE  H11Y 4364   2.043   5.094  14.688 -1.8777 -0.3024  0.0425
   34DOPE  C312 4365   2.030   4.905  14.796 -0.2521 -0.2630 -0.1183
   34DOPE  H12X 4366   2.132   4.916  14.838 -0.0258  1.0261 -0.9542
   34DOPE  H12Y 4367   2.016   4.795  14.782  0.2308 -0.3512  0.0713
   34DOPE  C313 4368   1.928   4.963  14.897  0.0501  0.2565  0.6090
   34DOPE  H13X 4369   1.954   5.066  14.929 -0.1016  0.2902  0.6265
   34DOPE  H13Y 4370   1.830   4.965  14.844  0.1014 -1.1161  0.4332
   34DOPE  C314 4371   1.924   4.868  15.024 -0.0962 -0.9871  0.0890
   34DOPE  H14X 4372   1.907   4.772  14.972  0.9769 -0.1593 -1.8990
   34DOPE  H14Y 4373   1.823   4.887  15.067  0.5043  1.2235  0.6337
   34DOPE  C315 4374   2.048   4.867  15.109 -0.6976  0.4583  0.4360
   34DOPE  H15X 4375   2.071   4.966  15.153  0.2962  0.5199 -0.1785
   34DOPE  H15Y 4376   2.136   4.841  15.046 -1.5790  0.1495 -0.7001
   34DOPE  C316 4377   2.036   4.775  15.236  0.4658 -0.0882  0.2454
   34DOPE  H16X 4378   1.977   4.827  15.315  1.1302  0.9624  0.0690
   34DOPE  H16Y 4379   2.137   4.779  15.283  0.7840  0.9556 -0.5041
   34DOPE  C317 4380   1.996   4.630  15.208  0.2220 -1.4180  0.4288
   34DOPE  H17X 4381   1.995   4.573  15.303 -0.2937 -3.0900 -0.5332
   34DOPE  H17Y 4382   1.892   4.632  15.170  0.8941 -2.8167 -1.6869
   34DOPE  C318 4383   2.073   4.547  15.106  0.3100 -0.3133  0.2419
   34DOPE  H18X 4384   2.169   4.518  15.155  0.2724  2.0177  1.8580
   34DOPE  H18Y 4385   2.030   4.449  15.076  1.1784 -0.0556 -2.0422
   34DOPE  H18Z 4386   2.094   4.594  15.007  0.8103 -3.1941 -1.1252
   35DOPE     N 4387   4.147   4.142  13.433 -0.1636  0.4206 -0.1728
   35DOPE   HN1 4388   4.212   4.082  13.488  2.1947  1.1934 -1.8891
   35DOPE   HN2 4389   4.080   4.070  13.400 -0.4494 -1.9166  4.6900
   35DOPE   HN3 4390   4.208   4.192  13.364  0.9572  0.0697  0.5307
   35DOPE   C12 4391   4.081   4.235  13.527 -0.0391  0.6259 -0.0717
   35DOPE  H12A 4392   4.014   4.181  13.597  1.4707 -1.1888  0.0478
   35DOPE  H12B 4393   4.018   4.306  13.469  0.5901  2.2602  1.1461
   35DOPE   C11 4394   4.186   4.315  13.608  0.1497 -0.1528 -0.2562
   35DOPE  H11A 4395   4.141   4.373  13.691 -0.2357 -1.2309  0.3144
   35DOPE  H11B 4396   4.227   4.391  13.538  0.7321 -1.5992 -1.5649
   35DOPE     P 4397   4.424   4.278  13.712 -0.0832  0.0374 -0.2463
   35DOPE   O13 4398   4.439   4.423  13.689 -0.1144  0.0982 -0.8743
   35DOPE   O14 4399   4.523   4.183  13.652  0.3895  0.3669 -0.3223
   35DOPE   O11 4400   4.422   4.259  13.870 -0.1337  0.7088  0.1635
   35DOPE   O12 4401   4.283   4.232  13.671 -0.0113  0.5324  0.0860
   35DOPE    C1 4402   4.502   4.322  13.967  0.0666 -0.0579  0.8789
   35DOPE    HA 4403   4.452   4.308  14.065 -2.4651 -0.4208 -0.3649
   35DOPE    HB 4404   4.508   4.431  13.948  2.7231  0.7157  5.0010
   35DOPE    C2 4405   4.648   4.264  13.966 -0.3593  0.9956  0.2064
   35DOPE    HS 4406   4.706   4.291  13.874  1.1035  0.3740  0.9146
   35DOPE   O21 4407   4.640   4.119  13.980  0.6564  0.1019 -0.1128
   35DOPE   C21 4408   4.760   4.065  13.970 -0.5220  0.0997  0.1165
   35DOPE   O22 4409   4.865   4.115  13.932 -0.2478 -0.3986  0.9670
   35DOPE   C22 4410   4.745   3.917  14.010  0.1865 -0.0010  0.0847
   35DOPE   H2R 4411   4.850   3.881  14.000  0.7703  1.4980  0.4091
   35DOPE   H2S 4412   4.670   3.865  13.948  2.0509 -2.5321 -0.2047
   35DOPE    C3 4413   4.729   4.335  14.080  0.9630  0.5593 -0.0931
   35DOPE    HX 4414   4.729   4.441  14.047  0.8996  0.7097  0.3841
   35DOPE    HY 4415   4.837   4.312  14.091  0.4862 -0.6947  3.2555
   35DOPE   O31 4416   4.673   4.312  14.208 -0.8791 -0.2112  0.0912
   35DOPE   C31 4417   4.605   4.422  14.266  0.4530 -0.2804  0.4478
   35DOPE   O32 4418   4.596   4.527  14.212 -0.0951 -0.3114  0.2755
   35DOPE   C32 4419   4.523   4.375  14.389  0.2757 -0.0677 -0.0672
   35DOPE   H2X 4420   4.443   4.309  14.350 -0.2285  1.5982 -2.0375
   35DOPE   H2Y 4421   4.597   4.337  14.463 -0.8644  2.1947  2.4365
   35DOPE   C23 4422   4.701   3.914  14.157 -0.3365  0.2012  0.1776
   35DOPE   H3R 4423   4.621   3.987  14.181 -1.7723 -0.3027 -2.5685
   35DOPE   H3S 4424   4.792   3.940  14.215  0.6230 -2.5517  0.0524
   35DOPE   C24 4425   4.651   3.779  14.201 -1.0113 -0.1233  0.3439
   35DOPE   H4R 4426   4.659   3.765  14.311 -0.7338  0.3325  0.3876
   35DOPE   H4S 4427   4.707   3.704  14.143 -0.3824  2.2841 -2.4193
   35DOPE   C25 4428   4.502   3.755  14.164 -0.5259 -0.4393  0.5912
   35DOPE   H5R 4429   4.492   3.769  14.054 -0.0617 -1.9357  0.3309
   35DOPE   H5S 4430   4.428   3.826  14.207  2.3153  2.1941  1.4329
   35DOPE   C26 4431   4.446   3.611  14.191 -0.8731 -0.6018 -1.1780
   35DOPE   H6R 4432   4.519   3.547  14.136  0.0588 -0.7331  0.1802
   35DOPE   H6S 4433   4.348   3.588  14.144 -0.8154  1.2244 -2.2728
   35DOPE   C27 4434   4.442   3.565  14.342 -0.0259  0.1979 -0.4358
   35DOPE   H7R 4435   4.543   3.558  14.386 -0.3643 -1.6074  0.1360
   35DOPE   H7S 4436   4.407   3.460  14.342  1.6086 -0.3760 -0.1205
   35DOPE   C28 4437   4.338   3.634  14.434  0.4315 -0.5807  0.0191
   35DOPE   H8R 4438   4.322   3.591  14.535  0.1741 -2.4119 -0.7579
   35DOPE   H8S 4439   4.237   3.624  14.390  0.8354  0.9268 -1.3332
   35DOPE   C29 4440   4.372   3.782  14.454 -0.5667 -0.1887 -0.2345
   35DOPE   H9R 4441   4.332   3.853  14.380 -0.8239 -1.0233 -0.9146
   35DOPE  C210 4442   4.436   3.833  14.560  0.1389 -0.2727  0.1708
   35DOPE  H10R 4443   4.448   3.942  14.562 -0.9422 -0.1320 -0.4137
   35DOPE  C211 4444   4.517   3.761  14.666 -0.2965 -0.4103  1.0235
   35DOPE  H11R 4445   4.614   3.814  14.677 -0.7803  1.3140 -1.9771
   35DOPE  H11S 4446   4.553   3.661  14.634 -0.4940  0.0025 -0.5639
   35DOPE  C212 4447   4.436   3.730  14.792 -0.7885  0.3556 -0.1346
   35DOPE  H12R 4448   4.508   3.675  14.856  0.7411 -0.1221 -2.1472
   35DOPE  H12S 4449   4.343   3.673  14.770 -1.7036  2.0784 -0.9365
   35DOPE  C213 4450   4.380   3.848  14.879 -0.0514  0.4148 -0.3339
   35DOPE  H13R 4451   4.284   3.819  14.926 -0.4925  0.2529 -1.2995
   35DOPE  H13S 4452   4.353   3.933  14.812 -1.7079 -1.0473 -1.6317
   35DOPE  C214 4453   4.477   3.885  14.985 -0.5216  0.8942  0.2064
   35DOPE  H14R 4454   4.579   3.908  14.947  0.1917 -2.2336 -0.0949
   35DOPE  H14S 4455   4.488   3.800  15.056  2.2221  0.4324 -0.6672
   35DOPE  C215 4456   4.433   4.009  15.068 -0.1831 -0.0231 -0.0316
   35DOPE  H15R 4457   4.330   3.991  15.106 -0.6544  1.2746 -0.6713
   35DOPE  H15S 4458   4.432   4.098  15.002 -2.2016  0.3940  0.4964
   35DOPE  C216 4459   4.530   4.044  15.183  0.2335  0.7094 -0.7353
   35DOPE  H16R 4460   4.510   4.148  15.217  0.0247  0.6337 -0.6231
   35DOPE  H16S 4461   4.631   4.047  15.137  0.1639  0.4376 -0.9083
   35DOPE  C217 4462   4.530   3.941  15.301  0.0099 -0.4651  0.2456
   35DOPE  H17R 4463   4.534   3.837  15.261  0.7380 -0.7722  1.0937
   35DOPE  H17S 4464   4.439   3.951  15.364  0.1252  1.4687  0.1667
   35DOPE  C218 4465   4.647   3.946  15.404  0.1767  0.0631  0.0637
   35DOPE  H18R 4466   4.737   3.915  15.348 -0.8090  1.5039 -2.4871
   35DOPE  H18S 4467   4.620   3.873  15.483 -0.5599 -0.0935 -0.3206
   35DOPE  H18T 4468   4.658   4.047  15.450  1.7899  0.2535 -0.6924
   35DOPE   C33 4469   4.458   4.490  14.472  0.3242  0.0234 -0.2644
   35DOPE   H3X 4470   4.390   4.542  14.402  0.8405 -0.1923 -0.9314
   35DOPE   H3Y 4471   4.538   4.554  14.515 -0.5270  0.8940  0.0667
   35DOPE   C34 4472   4.363   4.434  14.579  0.2467 -0.2464 -0.2016
   35DOPE   H4X 4473   4.351   4.519  14.650 -1.4979 -1.4335  1.0150
   35DOPE   H4Y 4474   4.265   4.409  14.536 -0.3769  1.8340 -0.1290
   35DOPE   C35 4475   4.414   4.324  14.667 -0.3947 -0.7891  0.1148
   35DOPE   H5X 4476   4.514   4.363  14.696 -0.6327  1.4325 -1.7339
   35DOPE   H5Y 4477   4.429   4.229  14.613  0.8765  0.1383 -1.2229
   35DOPE   C36 4478   4.317   4.307  14.790 -0.6293  0.9860  0.1662
   35DOPE   H6X 4479   4.340   4.205  14.828  1.0425  1.4694  0.5339
   35DOPE   H6Y 4480   4.211   4.306  14.759 -0.5725  0.1630 -0.0188
   35DOPE   C37 4481   4.349   4.400  14.903 -0.7566 -0.0041 -0.1889
   35DOPE   H7X 4482   4.454   4.378  14.930 -0.3582 -1.4329 -2.6276
   35DOPE   H7Y 4483   4.354   4.507  14.873  3.0158  0.0473  0.1667
   35DOPE   C38 4484   4.254   4.378  15.020  0.3035  0.8955  0.1306
   35DOPE   H8X 4485   4.257   4.277  15.066 -0.1877 -0.7109 -3.1086
   35DOPE   H8Y 4486   4.154   4.388  14.972  1.1060  1.1867 -1.5486
   35DOPE   C39 4487   4.259   4.498  15.123  0.3729 -0.4081 -0.4913
   35DOPE   H9X 4488   4.213   4.591  15.087  1.9489  1.4327  1.9765
   35DOPE  C310 4489   4.317   4.504  15.249 -0.2331 -0.5782  0.6437
   35DOPE  H10X 4490   4.317   4.593  15.313  1.5246 -0.3982  0.4454
   35DOPE  C311 4491   4.393   4.389  15.302  0.8419  0.0642 -0.0648
   35DOPE  H11X 4492   4.349   4.289  15.285  0.7007 -0.6609  3.5836
   35DOPE  H11Y 4493   4.494   4.381  15.256  2.5087  2.4055  2.7871
   35DOPE  C312 4494   4.417   4.390  15.457  0.2348 -0.7323  0.3057
   35DOPE  H12X 4495   4.315   4.368  15.496 -0.3251  0.9903 -0.1163
   35DOPE  H12Y 4496   4.445   4.490  15.495  1.0906 -0.7267 -0.3015
   35DOPE  C313 4497   4.523   4.293  15.508 -0.4212  0.0831  0.0611
   35DOPE  H13X 4498   4.512   4.195  15.457 -2.3554  0.1148  0.3373
   35DOPE  H13Y 4499   4.623   4.334  15.483 -0.2693 -0.6009 -0.4708
   35DOPE  C314 4500   4.515   4.256  15.666  1.0809  0.0376  0.7695
   35DOPE  H14X 4501   4.528   4.355  15.715  1.5435  1.4493 -1.9861
   35DOPE  H14Y 4502   4.600   4.187  15.682  1.2643 -1.1615 -3.8660
   35DOPE  C315 4503   4.383   4.186  15.691 -0.1622 -0.4516 -0.4173
   35DOPE  H15X 4504   4.378   4.104  15.617  1.6919 -1.5586  0.6064
   35DOPE  H15Y 4505   4.305   4.263  15.674  1.7323  1.8876  0.9220
   35DOPE  C316 4506   4.359   4.134  15.833 -0.0180 -0.5274  0.0595
   35DOPE  H16X 4507   4.261   4.082  15.841 -0.5262 -0.0283 -2.1001
   35DOPE  H16Y 4508   4.359   4.220  15.902 -2.1731 -1.7326  1.6986
   35DOPE  C317 4509   4.455   4.028  15.877 -0.0974 -0.0493  0.3238
   35DOPE  H17X 4510   4.437   3.940  15.813 -1.2028 -0.0302  0.5840
   35DOPE  H17Y 4511   4.561   4.062  15.867 -0.4231  0.6641 -0.9413
   35DOPE  C318 4512   4.440   3.990  16.023 -0.9373 -0.3452  0.1922
   35DOPE  H18X 4513   4.333   3.963  16.032 -1.4895  1.3714 -0.7203
   35DOPE  H18Y 4514   4.505   3.909  16.062  0.1118  0.4608  0.1739
   35DOPE  H18Z 4515   4.457   4.078  16.089 -2.4964  0.3693 -0.3160
   36DOPE     N 4516   5.665   6.086  12.906  0.4677 -0.1631  0.1358
   36DOPE   HN1 4517   5.704   6.080  12.810 -2.0293  0.4937 -1.0219
   36DOPE   HN2 4518   5.661   5.991  12.948 -0.1986  0.5995  1.8945
   36DOPE   HN3 4519   5.571   6.131  12.900  1.1919  1.3865 -0.1029
   36DOPE   C12 4520   5.748   6.180  12.988 -0.0620  0.6892  0.1327
   36DOPE  H12A 4521   5.744   6.279  12.937  0.6159  0.1996 -0.9112
   36DOPE  H12B 4522   5.854   6.150  12.976  0.2708  1.9503 -0.2642
   36DOPE   C11 4523   5.720   6.172  13.140 -0.5507  0.0401  0.3192
   36DOPE  H11A 4524   5.630   6.233  13.165 -0.4018  0.3602  0.0805
   36DOPE  H11B 4525   5.794   6.234  13.195  0.8682  0.1795 -1.6486
   36DOPE     P 4526   5.777   5.985  13.302  0.1415 -0.5370  0.0549
   36DOPE   O13 4527   5.921   5.978  13.269  0.1217  0.2033  0.7316
   36DOPE   O14 4528   5.709   5.863  13.338 -0.2810 -0.3225  0.4718
   36DOPE   O11 4529   5.758   6.101  13.407 -0.3011 -0.1806  0.0863
   36DOPE   O12 4530   5.705   6.047  13.180 -0.0956 -0.2633 -0.0289
   36DOPE    C1 4531   5.637   6.133  13.475 -0.3463 -0.0852 -0.5367
   36DOPE    HA 4532   5.550   6.070  13.444 -0.2678  0.9169 -3.0734
   36DOPE    HB 4533   5.606   6.237  13.452  1.2778  0.8921  1.4357
   36DOPE    C2 4534   5.656   6.129  13.635 -0.0163 -0.3462  0.8981
   36DOPE    HS 4535   5.561   6.123  13.691 -0.2076  5.1660  1.6894
   36DOPE   O21 4536   5.726   6.255  13.659 -0.2790  0.3951  0.2194
   36DOPE   C21 4537   5.704   6.321  13.775  0.5152 -0.8548  0.2346
   36DOPE   O22 4538   5.636   6.281  13.868 -0.4167 -0.0329  0.0124
   36DOPE   C22 4539   5.781   6.453  13.759 -0.0493  0.7036 -0.1188
   36DOPE   H2R 4540   5.709   6.523  13.710 -0.4551  0.4532  0.1212
   36DOPE   H2S 4541   5.873   6.439  13.698 -2.1828  2.8843 -4.3618
   36DOPE    C3 4542   5.763   6.017  13.676 -0.6838  0.2047  0.9393
   36DOPE    HX 4543   5.857   6.052  13.627 -2.6576  1.4632 -2.2748
   36DOPE    HY 4544   5.724   5.929  13.621 -0.4046 -0.4037  1.6982
   36DOPE   O31 4545   5.763   5.983  13.816  0.0157 -0.5000  0.2363
   36DOPE   C31 4546   5.869   6.031  13.890  0.4346  0.0233  0.7389
   36DOPE   O32 4547   5.952   6.108  13.848 -0.8753 -0.5242 -0.4855
   36DOPE   C32 4548   5.874   5.959  14.022  0.4914  0.2267 -0.4912
   36DOPE   H2X 4549   5.898   5.852  14.006  0.5630  0.2794 -0.7400
   36DOPE   H2Y 4550   5.960   6.007  14.074 -0.8383  0.7230  1.3742
   36DOPE   C23 4551   5.808   6.510  13.900 -1.3968  0.2150  0.0038
   36DOPE   H3R 4552   5.720   6.517  13.968 -1.8652 -2.4235 -0.2001
   36DOPE   H3S 4553   5.852   6.611  13.890  1.8634 -1.1927 -1.3454
   36DOPE   C24 4554   5.904   6.419  13.975 -0.2437  0.3087 -0.5882
   36DOPE   H4R 4555   5.993   6.389  13.915  1.4544 -1.2808  2.4721
   36DOPE   H4S 4556   5.859   6.320  13.998 -0.0150 -0.0899 -1.7414
   36DOPE   C25 4557   5.954   6.498  14.101  1.0798  0.2848 -0.8310
   36DOPE   H5R 4558   5.949   6.609  14.096 -0.8835  0.2715 -0.1858
   36DOPE   H5S 4559   6.060   6.469  14.118  0.8207 -0.1651  0.1183
   36DOPE   C26 4560   5.865   6.478  14.228  0.0236  0.6032 -0.3144
   36DOPE   H6R 4561   5.858   6.367  14.232  0.2524  0.5272 -1.5180
   36DOPE   H6S 4562   5.760   6.513  14.216 -0.3755 -0.7365 -0.8958
   36DOPE   C27 4563   5.928   6.525  14.360 -0.7198 -0.5202 -0.6759
   36DOPE   H7R 4564   6.036   6.543  14.345 -0.9563  1.0446 -0.7696
   36DOPE   H7S 4565   5.908   6.449  14.439  2.0735 -1.5097 -0.8286
   36DOPE   C28 4566   5.866   6.661  14.406 -0.2994 -0.0299  0.3885
   36DOPE   H8R 4567   5.756   6.643  14.399 -0.3756 -0.2061  1.7306
   36DOPE   H8S 4568   5.885   6.734  14.325  0.9950 -1.2273 -0.4270
   36DOPE   C29 4569   5.904   6.727  14.533  0.1081  0.5921  0.2369
   36DOPE   H9R 4570   5.823   6.732  14.607  0.7892 -0.1706  1.0578
   36DOPE  C210 4571   6.025   6.750  14.587  0.5827  0.0878  0.6731
   36DOPE  H10R 4572   6.029   6.789  14.689 -1.4108 -0.3149  0.9414
   36DOPE  C211 4573   6.161   6.737  14.517 -0.2822 -0.0342 -0.6251
   36DOPE  H11R 4574   6.218   6.831  14.525  0.1563  0.0243 -3.3526
   36DOPE  H11S 4575   6.149   6.715  14.408 -2.1856 -2.6660  0.0123
   36DOPE  C212 4576   6.250   6.627  14.584  0.3274  0.2008  0.4075
   36DOPE  H12R 4577   6.352   6.632  14.540 -0.3802  1.1912 -1.2124
   36DOPE  H12S 4578   6.225   6.525  14.549  1.0561  0.7766 -1.9375
   36DOPE  C213 4579   6.259   6.628  14.737 -0.0708 -0.4648  0.0797
   36DOPE  H13R 4580   6.171   6.572  14.774  2.1021 -2.9481  1.8047
   36DOPE  H13S 4581   6.264   6.734  14.769  1.3934 -0.0624 -1.3068
   36DOPE  C214 4582   6.388   6.551  14.785  0.1408 -0.8507  0.2009
   36DOPE  H14R 4583   6.479   6.568  14.724 -1.1106  1.0392 -1.2499
   36DOPE  H14S 4584   6.372   6.445  14.754  0.5647 -1.1639  1.0080
   36DOPE  C215 4585   6.412   6.559  14.937  0.5843 -0.0891  0.0195
   36DOPE  H15R 4586   6.313   6.548  14.986 -0.7846  1.3654 -2.2126
   36DOPE  H15S 4587   6.447   6.663  14.954  1.6363 -0.4625  0.2094
   36DOPE  C216 4588   6.519   6.457  14.978  0.2877 -0.9040  0.2697
   36DOPE  H16R 4589   6.608   6.467  14.911  0.0782 -1.8452 -0.1698
   36DOPE  H16S 4590   6.480   6.357  14.949 -1.7389  0.3514 -1.7033
   36DOPE  C217 4591   6.565   6.475  15.119  0.0640 -0.6901 -0.6838
   36DOPE  H17R 4592   6.591   6.373  15.154 -1.7941 -1.5285 -1.6468
   36DOPE  H17S 4593   6.479   6.512  15.179  0.2969 -1.0793 -0.0907
   36DOPE  C218 4594   6.698   6.567  15.146  0.2324 -0.1694  1.1002
   36DOPE  H18R 4595   6.790   6.524  15.101  1.2010  1.5055  1.3882
   36DOPE  H18S 4596   6.710   6.569  15.256 -0.2458  1.1972  1.1412
   36DOPE  H18T 4597   6.675   6.670  15.111 -0.6292 -0.2810  1.3178
   36DOPE   C33 4598   5.749   5.978  14.113  0.4024 -0.6311 -0.1362
   36DOPE   H3X 4599   5.660   5.927  14.071  0.3080  0.2283 -0.9890
   36DOPE   H3Y 4600   5.716   6.083  14.122 -0.0275 -0.7381 -0.4268
   36DOPE   C34 4601   5.769   5.927  14.257 -0.6194 -0.4343 -0.3487
   36DOPE   H4X 4602   5.814   5.825  14.262  2.6627  0.9459  2.0243
   36DOPE   H4Y 4603   5.849   5.984  14.307 -1.7003 -0.5325  1.5782
   36DOPE   C35 4604   5.640   5.937  14.343  0.5795  0.6858  0.1316
   36DOPE   H5X 4605   5.581   5.845  14.324 -0.7228  1.4037  0.6295
   36DOPE   H5Y 4606   5.566   6.003  14.295 -2.1747 -1.5232  1.0760
   36DOPE   C36 4607   5.668   5.969  14.492 -0.5925  0.5400 -0.3833
   36DOPE   H6X 4608   5.728   6.062  14.482  0.2272  0.1578  0.7976
   36DOPE   H6Y 4609   5.718   5.884  14.542  0.5010  0.0731 -2.1581
   36DOPE   C37 4610   5.554   6.015  14.587 -0.2164  0.8879  0.1740
   36DOPE   H7X 4611   5.482   5.931  14.589 -1.2209  1.7333  0.4715
   36DOPE   H7Y 4612   5.587   6.026  14.693  1.2747  0.7553 -0.2541
   36DOPE   C38 4613   5.491   6.148  14.552 -0.5523  0.6855  0.0605
   36DOPE   H8X 4614   5.398   6.155  14.612 -1.0598  0.9452 -0.7319
   36DOPE   H8Y 4615   5.458   6.136  14.446  0.2112  0.9492 -0.2130
   36DOPE   C39 4616   5.577   6.264  14.548 -0.1913 -0.7006 -0.2947
   36DOPE   H9X 4617   5.635   6.283  14.457  1.2645 -1.0561  0.5381
   36DOPE  C310 4618   5.588   6.353  14.649 -0.3139  1.0048  0.0614
   36DOPE  H10X 4619   5.672   6.424  14.647 -0.2139  0.9156  0.7898
   36DOPE  C311 4620   5.525   6.351  14.782  0.2641  0.8944 -0.6566
   36DOPE  H11X 4621   5.498   6.458  14.795 -2.5729  0.0988  1.1536
   36DOPE  H11Y 4622   5.432   6.291  14.772  2.6935 -3.6782  1.1994
   36DOPE  C312 4623   5.608   6.294  14.897  0.0503 -0.0277 -0.8769
   36DOPE  H12X 4624   5.714   6.328  14.907  0.1180 -0.2906 -0.6909
   36DOPE  H12Y 4625   5.609   6.183  14.897  0.3162 -0.0356 -1.8465
   36DOPE  C313 4626   5.538   6.346  15.026  1.1157 -0.1241  0.6841
   36DOPE  H13X 4627   5.532   6.457  15.022  0.5923 -0.1305  1.1827
   36DOPE  H13Y 4628   5.437   6.299  15.029  1.3350 -0.6598  0.0930
   36DOPE  C314 4629   5.616   6.314  15.149  0.3679  0.0648 -0.2024
   36DOPE  H14X 4630   5.721   6.348  15.147  1.0616 -1.5537  2.8093
   36DOPE  H14Y 4631   5.616   6.203  15.150 -0.6554  0.0398 -1.1051
   36DOPE  C315 4632   5.555   6.367  15.275 -0.1362 -0.3594 -0.5269
   36DOPE  H15X 4633   5.449   6.380  15.244  0.7107 -1.5957 -4.5477
   36DOPE  H15Y 4634   5.592   6.465  15.313 -1.4337 -0.1285  0.2319
   36DOPE  C316 4635   5.556   6.272  15.391  0.5233 -0.1903 -0.1902
   36DOPE  H16X 4636   5.508   6.175  15.364 -0.3304  0.3559 -0.6970
   36DOPE  H16Y 4637   5.486   6.315  15.467  2.7124  1.5972  0.9534
   36DOPE  C317 4638   5.693   6.273  15.467 -0.3604  0.8218 -0.2000
   36DOPE  H17X 4639   5.760   6.197  15.421 -0.2658 -0.1619  1.4722
   36DOPE  H17Y 4640   5.750   6.368  15.473  0.2410  0.3954  1.7984
   36DOPE  C318 4641   5.675   6.241  15.621  0.4042  0.1001  0.8465
   36DOPE  H18X 4642   5.600   6.159  15.630  0.1250  0.1704 -0.6201
   36DOPE  H18Y 4643   5.771   6.204  15.662  0.7232  0.4140  0.3925
   36DOPE  H18Z 4644   5.631   6.331  15.670 -0.7492 -0.6492  1.2422
   37DOPE     N 4645   2.053   3.524  13.288 -0.3320  0.1389 -0.3270
   37DOPE   HN1 4646   2.124   3.450  13.268  0.8208  0.7822  1.1447
   37DOPE   HN2 4647   2.023   3.569  13.200  0.0674 -1.8232 -1.5159
   37DOPE   HN3 4648   2.108   3.589  13.348  3.1666 -1.3225 -1.7200
   37DOPE   C12 4649   1.930   3.473  13.356  0.7320  0.4068  0.1626
   37DOPE  H12A 4650   1.875   3.408  13.284  3.4010 -3.4631  1.2986
   37DOPE  H12B 4651   1.872   3.561  13.390  1.3382  0.6347  0.6205
   37DOPE   C11 4652   1.964   3.389  13.479 -0.7417  0.1407 -0.4707
   37DOPE  H11A 4653   1.873   3.349  13.529  0.2277  0.7310  1.9560
   37DOPE  H11B 4654   2.021   3.447  13.556  0.9195 -1.8167 -0.1514
   37DOPE     P 4655   2.024   3.143  13.395 -0.0313  0.0119  0.1065
   37DOPE   O13 4656   2.134   3.100  13.301  0.5294 -0.4282 -0.0715
   37DOPE   O14 4657   1.888   3.152  13.340 -0.0425  0.8630  0.2170
   37DOPE   O11 4658   2.029   3.054  13.527 -0.5913 -0.0084  0.1840
   37DOPE   O12 4659   2.055   3.280  13.449 -0.6042  0.3950 -0.2357
   37DOPE    C1 4660   2.131   3.073  13.624 -0.1548 -0.3723  0.6245
   37DOPE    HA 4661   2.225   3.120  13.589 -1.1177  0.5283 -0.8775
   37DOPE    HB 4662   2.163   2.976  13.670  1.3444 -1.8324 -3.0999
   37DOPE    C2 4663   2.086   3.152  13.744 -0.1356  0.2459 -0.3015
   37DOPE    HS 4664   2.084   3.258  13.710 -1.8722  1.2384  2.5727
   37DOPE   O21 4665   2.169   3.122  13.846  0.1197  0.1642  0.9221
   37DOPE   C21 4666   2.226   3.223  13.907 -0.3657 -0.0206  0.6455
   37DOPE   O22 4667   2.216   3.341  13.874 -0.4733 -0.2062 -0.0603
   37DOPE   C22 4668   2.329   3.168  14.013  0.4451 -0.4251  0.9433
   37DOPE   H2R 4669   2.422   3.221  13.985  0.3554 -1.2186 -1.0289
   37DOPE   H2S 4670   2.346   3.061  13.988  1.3611  0.4589 -2.7970
   37DOPE    C3 4671   1.949   3.116  13.791 -0.4405 -0.1792 -0.3112
   37DOPE    HX 4672   1.951   3.009  13.820 -2.1440  0.0245  0.6952
   37DOPE    HY 4673   1.871   3.130  13.713 -0.3950  2.4348  0.0204
   37DOPE   O31 4674   1.904   3.196  13.905 -0.2549 -0.2733 -0.3757
   37DOPE   C31 4675   1.880   3.318  13.881 -0.1572  0.0490 -0.0034
   37DOPE   O32 4676   1.853   3.372  13.773 -0.2043  0.2560 -0.3647
   37DOPE   C32 4677   1.900   3.394  14.014  0.2020  0.4567 -0.1923
   37DOPE   H2X 4678   1.964   3.338  14.086 -1.4270 -0.5823  0.5150
   37DOPE   H2Y 4679   1.950   3.487  13.980 -0.7088  0.7520 -0.7381
   37DOPE   C23 4680   2.280   3.195  14.156 -0.8312 -0.4291 -0.2339
   37DOPE   H3R 4681   2.235   3.294  14.181 -1.3179 -0.9370  0.9570
   37DOPE   H3S 4682   2.374   3.189  14.215 -1.8020  3.7028  2.1752
   37DOPE   C24 4683   2.184   3.095  14.210 -0.3655 -0.0435  0.0170
   37DOPE   H4R 4684   2.119   3.049  14.133 -2.0004  1.2986  0.5432
   37DOPE   H4S 4685   2.125   3.147  14.288 -3.0428  0.0275 -1.9277
   37DOPE   C25 4686   2.250   2.969  14.285  0.1280 -0.5739  0.6457
   37DOPE   H5R 4687   2.296   2.902  14.209 -0.6981  0.0632 -0.4383
   37DOPE   H5S 4688   2.168   2.913  14.333 -1.1193  0.1226 -0.6019
   37DOPE   C26 4689   2.361   3.008  14.386  0.5415 -0.1277  0.4731
   37DOPE   H6R 4690   2.321   3.089  14.451 -2.5510 -0.5571 -0.7322
   37DOPE   H6S 4691   2.452   3.051  14.338  1.4084  0.2592  2.3679
   37DOPE   C27 4692   2.414   2.885  14.466 -0.4510 -0.2144 -0.5094
   37DOPE   H7R 4693   2.448   2.819  14.383  0.3000  1.9524 -2.0320
   37DOPE   H7S 4694   2.334   2.846  14.532 -0.0119  0.6194  0.5482
   37DOPE   C28 4695   2.531   2.932  14.554 -0.3874  0.9153  0.3583
   37DOPE   H8R 4696   2.488   2.982  14.643 -0.6087 -2.8935  2.6074
   37DOPE   H8S 4697   2.617   2.980  14.502  0.6698 -0.2153  1.0017
   37DOPE   C29 4698   2.586   2.799  14.594 -0.6310 -0.3055 -0.6888
   37DOPE   H9R 4699   2.677   2.769  14.541 -0.1429  1.9276 -1.2195
   37DOPE  C210 4700   2.544   2.725  14.697 -0.3490 -0.2611  0.2286
   37DOPE  H10R 4701   2.615   2.644  14.718  1.2549 -0.6599 -5.2559
   37DOPE  C211 4702   2.423   2.738  14.791  0.7197  0.0409  0.0589
   37DOPE  H11R 4703   2.399   2.637  14.829 -0.4573  0.9081  1.7456
   37DOPE  H11S 4704   2.337   2.771  14.729  0.1135 -3.0343 -0.8942
   37DOPE  C212 4705   2.435   2.838  14.904 -0.1967 -0.6171 -0.6141
   37DOPE  H12R 4706   2.348   2.822  14.971  1.5078  0.2235  1.9922
   37DOPE  H12S 4707   2.442   2.936  14.851  2.0799 -0.4118 -0.0557
   37DOPE  C213 4708   2.566   2.832  14.989  0.5104  1.0847 -0.6703
   37DOPE  H13R 4709   2.648   2.875  14.928  1.6682 -2.3170 -1.7923
   37DOPE  H13S 4710   2.587   2.723  14.998  0.3462  0.9165 -2.0694
   37DOPE  C214 4711   2.552   2.898  15.122 -0.1095 -0.7398 -0.4296
   37DOPE  H14R 4712   2.464   2.873  15.185  1.0238 -0.4922  1.3331
   37DOPE  H14S 4713   2.532   3.006  15.110 -1.8612 -0.8751  0.8032
   37DOPE  C215 4714   2.674   2.876  15.207 -0.1631 -0.0316 -0.3465
   37DOPE  H15R 4715   2.768   2.910  15.158  1.9276 -1.8551  2.0660
   37DOPE  H15S 4716   2.685   2.765  15.209 -2.3188 -0.3061 -1.2917
   37DOPE  C216 4717   2.678   2.948  15.344  0.1722  0.2264 -1.1331
   37DOPE  H16R 4718   2.655   3.057  15.342 -1.4210 -0.0931 -1.0321
   37DOPE  H16S 4719   2.781   2.925  15.379 -0.1043 -0.4549 -0.7446
   37DOPE  C217 4720   2.596   2.880  15.459  0.2003  1.1933 -0.7746
   37DOPE  H17R 4721   2.612   2.770  15.451 -2.5882  0.6344  0.0372
   37DOPE  H17S 4722   2.490   2.902  15.433 -0.3571  0.7345  1.0118
   37DOPE  C218 4723   2.620   2.934  15.594 -0.3783  0.0695  0.5255
   37DOPE  H18R 4724   2.558   2.882  15.670  0.5304 -1.2086  0.4264
   37DOPE  H18S 4725   2.609   3.044  15.596  0.4450  0.1450  1.4787
   37DOPE  H18T 4726   2.720   2.900  15.627 -0.0550 -0.9097 -1.3209
   37DOPE   C33 4727   1.766   3.432  14.087  0.1846 -0.1875  0.0356
   37DOPE   H3X 4728   1.775   3.451  14.196 -1.2339  1.3953 -0.0785
   37DOPE   H3Y 4729   1.690   3.352  14.075  1.0583 -0.8494 -1.3353
   37DOPE   C34 4730   1.709   3.571  14.053  0.1933 -0.4268  0.3576
   37DOPE   H4X 4731   1.787   3.650  14.045 -1.7929  1.5111 -1.3782
   37DOPE   H4Y 4732   1.670   3.568  13.949 -0.7975  1.0310  0.6483
   37DOPE   C35 4733   1.593   3.613  14.145  0.1622 -0.0682  0.1822
   37DOPE   H5X 4734   1.567   3.719  14.126  1.3401  0.0767 -0.8182
   37DOPE   H5Y 4735   1.627   3.592  14.249 -1.5794 -0.7202  0.6499
   37DOPE   C36 4736   1.467   3.526  14.134 -0.0849 -0.2604  0.3013
   37DOPE   H6X 4737   1.488   3.431  14.188  1.0692 -0.6616 -0.7921
   37DOPE   H6Y 4738   1.449   3.509  14.026  0.2852  0.2016  0.1595
   37DOPE   C37 4739   1.353   3.602  14.209  0.0378 -0.4524 -0.1463
   37DOPE   H7X 4740   1.338   3.700  14.159 -1.4211 -0.4882  0.1816
   37DOPE   H7Y 4741   1.258   3.545  14.199 -0.7351  0.5744  0.9907
   37DOPE   C38 4742   1.367   3.627  14.363 -0.0737 -0.6614  0.4643
   37DOPE   H8X 4743   1.302   3.712  14.395  1.3242  0.7723 -0.3597
   37DOPE   H8Y 4744   1.474   3.656  14.373 -0.1734 -0.8407  2.4135
   37DOPE   C39 4745   1.361   3.507  14.445  0.3896 -0.3795 -0.4798
   37DOPE   H9X 4746   1.337   3.415  14.390 -0.5240 -0.5903  0.2406
   37DOPE  C310 4747   1.401   3.506  14.575 -0.0840 -0.7026  0.6432
   37DOPE  H10X 4748   1.428   3.412  14.625  0.5593 -1.6416 -1.3432
   37DOPE  C311 4749   1.439   3.628  14.654 -0.1659 -0.8947  0.3103
   37DOPE  H11X 4750   1.474   3.710  14.589 -0.6192 -0.8695  0.0959
   37DOPE  H11Y 4751   1.355   3.668  14.715 -0.8795  0.6736 -1.5870
   37DOPE  C312 4752   1.546   3.605  14.760  0.7042 -0.0917 -0.1077
   37DOPE  H12X 4753   1.562   3.694  14.824 -0.6261  0.3895 -0.4009
   37DOPE  H12Y 4754   1.645   3.572  14.723  0.7701  0.5305 -0.5022
   37DOPE  C313 4755   1.495   3.501  14.869 -0.7958 -0.6078 -0.5492
   37DOPE  H13X 4756   1.392   3.529  14.899 -1.3736 -2.2518 -0.9149
   37DOPE  H13Y 4757   1.483   3.398  14.830  1.1096 -1.2630  0.4254
   37DOPE  C314 4758   1.585   3.505  14.994  0.3026 -0.0590 -0.0649
   37DOPE  H14X 4759   1.522   3.459  15.073 -0.3825  1.9047  0.5986
   37DOPE  H14Y 4760   1.597   3.609  15.033  0.8363  0.4743 -1.5836
   37DOPE  C315 4761   1.722   3.438  14.982 -0.0872 -0.4568 -0.1912
   37DOPE  H15X 4762   1.767   3.488  14.894 -2.2694  1.9192 -0.0859
   37DOPE  H15Y 4763   1.719   3.329  14.963  1.5042 -0.2099 -2.3107
   37DOPE  C316 4764   1.805   3.459  15.110 -0.0095 -0.1204 -0.0720
   37DOPE  H16X 4765   1.831   3.565  15.135  0.6001 -0.2259 -0.2311
   37DOPE  H16Y 4766   1.903   3.409  15.093  1.8939  2.0511  3.2830
   37DOPE  C317 4767   1.743   3.397  15.236  0.2805 -0.1435  1.0772
   37DOPE  H17X 4768   1.640   3.438  15.248 -0.4901 -2.0561  1.2715
   37DOPE  H17Y 4769   1.732   3.291  15.205 -0.0860  0.2930 -0.3507
   37DOPE  C318 4770   1.827   3.405  15.365 -0.7346  0.1364  0.3918
   37DOPE  H18X 4771   1.818   3.507  15.410 -2.6907 -0.2578  0.9919
   37DOPE  H18Y 4772   1.814   3.316  15.430  0.1244 -1.8179 -1.9550
   37DOPE  H18Z 4773   1.933   3.392  15.335 -0.6111 -1.0960  1.3211
   38DOPE     N 4774   4.556   5.742  13.505  0.1881 -0.2884  0.1550
   38DOPE   HN1 4775   4.548   5.693  13.597 -3.6084  1.3314  0.9005
   38DOPE   HN2 4776   4.560   5.673  13.427 -0.5295 -0.3652  0.1773
   38DOPE   HN3 4777   4.646   5.792  13.504  1.1116 -1.8779 -0.0907
   38DOPE   C12 4778   4.448   5.841  13.491  0.2380  0.0555  0.7057
   38DOPE  H12A 4779   4.352   5.785  13.493  0.5780 -0.8309 -2.4415
   38DOPE  H12B 4780   4.458   5.888  13.391 -3.4057 -1.4422 -0.5516
   38DOPE   C11 4781   4.467   5.947  13.599 -0.0137  0.0973 -0.2829
   38DOPE  H11A 4782   4.463   5.907  13.703  0.2751  3.0249  0.9487
   38DOPE  H11B 4783   4.379   6.015  13.601  0.8011  1.2730 -2.0442
   38DOPE     P 4784   4.719   6.018  13.659  0.2713  0.0169  0.1369
   38DOPE   O13 4785   4.796   6.141  13.627  0.2936 -0.4628  0.6652
   38DOPE   O14 4786   4.773   5.888  13.621 -0.1288  0.0722 -0.1157
   38DOPE   O11 4787   4.682   6.015  13.810  0.1348 -0.5192 -0.2682
   38DOPE   O12 4788   4.578   6.028  13.586 -0.0788  0.3039 -0.7033
   38DOPE    C1 4789   4.621   6.129  13.869 -0.7162  0.2374 -0.6575
   38DOPE    HA 4790   4.534   6.165  13.811 -0.4885  2.1295  0.0925
   38DOPE    HB 4791   4.692   6.209  13.898  0.1709 -0.9495  0.5905
   38DOPE    C2 4792   4.571   6.096  14.011  0.1689  0.1506 -0.2652
   38DOPE    HS 4793   4.515   6.185  14.048  1.9409  1.7094 -1.1279
   38DOPE   O21 4794   4.675   6.069  14.102 -0.3955 -0.3392 -1.3166
   38DOPE   C21 4795   4.735   6.171  14.153 -0.2109  0.0190 -0.5112
   38DOPE   O22 4796   4.708   6.290  14.133 -0.4047  0.6876 -0.2590
   38DOPE   C22 4797   4.842   6.130  14.256  0.1861  0.1876 -0.6334
   38DOPE   H2R 4798   4.899   6.044  14.216 -1.4265 -0.4296 -1.7279
   38DOPE   H2S 4799   4.789   6.084  14.342  0.3752  1.6038  0.2887
   38DOPE    C3 4800   4.473   5.972  14.002 -0.1649  0.2651 -0.5294
   38DOPE    HX 4801   4.521   5.891  13.942  0.7924  2.3961 -2.8207
   38DOPE    HY 4802   4.386   5.999  13.939 -1.2793 -2.0693 -0.0955
   38DOPE   O31 4803   4.435   5.915  14.128 -0.0534 -0.3962  0.4339
   38DOPE   C31 4804   4.327   5.980  14.179 -0.7632 -0.2142 -0.7379
   38DOPE   O32 4805   4.277   6.071  14.115 -0.0417  0.3486 -0.3261
   38DOPE   C32 4806   4.271   5.917  14.304  0.4790  0.9897  0.3540
   38DOPE   H2X 4807   4.214   6.006  14.339 -0.0774  1.8960 -2.6032
   38DOPE   H2Y 4808   4.196   5.840  14.277  0.4651  1.1371 -0.0262
   38DOPE   C23 4809   4.927   6.251  14.305  0.7572  0.9493 -0.2949
   38DOPE   H3R 4810   4.859   6.318  14.362 -0.1972  0.2707 -0.6114
   38DOPE   H3S 4811   4.955   6.317  14.220 -1.7303 -0.2102 -2.1374
   38DOPE   C24 4812   5.049   6.214  14.385 -0.3194  0.7982 -0.1054
   38DOPE   H4R 4813   5.024   6.137  14.461 -0.9700  1.9575  0.8837
   38DOPE   H4S 4814   5.073   6.303  14.447 -1.7181 -0.8979  3.1083
   38DOPE   C25 4815   5.172   6.162  14.305  0.6048  0.4934 -0.4215
   38DOPE   H5R 4816   5.140   6.097  14.220  1.3144 -1.8078  0.9742
   38DOPE   H5S 4817   5.241   6.095  14.361 -2.2389 -1.4387  0.9989
   38DOPE   C26 4818   5.261   6.282  14.256 -0.9983 -0.2749  0.2240
   38DOPE   H6R 4819   5.313   6.332  14.340  0.8135  0.3014 -1.1671
   38DOPE   H6S 4820   5.204   6.355  14.194  0.3045  0.1421 -0.5097
   38DOPE   C27 4821   5.394   6.249  14.172  0.6364  0.0080  0.0262
   38DOPE   H7R 4822   5.357   6.235  14.068  0.9496  1.8702 -0.3727
   38DOPE   H7S 4823   5.439   6.158  14.217  0.2645  0.2970  1.0055
   38DOPE   C28 4824   5.500   6.359  14.169 -0.1729  0.3152  0.3347
   38DOPE   H8R 4825   5.591   6.318  14.121 -1.2539 -1.6514 -0.1265
   38DOPE   H8S 4826   5.516   6.380  14.276 -1.4520 -0.1116  0.6274
   38DOPE   C29 4827   5.464   6.482  14.088  0.1659  0.6123  0.3243
   38DOPE   H9R 4828   5.419   6.456  13.991  1.0601  0.2017  0.0018
   38DOPE  C210 4829   5.446   6.610  14.132 -0.8790  0.4810  0.0567
   38DOPE  H10R 4830   5.419   6.683  14.054  0.4679  0.0194 -0.8801
   38DOPE  C211 4831   5.481   6.671  14.266 -0.5144 -0.1771  0.1312
   38DOPE  H11R 4832   5.542   6.763  14.256 -0.7473  0.0459  0.7167
   38DOPE  H11S 4833   5.549   6.599  14.317 -1.0792  0.0008  1.1707
   38DOPE  C212 4834   5.359   6.686  14.363  0.1256 -0.5817  0.2590
   38DOPE  H12R 4835   5.307   6.588  14.371  0.3695 -0.8398 -1.0431
   38DOPE  H12S 4836   5.293   6.764  14.320  0.0579 -0.9904 -0.3869
   38DOPE  C213 4837   5.390   6.729  14.503 -0.0696  0.4523 -0.1757
   38DOPE  H13R 4838   5.454   6.819  14.496  0.1419  0.2124 -1.5249
   38DOPE  H13S 4839   5.448   6.662  14.570  1.8793  0.2454 -1.9906
   38DOPE  C214 4840   5.256   6.749  14.576  0.2253  0.5528 -0.2681
   38DOPE  H14R 4841   5.220   6.646  14.599  0.6514  0.3182 -0.6267
   38DOPE  H14S 4842   5.193   6.809  14.508 -0.5952 -0.3638 -0.3429
   38DOPE  C215 4843   5.266   6.809  14.714  0.1730 -0.5153  0.2279
   38DOPE  H15R 4844   5.170   6.828  14.768 -0.1696 -1.1010 -0.1704
   38DOPE  H15S 4845   5.316   6.906  14.695 -0.6258 -0.5282 -2.1634
   38DOPE  C216 4846   5.351   6.732  14.812 -0.2909 -0.0101 -0.4051
   38DOPE  H16R 4847   5.360   6.624  14.789  0.2911 -0.1595  0.4526
   38DOPE  H16S 4848   5.300   6.726  14.911 -0.0738 -1.8479 -0.3698
   38DOPE  C217 4849   5.496   6.786  14.831  0.4013 -0.0278  0.0400
   38DOPE  H17R 4850   5.531   6.847  14.745  0.7817 -1.6699 -1.0019
   38DOPE  H17S 4851   5.566   6.701  14.846  0.8828  0.6702  2.1122
   38DOPE  C218 4852   5.512   6.865  14.964 -0.2313 -0.6834  0.2366
   38DOPE  H18R 4853   5.619   6.876  14.993 -0.7158  0.7451  1.6935
   38DOPE  H18S 4854   5.453   6.812  15.042  0.0554 -1.5481 -0.1175
   38DOPE  H18T 4855   5.479   6.969  14.947 -0.2165 -0.7669 -0.3018
   38DOPE   C33 4856   4.372   5.867  14.409  0.3974  0.6568 -0.0426
   38DOPE   H3X 4857   4.458   5.822  14.355 -0.6136 -3.9354  1.6884
   38DOPE   H3Y 4858   4.325   5.782  14.463  0.0320  0.7653 -0.1892
   38DOPE   C34 4859   4.407   5.971  14.515 -0.2805  0.3466 -0.5203
   38DOPE   H4X 4860   4.309   6.012  14.549  0.1668  1.5725 -0.6638
   38DOPE   H4Y 4861   4.454   5.923  14.603  0.0376 -1.7976 -1.7689
   38DOPE   C35 4862   4.505   6.077  14.471 -0.4783 -0.3140 -0.3483
   38DOPE   H5X 4863   4.462   6.143  14.392 -0.2941  0.5010  0.2136
   38DOPE   H5Y 4864   4.590   6.025  14.422 -1.5943 -2.5720 -0.0327
   38DOPE   C36 4865   4.561   6.173  14.582 -0.2759  0.2118 -0.1038
   38DOPE   H6X 4866   4.656   6.213  14.538  0.1487 -0.6355  0.0211
   38DOPE   H6Y 4867   4.585   6.113  14.672 -0.8159  0.6402  0.3308
   38DOPE   C37 4868   4.479   6.294  14.621 -0.1691 -0.3700  0.3518
   38DOPE   H7X 4869   4.447   6.348  14.529  2.1025  2.4222  1.0698
   38DOPE   H7Y 4870   4.380   6.261  14.660 -0.5631 -3.2086 -2.6395
   38DOPE   C38 4871   4.558   6.382  14.717 -0.2989 -0.6833 -0.4964
   38DOPE   H8X 4872   4.616   6.324  14.792  0.7207  2.0161  0.9517
   38DOPE   H8Y 4873   4.484   6.444  14.772  0.0554  0.8912 -1.7229
   38DOPE   C39 4874   4.647   6.478  14.654 -0.5356 -0.3640  0.0477
   38DOPE   H9X 4875   4.638   6.483  14.544 -0.6168  2.1137  0.1041
   38DOPE  C310 4876   4.755   6.540  14.707  0.0543 -0.1829  0.3833
   38DOPE  H10X 4877   4.825   6.593  14.641  0.1964  0.6193  1.1535
   38DOPE  C311 4878   4.798   6.523  14.851 -0.8818 -0.1714  0.2931
   38DOPE  H11X 4879   4.788   6.616  14.911  0.9713  0.7729 -0.8021
   38DOPE  H11Y 4880   4.730   6.450  14.901  0.2415 -0.4542  1.4541
   38DOPE  C312 4881   4.940   6.469  14.865  0.5342  0.0956  0.2357
   38DOPE  H12X 4882   4.947   6.458  14.975 -0.5827  1.2900  0.4547
   38DOPE  H12Y 4883   5.019   6.541  14.835  1.4554  0.0439  2.3693
   38DOPE  C313 4884   4.969   6.339  14.789 -0.8116  0.1699 -1.4901
   38DOPE  H13X 4885   4.876   6.278  14.779  0.0322 -1.4152 -0.2822
   38DOPE  H13Y 4886   5.012   6.354  14.688  1.4609  1.1402 -0.4551
   38DOPE  C314 4887   5.060   6.251  14.886  0.2109  0.6259 -0.1246
   38DOPE  H14X 4888   4.997   6.217  14.971 -0.4081 -1.4556 -1.3313
   38DOPE  H14Y 4889   5.128   6.322  14.937 -0.8651  1.4326  0.2180
   38DOPE  C315 4890   5.132   6.132  14.826 -0.1270  1.0368  0.2307
   38DOPE  H15X 4891   5.212   6.170  14.759  0.3258  1.3191  0.9230
   38DOPE  H15Y 4892   5.062   6.067  14.769  0.6590  0.1665  0.2499
   38DOPE  C316 4893   5.191   6.053  14.940 -0.8969 -0.1483  0.2948
   38DOPE  H16X 4894   5.120   5.978  14.982 -1.3504  0.5591  0.8036
   38DOPE  H16Y 4895   5.218   6.127  15.018 -0.2167 -0.6918  0.5829
   38DOPE  C317 4896   5.326   5.979  14.893  0.7611  0.2821 -0.1778
   38DOPE  H17X 4897   5.296   5.891  14.833  1.0065  0.6285 -0.8194
   38DOPE  H17Y 4898   5.375   6.052  14.824 -1.3006  1.2663 -0.6825
   38DOPE  C318 4899   5.424   5.946  15.002  0.1669  0.3427 -0.2982
   38DOPE  H18X 4900   5.479   6.037  15.035  0.5257 -0.1960  0.6244
   38DOPE  H18Y 4901   5.378   5.893  15.088  0.6909  0.3258 -0.0224
   38DOPE  H18Z 4902   5.500   5.880  14.955 -0.3172 -1.4725  1.3918
   39DOPE     N 4903   0.981   4.624  13.320  0.0535 -0.4296 -0.4279
   39DOPE   HN1 4904   0.892   4.570  13.317 -0.5180  0.4816 -0.2325
   39DOPE   HN2 4905   0.998   4.679  13.233 -0.6646 -2.2607 -1.7775
   39DOPE   HN3 4906   1.054   4.552  13.338  1.3810  0.4530 -1.9757
   39DOPE   C12 4907   0.994   4.722  13.433 -0.5028 -0.6472  0.1033
   39DOPE  H12A 4908   0.919   4.803  13.423 -0.3785 -0.2744  1.7738
   39DOPE  H12B 4909   1.095   4.764  13.415 -0.5039 -1.2687 -1.4937
   39DOPE   C11 4910   0.993   4.658  13.571 -0.7333 -0.5159  0.3639
   39DOPE  H11A 4911   0.887   4.627  13.578 -1.2557  0.4075 -2.4596
   39DOPE  H11B 4912   1.000   4.734  13.652 -1.1282  0.7896 -0.7933
   39DOPE     P 4913   1.184   4.532  13.679  0.2644  0.3965  0.0527
   39DOPE   O13 4914   1.214   4.664  13.740  0.0618 -0.3899 -0.3726
   39DOPE   O14 4915   1.304   4.469  13.622 -0.3216 -0.0189  0.1943
   39DOPE   O11 4916   1.119   4.440  13.791  0.4860  0.4004  0.3763
   39DOPE   O12 4917   1.074   4.542  13.573  0.2614 -0.5720 -0.1778
   39DOPE    C1 4918   0.977   4.444  13.817  0.5281 -0.1573 -0.1996
   39DOPE    HA 4919   0.936   4.359  13.758  1.2334 -3.0790  3.1616
   39DOPE    HB 4920   0.926   4.538  13.789 -2.7433 -1.7981 -0.2419
   39DOPE    C2 4921   0.956   4.425  13.969  0.2877  0.3241  0.3365
   39DOPE    HS 4922   0.853   4.460  13.992 -0.4798  0.1238 -2.4359
   39DOPE   O21 4923   1.042   4.498  14.055 -0.0038 -0.2888 -0.0049
   39DOPE   C21 4924   1.025   4.628  14.038 -0.1634  0.2305 -0.2779
   39DOPE   O22 4925   0.935   4.686  13.980  0.3074  0.5013 -0.0078
   39DOPE   C22 4926   1.143   4.696  14.108 -0.5915  0.3866 -0.8820
   39DOPE   H2R 4927   1.175   4.769  14.030 -0.7738  0.6420 -0.7203
   39DOPE   H2S 4928   1.233   4.633  14.125  2.1769  4.3897  0.8516
   39DOPE    C3 4929   0.972   4.274  14.007  0.3307 -0.3409  0.6068
   39DOPE    HX 4930   0.944   4.258  14.113 -0.0510 -1.9414  0.3004
   39DOPE    HY 4931   1.076   4.237  13.998 -0.7092 -3.3963  0.0073
   39DOPE   O31 4932   0.888   4.189  13.918  0.7288 -0.2117  1.0028
   39DOPE   C31 4933   0.763   4.170  13.960  0.0644 -0.7740  0.0884
   39DOPE   O32 4934   0.719   4.228  14.057  0.2307  0.3864 -0.5046
   39DOPE   C32 4935   0.699   4.066  13.866  0.0114 -0.5893  0.0760
   39DOPE   H2X 4936   0.656   4.120  13.779  0.0619 -0.2765  0.2454
   39DOPE   H2Y 4937   0.785   4.003  13.835  1.6163  0.7315  1.6264
   39DOPE   C23 4938   1.106   4.775  14.237 -0.3044  0.1312  0.0281
   39DOPE   H3R 4939   1.019   4.843  14.227  0.0702  0.5371 -0.5338
   39DOPE   H3S 4940   1.186   4.850  14.256  0.4587 -0.4589 -0.8006
   39DOPE   C24 4941   1.084   4.673  14.355 -0.3534  0.5356 -0.6968
   39DOPE   H4R 4942   1.185   4.633  14.375 -1.7132 -2.3865  0.9731
   39DOPE   H4S 4943   1.006   4.598  14.328  0.1393 -0.3967  0.3863
   39DOPE   C25 4944   1.027   4.752  14.477 -0.4768 -0.9968 -0.0379
   39DOPE   H5R 4945   0.918   4.755  14.456 -0.3383 -0.0535 -0.6632
   39DOPE   H5S 4946   1.072   4.853  14.481  0.9274 -1.6233  1.6300
   39DOPE   C26 4947   1.054   4.689  14.613 -0.5104  0.5094 -0.4764
   39DOPE   H6R 4948   1.164   4.683  14.630 -0.4200 -0.6477 -1.4013
   39DOPE   H6S 4949   1.012   4.586  14.611 -0.7379  0.5874  0.0668
   39DOPE   C27 4950   0.985   4.769  14.725 -0.2197 -0.0058  0.3671
   39DOPE   H7R 4951   0.875   4.766  14.707 -0.4114  1.2069  1.2540
   39DOPE   H7S 4952   1.027   4.871  14.721  2.4642 -1.0306 -0.3417
   39DOPE   C28 4953   1.030   4.718  14.859  1.2141  0.1805  0.3552
   39DOPE   H8R 4954   1.137   4.690  14.858  0.8088 -1.4848  0.4660
   39DOPE   H8S 4955   0.966   4.630  14.879 -0.3073  1.0188 -0.6136
   39DOPE   C29 4956   1.007   4.822  14.971 -0.5109  0.4406  1.3495
   39DOPE   H9R 4957   1.050   4.922  14.956 -2.8950  1.3740  0.1901
   39DOPE  C210 4958   0.967   4.807  15.094  0.2431 -0.2315  0.7940
   39DOPE  H10R 4959   0.956   4.901  15.150  1.2120  0.6393 -0.4160
   39DOPE  C211 4960   0.914   4.686  15.168 -0.2734  0.3355 -0.4246
   39DOPE  H11R 4961   0.959   4.658  15.266  0.8616 -1.7248 -1.4694
   39DOPE  H11S 4962   0.937   4.598  15.105  5.0511 -0.1351  1.5972
   39DOPE  C212 4963   0.761   4.694  15.169  0.5608 -0.8670  0.0940
   39DOPE  H12R 4964   0.720   4.591  15.172 -0.8556 -0.3469 -0.6417
   39DOPE  H12S 4965   0.723   4.739  15.075 -0.3547  0.2367  0.9623
   39DOPE  C213 4966   0.717   4.773  15.293 -0.1777  0.1068  0.2375
   39DOPE  H13R 4967   0.793   4.848  15.323 -0.2777  0.8517 -1.2924
   39DOPE  H13S 4968   0.704   4.700  15.376  1.1871 -1.3953 -0.7876
   39DOPE  C214 4969   0.589   4.855  15.269 -0.0535  0.4335  0.0713
   39DOPE  H14R 4970   0.616   4.929  15.190  0.4990 -0.7227 -0.8582
   39DOPE  H14S 4971   0.567   4.919  15.357  3.0447  1.5234  0.1850
   39DOPE  C215 4972   0.463   4.773  15.226 -0.2059 -0.6443  0.2768
   39DOPE  H15R 4973   0.445   4.703  15.311  1.0423 -1.6386 -0.2453
   39DOPE  H15S 4974   0.481   4.702  15.143  0.2033 -0.3039  0.0714
   39DOPE  C216 4975   0.340   4.859  15.203  0.9237  0.4720  0.6776
   39DOPE  H16R 4976   0.387   4.934  15.136  2.3854 -0.2736  0.8373
   39DOPE  H16S 4977   0.312   4.900  15.302 -1.0520 -1.4972  1.0174
   39DOPE  C217 4978   0.224   4.795  15.123  0.6892  0.6194  0.7703
   39DOPE  H17R 4979   0.257   4.766  15.021  0.4888 -0.0132  0.8758
   39DOPE  H17S 4980   0.145   4.870  15.101  0.2873 -0.3313 -1.2385
   39DOPE  C218 4981   0.168   4.670  15.182  0.1250  0.1279 -0.7825
   39DOPE  H18R 4982   0.096   4.628  15.109  0.0005  0.1429 -0.6667
   39DOPE  H18S 4983   0.128   4.691  15.284  1.8613 -0.2382  0.0138
   39DOPE  H18T 4984   0.245   4.594  15.206 -1.2154 -1.0441 -0.0861
   39DOPE   C33 4985   0.574   3.986  13.916  0.1170 -0.2320 -0.4955
   39DOPE   H3X 4986   0.612   3.926  14.002 -2.0526 -0.2745  0.5042
   39DOPE   H3Y 4987   0.541   3.918  13.835 -0.2027  0.3084 -0.8230
   39DOPE   C34 4988   0.464   4.070  13.978  0.9350 -0.2274  0.1861
   39DOPE   H4X 4989   0.496   4.138  14.059  1.5896  1.5802 -1.5113
   39DOPE   H4Y 4990   0.433   4.138  13.896  2.4360 -0.7965 -0.8884
   39DOPE   C35 4991   0.342   3.976  14.024 -0.8588 -0.8851 -0.8656
   39DOPE   H5X 4992   0.346   3.979  14.135 -0.5198  0.0059 -0.8940
   39DOPE   H5Y 4993   0.356   3.876  13.976  0.2688 -1.3294  0.3478
   39DOPE   C36 4994   0.208   4.032  13.999  0.2792  0.4599 -0.2534
   39DOPE   H6X 4995   0.179   4.044  13.892  1.5150  0.3299 -0.6174
   39DOPE   H6Y 4996   0.215   4.141  14.016  0.7331  0.7071 -1.8323
   39DOPE   C37 4997   0.085   3.980  14.083 -0.6074  0.4810  1.0773
   39DOPE   H7X 4998  -0.009   4.034  14.056 -0.5103  0.4896  0.7513
   39DOPE   H7Y 4999   0.066   3.874  14.056  1.5963  0.0475  1.0794
   39DOPE   C38 5000   0.104   3.981  14.238 -0.3444 -0.8822  0.0901
   39DOPE   H8X 5001   0.201   3.933  14.263 -0.1024  0.0128  0.9186
   39DOPE   H8Y 5002   0.027   3.915  14.285 -0.2245 -1.7557 -0.9271
   39DOPE   C39 5003   0.121   4.117  14.298 -0.3749 -0.1287 -0.0851
   39DOPE   H9X 5004   0.185   4.182  14.236  0.0065 -0.8409 -0.4549
   39DOPE  C310 5005   0.078   4.153  14.424 -0.4917 -0.0649 -0.1265
   39DOPE  H10X 5006   0.108   4.249  14.468 -1.4129 -0.2081  0.8316
   39DOPE  C311 5007  -0.006   4.076  14.523 -0.1502  0.4004 -0.3829
   39DOPE  H11X 5008  -0.088   4.019  14.474 -0.2447  0.2382 -0.0435
   39DOPE  H11Y 5009   0.052   3.997  14.576  0.7047  0.1734 -1.6154
   39DOPE  C312 5010  -0.072   4.161  14.638 -0.3613 -0.1403  0.2138
   39DOPE  H12X 5011  -0.135   4.088  14.695  0.1666 -2.3880 -1.8922
   39DOPE  H12Y 5012  -0.141   4.236  14.595 -0.0959  0.0458  0.1137
   39DOPE  C313 5013   0.022   4.235  14.731  0.2670 -0.2067 -0.2832
   39DOPE  H13X 5014   0.077   4.312  14.673 -0.3135  0.2665 -0.2087
   39DOPE  H13Y 5015  -0.050   4.278  14.804 -1.9596 -2.3700 -1.0819
   39DOPE  C314 5016   0.128   4.140  14.795 -0.0973  0.0754 -0.1147
   39DOPE  H14X 5017   0.192   4.205  14.858  1.6132 -0.5155 -1.2024
   39DOPE  H14Y 5018   0.198   4.103  14.717 -0.0387 -0.1930  0.0648
   39DOPE  C315 5019   0.083   4.011  14.871  0.4343 -0.1029  0.5231
   39DOPE  H15X 5020   0.037   3.942  14.797 -1.0907 -0.1930  1.5046
   39DOPE  H15Y 5021  -0.000   4.038  14.940 -0.1204  0.1968 -0.2452
   39DOPE  C316 5022   0.200   3.943  14.947  0.1170  0.0868  0.8823
   39DOPE  H16X 5023   0.228   4.006  15.035  0.6018 -0.4767  1.1424
   39DOPE  H16Y 5024   0.291   3.923  14.887 -0.4396 -4.2335  1.1963
   39DOPE  C317 5025   0.149   3.805  14.999  0.0370 -0.4547  0.3173
   39DOPE  H17X 5026   0.114   3.740  14.916 -2.3588  1.6303 -0.4402
   39DOPE  H17Y 5027   0.240   3.760  15.044 -0.2227 -2.7091 -1.2519
   39DOPE  C318 5028   0.049   3.812  15.115  0.4533  0.3008 -0.2536
   39DOPE  H18X 5029  -0.028   3.888  15.089 -1.2509  0.1473  3.7045
   39DOPE  H18Y 5030  -0.002   3.714  15.124  0.0581  0.4553 -0.7672
   39DOPE  H18Z 5031   0.095   3.835  15.214 -2.3718 -0.4777  1.3445
   40DOPE     N 5032   3.733   5.773  13.110  0.6484 -0.3894 -0.6047
   40DOPE   HN1 5033   3.833   5.749  13.119  0.1135 -2.3314  0.8155
   40DOPE   HN2 5034   3.682   5.701  13.165  0.8999  0.2435  0.4834
   40DOPE   HN3 5035   3.713   5.781  13.008  0.4744  0.7984 -0.4973
   40DOPE   C12 5036   3.716   5.910  13.178 -0.3326  0.0001 -0.1906
   40DOPE  H12A 5037   3.647   5.970  13.115  0.3191  0.9444 -0.0303
   40DOPE  H12B 5038   3.809   5.962  13.147 -0.0302 -0.6652 -0.4211
   40DOPE   C11 5039   3.694   5.901  13.330 -0.5596  0.1499 -0.3666
   40DOPE  H11A 5040   3.601   5.846  13.358  0.2305  0.0442  2.3575
   40DOPE  H11B 5041   3.685   6.006  13.366 -0.8064  0.7742 -2.1677
   40DOPE     P 5042   3.934   5.885  13.442 -0.1528 -0.0811 -0.1310
   40DOPE   O13 5043   4.030   5.902  13.333 -0.2377  0.6002  0.4069
   40DOPE   O14 5044   3.979   5.804  13.556 -0.0176 -0.6689  0.5189
   40DOPE   O11 5045   3.894   6.024  13.504 -0.3595  0.4721  0.2982
   40DOPE   O12 5046   3.798   5.831  13.400  0.6489  0.1197  0.3810
   40DOPE    C1 5047   3.823   6.015  13.630 -0.4757 -0.1707 -0.1740
   40DOPE    HA 5048   3.880   5.951  13.701  2.3474  2.1870 -0.1519
   40DOPE    HB 5049   3.722   5.968  13.621  0.3544 -1.6882 -2.2921
   40DOPE    C2 5050   3.791   6.157  13.684 -0.0618  0.2033  0.0930
   40DOPE    HS 5051   3.882   6.221  13.676 -0.9483  1.3119 -1.5422
   40DOPE   O21 5052   3.752   6.144  13.820  0.1018 -0.3871 -0.0097
   40DOPE   C21 5053   3.760   6.256  13.901 -0.8352  0.1297 -0.0361
   40DOPE   O22 5054   3.813   6.362  13.865  0.0090  0.0799  0.1377
   40DOPE   C22 5055   3.697   6.237  14.041  0.1198  0.5857  0.4793
   40DOPE   H2R 5056   3.723   6.133  14.068  1.3739  0.5972 -0.5809
   40DOPE   H2S 5057   3.587   6.233  14.026  0.0536 -2.7106  1.2030
   40DOPE    C3 5058   3.674   6.227  13.607 -0.1690 -1.2585 -0.1930
   40DOPE    HX 5059   3.700   6.235  13.499  0.5434  1.0384  0.0995
   40DOPE    HY 5060   3.657   6.334  13.633  2.0437 -0.1662 -2.7122
   40DOPE   O31 5061   3.555   6.155  13.598 -0.1577 -0.3283  0.3885
   40DOPE   C31 5062   3.474   6.172  13.700  0.3430  1.3031 -0.4408
   40DOPE   O32 5063   3.485   6.259  13.778  0.2289 -0.5100 -0.2228
   40DOPE   C32 5064   3.360   6.071  13.696  0.0172 -0.0018  0.2012
   40DOPE   H2X 5065   3.324   6.073  13.591 -0.4700  0.4926  0.3758
   40DOPE   H2Y 5066   3.403   5.970  13.713  1.2258  0.5677  0.6746
   40DOPE   C23 5067   3.726   6.328  14.162 -0.2830 -0.4684 -0.3867
   40DOPE   H3R 5068   3.659   6.288  14.242 -1.0618 -2.0096 -1.7393
   40DOPE   H3S 5069   3.699   6.435  14.153  0.1991 -0.0787  2.0673
   40DOPE   C24 5070   3.870   6.313  14.219 -1.1423  0.4076  0.3372
   40DOPE   H4R 5071   3.889   6.208  14.250  0.1003  0.9678  1.6388
   40DOPE   H4S 5072   3.882   6.360  14.320 -0.1657  0.3778  0.2406
   40DOPE   C25 5073   3.990   6.366  14.132 -0.1752 -0.6371 -0.1066
   40DOPE   H5R 5074   3.981   6.476  14.116 -1.1638 -0.5948  0.6518
   40DOPE   H5S 5075   4.008   6.310  14.038 -1.4070 -2.0481  0.4580
   40DOPE   C26 5076   4.110   6.342  14.220 -0.0880  0.1973  0.0634
   40DOPE   H6R 5077   4.143   6.237  14.209 -0.2537  0.1727 -0.2310
   40DOPE   H6S 5078   4.086   6.367  14.325  0.6018 -0.3363  0.3507
   40DOPE   C27 5079   4.230   6.428  14.179  0.0397 -0.4010  0.0111
   40DOPE   H7R 5080   4.191   6.532  14.182 -3.3156 -1.4962 -1.2086
   40DOPE   H7S 5081   4.251   6.409  14.072  0.3961 -1.3712  0.2453
   40DOPE   C28 5082   4.349   6.416  14.277 -0.2631  0.1059 -1.3210
   40DOPE   H8R 5083   4.371   6.308  14.283 -0.4458  0.0080 -2.2565
   40DOPE   H8S 5084   4.313   6.452  14.376  0.3341 -0.2899 -0.9540
   40DOPE   C29 5085   4.469   6.495  14.237  0.2419  0.0147 -0.0516
   40DOPE   H9R 5086   4.499   6.454  14.139 -2.1848 -1.1793 -0.3811
   40DOPE  C210 5087   4.531   6.598  14.300  0.5361  0.0400  0.4174
   40DOPE  H10R 5088   4.626   6.634  14.259 -0.5353  0.9013 -1.4505
   40DOPE  C211 5089   4.480   6.663  14.421  0.0756  0.2854  0.2750
   40DOPE  H11R 5090   4.561   6.720  14.470 -1.5138  2.2119  0.7615
   40DOPE  H11S 5091   4.440   6.592  14.497 -0.4832  1.0310  0.6864
   40DOPE  C212 5092   4.373   6.761  14.393 -0.1710 -0.2090  0.6280
   40DOPE  H12R 5093   4.293   6.722  14.327 -0.5526 -1.0892  1.5797
   40DOPE  H12S 5094   4.408   6.849  14.335  3.2302 -2.3666 -0.8709
   40DOPE  C213 5095   4.306   6.814  14.525 -0.7941 -1.2441  0.4488
   40DOPE  H13R 5096   4.378   6.877  14.581 -0.4605 -0.4896 -0.7656
   40DOPE  H13S 5097   4.283   6.723  14.583  2.0555 -3.0401 -1.0092
   40DOPE  C214 5098   4.177   6.894  14.493 -0.3106 -0.0925 -0.4269
   40DOPE  H14R 5099   4.101   6.839  14.433 -0.8490 -1.6160  1.5708
   40DOPE  H14S 5100   4.216   6.982  14.437  0.1404  0.2872  0.4593
   40DOPE  C215 5101   4.114   6.933  14.637 -0.3735  0.2631  0.5839
   40DOPE  H15R 5102   4.201   6.971  14.696  0.5809 -0.9677  0.0225
   40DOPE  H15S 5103   4.068   6.845  14.685 -0.4810 -0.3724 -0.6506
   40DOPE  C216 5104   4.011   7.038  14.616 -0.7567 -0.0889 -0.2889
   40DOPE  H16R 5105   4.050   7.125  14.560  0.1517  0.1970  0.7550
   40DOPE  H16S 5106   3.987   7.084  14.715  0.5762  2.5115 -1.0736
   40DOPE  C217 5107   3.877   6.986  14.561  0.0364 -0.3026 -0.4034
   40DOPE  H17R 5108   3.838   6.903  14.623  0.9642  0.2882  1.0228
   40DOPE  H17S 5109   3.886   6.952  14.456  0.7743  0.6996 -0.6794
   40DOPE  C218 5110   3.770   7.097  14.543  0.1101  0.0053 -0.0914
   40DOPE  H18R 5111   3.808   7.200  14.527  0.9295 -0.3161 -0.2885
   40DOPE  H18S 5112   3.712   7.110  14.637 -0.5237 -1.7034 -0.2109
   40DOPE  H18T 5113   3.707   7.073  14.454  0.9325  0.8867 -0.9396
   40DOPE   C33 5114   3.244   6.104  13.794  0.8568 -0.5172 -1.0917
   40DOPE   H3X 5115   3.154   6.058  13.747  0.4290  0.1049 -0.8914
   40DOPE   H3Y 5116   3.230   6.215  13.794  0.4679 -0.5634 -1.5255
   40DOPE   C34 5117   3.256   6.044  13.933 -0.3491  0.6970  0.0970
   40DOPE   H4X 5118   3.276   5.936  13.916 -0.8705  0.6449 -0.1911
   40DOPE   H4Y 5119   3.350   6.080  13.981  0.9148  0.8282 -2.3089
   40DOPE   C35 5120   3.133   6.062  14.025 -0.2184 -0.1529  0.0021
   40DOPE   H5X 5121   3.043   6.021  13.975 -0.5143 -0.5296  0.8297
   40DOPE   H5Y 5122   3.120   6.172  14.038 -1.0428 -0.1556 -0.7235
   40DOPE   C36 5123   3.156   5.990  14.158  0.1877  0.4548 -0.3707
   40DOPE   H6X 5124   3.255   6.011  14.203  0.3671 -1.8058  0.3867
   40DOPE   H6Y 5125   3.159   5.882  14.133  0.9650 -0.5056  3.2459
   40DOPE   C37 5126   3.042   6.008  14.263  0.1333 -0.5140  0.5025
   40DOPE   H7X 5127   3.023   6.111  14.300 -1.4097 -0.2675 -0.8999
   40DOPE   H7Y 5128   2.948   5.980  14.211 -0.0070  0.0676  0.4338
   40DOPE   C38 5129   3.059   5.913  14.380  0.1665 -0.0566 -0.1891
   40DOPE   H8X 5130   3.077   5.814  14.332  0.1784  1.0702 -2.6791
   40DOPE   H8Y 5131   2.960   5.900  14.429 -0.0666  1.3158 -0.2556
   40DOPE   C39 5132   3.168   5.962  14.473 -0.1167 -0.3666  0.1514
   40DOPE   H9X 5133   3.272   5.956  14.437  0.2123 -3.3230  1.2591
   40DOPE  C310 5134   3.154   5.992  14.606 -0.0351  0.0067  0.2659
   40DOPE  H10X 5135   3.235   6.046  14.657  0.1776  2.3733 -2.3193
   40DOPE  C311 5136   3.019   6.001  14.672 -1.0280 -0.1658 -0.1051
   40DOPE  H11X 5137   2.949   6.045  14.598  1.1282  1.3935 -1.3180
   40DOPE  H11Y 5138   2.990   5.898  14.702  2.4594 -1.1732  0.2408
   40DOPE  C312 5139   3.006   6.086  14.799  0.4836  0.6513  0.3848
   40DOPE  H12X 5140   2.900   6.110  14.820  0.8113  1.3219  1.3852
   40DOPE  H12Y 5141   3.060   6.183  14.790 -1.4305  1.6905 -0.4356
   40DOPE  C313 5142   3.057   6.016  14.922  0.0283  0.5765 -0.5559
   40DOPE  H13X 5143   2.984   5.950  14.973  0.7302 -0.5773 -1.0147
   40DOPE  H13Y 5144   3.138   5.948  14.889 -0.4318 -0.4483  0.3739
   40DOPE  C314 5145   3.118   6.107  15.031  0.0815 -0.4078  0.4822
   40DOPE  H14X 5146   3.134   6.064  15.132  2.0602  0.4447  0.5841
   40DOPE  H14Y 5147   3.040   6.187  15.035  0.0298 -0.4643  0.6148
   40DOPE  C315 5148   3.249   6.175  14.996  0.4794  0.0827 -0.3334
   40DOPE  H15X 5149   3.274   6.231  15.089  1.5181 -1.2329  0.2214
   40DOPE  H15Y 5150   3.241   6.248  14.912  1.5360 -0.0535 -0.5706
   40DOPE  C316 5151   3.360   6.078  14.955 -0.4821 -0.2266  0.1346
   40DOPE  H16X 5152   3.441   6.140  14.910  1.5456 -2.2957  0.7432
   40DOPE  H16Y 5153   3.328   6.007  14.876  0.3609  0.2499 -0.6595
   40DOPE  C317 5154   3.416   6.006  15.078  0.1815 -0.3304 -0.1250
   40DOPE  H17X 5155   3.427   6.078  15.162  0.9277  0.3383 -0.7824
   40DOPE  H17Y 5156   3.343   5.930  15.114  1.2900 -0.8384  1.1466
   40DOPE  C318 5157   3.547   5.935  15.040 -0.3767 -0.1802  0.9203
   40DOPE  H18X 5158   3.586   5.874  15.124  0.2704 -1.3074 -0.1602
   40DOPE  H18Y 5159   3.526   5.882  14.945  1.0162  1.9170 -0.6393
   40DOPE  H18Z 5160   3.613   6.011  14.994 -1.1000  0.0016  0.1604
   41DOPE     N 5161   0.790   5.986  13.275  0.2868 -0.3995  0.3826
   41DOPE   HN1 5162   0.759   6.063  13.339 -2.6461 -0.7191 -0.5072
   41DOPE   HN2 5163   0.893   5.984  13.284  0.5681  0.7726 -1.8414
   41DOPE   HN3 5164   0.763   6.015  13.179  0.8098  0.6778  0.5366
   41DOPE   C12 5165   0.735   5.857  13.297 -0.3724  0.7735  0.4285
   41DOPE  H12A 5166   0.758   5.786  13.215  1.1278 -0.0508  1.5165
   41DOPE  H12B 5167   0.624   5.858  13.291 -0.5236 -0.1830  2.3308
   41DOPE   C11 5168   0.793   5.802  13.428 -0.3336  0.5663  0.3291
   41DOPE  H11A 5169   0.756   5.699  13.446 -0.0968  0.7117  1.7853
   41DOPE  H11B 5170   0.759   5.864  13.514  0.8050 -1.6488  2.4987
   41DOPE     P 5171   1.028   5.687  13.458 -0.4986  0.1192 -0.2100
   41DOPE   O13 5172   1.159   5.736  13.506  1.0779 -0.2202  0.3737
   41DOPE   O14 5173   1.026   5.594  13.337  0.2909 -0.5942 -0.2025
   41DOPE   O11 5174   0.949   5.612  13.571  0.2940 -0.5243 -0.1133
   41DOPE   O12 5175   0.940   5.808  13.424  0.4667  0.2640  0.2594
   41DOPE    C1 5176   0.926   5.675  13.700  0.7006 -0.4127  0.4122
   41DOPE    HA 5177   0.826   5.646  13.738  0.0850 -1.3579 -1.7811
   41DOPE    HB 5178   0.911   5.784  13.682 -1.5059 -1.1573 -3.2455
   41DOPE    C2 5179   1.035   5.639  13.802 -0.0756  0.5998 -0.1351
   41DOPE    HS 5180   1.137   5.664  13.765  0.7224  1.6721  2.5650
   41DOPE   O21 5181   1.020   5.493  13.829  0.7115 -0.1851  0.5713
   41DOPE   C21 5182   1.136   5.429  13.848  0.0401  0.0568 -0.1712
   41DOPE   O22 5183   1.249   5.480  13.845  1.1804 -0.1690  0.8954
   41DOPE   C22 5184   1.093   5.294  13.903  0.0506  0.0744 -0.0591
   41DOPE   H2R 5185   1.089   5.220  13.821 -1.0967  0.8678 -0.7427
   41DOPE   H2S 5186   0.998   5.296  13.960 -0.0991 -1.5931 -0.2055
   41DOPE    C3 5187   1.013   5.718  13.940 -0.1012  0.4517  0.3492
   41DOPE    HX 5188   1.090   5.692  14.015  1.8385  0.6876 -1.4705
   41DOPE    HY 5189   0.913   5.687  13.979 -0.2363  1.5044  0.8937
   41DOPE   O31 5190   1.007   5.860  13.929 -0.7890 -0.5553  0.0630
   41DOPE   C31 5191   1.134   5.910  13.907  1.0227  0.4525 -0.3410
   41DOPE   O32 5192   1.228   5.850  13.860  0.2048 -0.2841 -0.6514
   41DOPE   C32 5193   1.138   6.064  13.922 -0.0993 -0.5441  0.0176
   41DOPE   H2X 5194   1.174   6.114  13.830  1.1286 -0.1338  0.7086
   41DOPE   H2Y 5195   1.042   6.110  13.956  0.4878  0.6319  0.1054
   41DOPE   C23 5196   1.186   5.239  14.018 -0.0686  0.1878 -0.3517
   41DOPE   H3R 5197   1.290   5.240  13.981  0.5035  1.7354  1.2033
   41DOPE   H3S 5198   1.153   5.135  14.043 -0.4756 -0.4270 -3.1074
   41DOPE   C24 5199   1.184   5.315  14.155 -0.4464 -0.5367  0.2838
   41DOPE   H4R 5200   1.246   5.253  14.224  2.8776  1.5187 -0.6193
   41DOPE   H4S 5201   1.082   5.332  14.195 -0.8799 -1.5651 -0.3555
   41DOPE   C25 5202   1.241   5.458  14.160 -0.7869  0.1601  0.7858
   41DOPE   H5R 5203   1.179   5.535  14.109 -1.3756  0.5992  2.1029
   41DOPE   H5S 5204   1.332   5.444  14.097 -1.9050  0.7854 -1.0363
   41DOPE   C26 5205   1.288   5.503  14.297  0.1000 -0.5054 -0.3533
   41DOPE   H6R 5206   1.361   5.586  14.283 -0.9629  0.4775 -0.1538
   41DOPE   H6S 5207   1.338   5.421  14.354  1.0429 -0.4024 -1.0147
   41DOPE   C27 5208   1.177   5.549  14.397 -0.4941 -0.0050  0.7553
   41DOPE   H7R 5209   1.129   5.452  14.419  0.5852 -1.4651 -2.6708
   41DOPE   H7S 5210   1.110   5.623  14.347  1.1926  1.3211  0.3440
   41DOPE   C28 5211   1.226   5.604  14.534  0.2819  0.4676  0.0655
   41DOPE   H8R 5212   1.270   5.706  14.528 -0.3452  0.7076 -0.5638
   41DOPE   H8S 5213   1.303   5.536  14.577 -0.8218 -0.7753  0.1255
   41DOPE   C29 5214   1.106   5.604  14.622 -0.1616  0.3910 -0.3664
   41DOPE   H9R 5215   1.070   5.700  14.662 -0.2343  0.3219 -0.2651
   41DOPE  C210 5216   1.061   5.503  14.696 -0.1677  0.0786 -0.0529
   41DOPE  H10R 5217   0.973   5.516  14.761 -0.4026 -2.4777  0.2298
   41DOPE  C211 5218   1.112   5.362  14.692 -0.1506  0.1844  0.0601
   41DOPE  H11R 5219   1.221   5.351  14.672 -0.1252  0.5629 -0.0162
   41DOPE  H11S 5220   1.065   5.308  14.607  0.4248  0.8849 -0.7218
   41DOPE  C212 5221   1.080   5.289  14.824  0.8189 -0.0362 -0.4670
   41DOPE  H12R 5222   1.112   5.183  14.814  0.9823  0.0122 -0.4422
   41DOPE  H12S 5223   0.971   5.277  14.845  0.9821 -1.6401 -0.4436
   41DOPE  C213 5224   1.150   5.340  14.953 -0.1298 -0.1213 -0.2838
   41DOPE  H13R 5225   1.134   5.263  15.031  0.6740 -1.0012 -0.9633
   41DOPE  H13S 5226   1.108   5.435  14.992  0.6442  0.2905 -0.4341
   41DOPE  C214 5227   1.303   5.343  14.940  0.5173 -0.0156  0.0909
   41DOPE  H14R 5228   1.327   5.428  14.872  1.0550  0.2181  0.5705
   41DOPE  H14S 5229   1.344   5.250  14.895 -2.7072 -1.5919  0.1399
   41DOPE  C215 5230   1.386   5.353  15.063 -0.3405 -0.7877 -0.8708
   41DOPE  H15R 5231   1.330   5.298  15.142 -1.8594 -0.5562 -1.7482
   41DOPE  H15S 5232   1.396   5.457  15.102 -0.1667 -1.3142  0.5569
   41DOPE  C216 5233   1.529   5.307  15.046 -0.6239  0.1877  0.0500
   41DOPE  H16R 5234   1.530   5.219  14.979  0.9133 -0.2077  0.5565
   41DOPE  H16S 5235   1.575   5.279  15.144 -2.8892 -0.2037  1.0820
   41DOPE  C217 5236   1.618   5.414  14.985  0.1351 -0.3584  0.0250
   41DOPE  H17R 5237   1.616   5.510  15.040 -1.8715 -0.0743 -0.4906
   41DOPE  H17S 5238   1.572   5.430  14.885 -0.2368 -2.4525 -0.1989
   41DOPE  C218 5239   1.757   5.364  14.955 -0.3717 -0.3068 -0.3505
   41DOPE  H18R 5240   1.751   5.331  14.849 -1.8999  0.5412 -0.5622
   41DOPE  H18S 5241   1.784   5.285  15.027 -2.6329  1.1125  2.2547
   41DOPE  H18T 5242   1.829   5.449  14.958 -1.5936  0.8783 -1.9924
   41DOPE   C33 5243   1.240   6.106  14.038  0.1875 -0.5993  0.2314
   41DOPE   H3X 5244   1.271   6.210  14.016  0.0502 -0.8851 -1.3894
   41DOPE   H3Y 5245   1.330   6.041  14.033 -0.9486 -2.1955 -0.2360
   41DOPE   C34 5246   1.179   6.093  14.181  0.7920 -0.1322  0.7630
   41DOPE   H4X 5247   1.100   6.171  14.189  0.0827 -0.8329  0.6929
   41DOPE   H4Y 5248   1.132   5.994  14.197 -2.3354  0.8437 -1.4755
   41DOPE   C35 5249   1.282   6.126  14.294 -0.0839 -0.4445 -0.7323
   41DOPE   H5X 5250   1.309   6.233  14.282  0.1769 -0.5891 -1.5280
   41DOPE   H5Y 5251   1.375   6.067  14.277  1.4197  1.5110  0.2442
   41DOPE   C36 5252   1.235   6.103  14.438  0.3084  0.4044  0.0386
   41DOPE   H6X 5253   1.319   6.130  14.505  0.6904 -1.7935  0.5432
   41DOPE   H6Y 5254   1.238   5.992  14.447 -0.4293  0.4466  0.8768
   41DOPE   C37 5255   1.102   6.169  14.486  0.3239  1.0389  0.0203
   41DOPE   H7X 5256   1.013   6.130  14.433 -0.6927  2.6522  0.4550
   41DOPE   H7Y 5257   1.094   6.133  14.591 -2.4544  0.3862 -0.3429
   41DOPE   C38 5258   1.097   6.322  14.480  0.0578 -0.6644 -0.1588
   41DOPE   H8X 5259   1.002   6.361  14.522  0.0114 -2.4325  1.5297
   41DOPE   H8Y 5260   1.089   6.355  14.374 -2.1126 -1.3900 -0.2769
   41DOPE   C39 5261   1.212   6.395  14.549  0.0238 -0.5128 -0.0267
   41DOPE   H9X 5262   1.313   6.372  14.513  0.3178  0.3525  0.2221
   41DOPE  C310 5263   1.204   6.483  14.648 -0.1231  0.4672 -0.3047
   41DOPE  H10X 5264   1.297   6.511  14.699  0.4597 -1.0755 -0.4547
   41DOPE  C311 5265   1.077   6.560  14.688 -0.0626 -0.2490  0.6763
   41DOPE  H11X 5266   1.095   6.660  14.642 -1.0615 -0.6087 -0.5413
   41DOPE  H11Y 5267   0.981   6.516  14.654  0.2272 -0.8429  0.6084
   41DOPE  C312 5268   1.046   6.565  14.847 -0.1405 -0.1000  0.2161
   41DOPE  H12X 5269   1.074   6.467  14.891 -1.4584 -0.7456 -0.2912
   41DOPE  H12Y 5270   0.935   6.576  14.846 -0.0318  2.4868  3.0878
   41DOPE  C313 5271   1.116   6.679  14.923 -0.2166 -0.7033 -0.3325
   41DOPE  H13X 5272   1.226   6.662  14.925 -0.1327 -0.3053  2.4654
   41DOPE  H13Y 5273   1.093   6.778  14.879  0.0878  0.3233  1.6906
   41DOPE  C314 5274   1.078   6.685  15.077 -0.4786  0.3591  0.1492
   41DOPE  H14X 5275   1.091   6.793  15.099  0.8097 -0.2225  2.6327
   41DOPE  H14Y 5276   1.155   6.632  15.137 -3.0452 -4.8847 -0.6360
   41DOPE  C315 5277   0.936   6.648  15.116  0.4959 -0.1244  0.1539
   41DOPE  H15X 5278   0.917   6.545  15.079  0.1389 -0.7382  1.9371
   41DOPE  H15Y 5279   0.874   6.717  15.055 -2.0981 -2.0182  0.4831
   41DOPE  C316 5280   0.911   6.665  15.259  0.2084 -0.2366  0.5103
   41DOPE  H16X 5281   0.973   6.744  15.308  0.9633 -0.8457  0.5622
   41DOPE  H16Y 5282   0.938   6.568  15.306  1.5460 -0.7911 -1.2778
   41DOPE  C317 5283   0.763   6.711  15.288  0.9727  0.1717  0.2483
   41DOPE  H17X 5284   0.742   6.806  15.232 -1.9783 -0.4046  0.1836
   41DOPE  H17Y 5285   0.690   6.635  15.253  1.5489  0.4090 -1.5981
   41DOPE  C318 5286   0.731   6.744  15.435 -0.0655  0.2170 -0.0348
   41DOPE  H18X 5287   0.756   6.649  15.488 -0.1403 -0.2428 -0.7989
   41DOPE  H18Y 5288   0.799   6.825  15.466  0.9729 -0.7059  0.1623
   41DOPE  H18Z 5289   0.626   6.777  15.452  0.0387  1.3015 -1.3741
   42DOPE     N 5290   0.798   5.400  13.638 -0.7686  0.6864  0.0061
   42DOPE   HN1 5291   0.877   5.333  13.633 -0.8099  0.5720  0.7230
   42DOPE   HN2 5292   0.834   5.497  13.625 -3.9558  1.8332 -1.1066
   42DOPE   HN3 5293   0.765   5.396  13.737 -0.4341  2.0577  0.1982
   42DOPE   C12 5294   0.669   5.376  13.548 -0.6017 -0.2726  0.2458
   42DOPE  H12A 5295   0.641   5.269  13.549  1.0655 -0.7649 -1.0115
   42DOPE  H12B 5296   0.701   5.411  13.447 -0.7393  0.0658  0.3186
   42DOPE   C11 5297   0.554   5.458  13.605 -0.6643  0.1178  0.0758
   42DOPE  H11A 5298   0.512   5.397  13.688  0.4878  0.6269  1.0795
   42DOPE  H11B 5299   0.476   5.463  13.526 -0.1783 -2.3432 -0.6208
   42DOPE     P 5300   0.508   5.719  13.668  0.1461 -0.6085  0.1128
   42DOPE   O13 5301   0.425   5.744  13.546  0.8160 -0.1474 -0.2010
   42DOPE   O14 5302   0.583   5.829  13.733  0.3159  0.3129  0.5784
   42DOPE   O11 5303   0.404   5.678  13.780  0.1176 -0.2138 -0.3610
   42DOPE   O12 5304   0.594   5.593  13.657 -0.2811  0.5923  0.4349
   42DOPE    C1 5305   0.415   5.574  13.882 -0.6995  0.0684  0.1360
   42DOPE    HA 5306   0.512   5.576  13.937 -1.5899 -1.2092  1.8449
   42DOPE    HB 5307   0.382   5.484  13.827 -2.0950  0.2442  0.6428
   42DOPE    C2 5308   0.310   5.595  13.992  0.0604  0.7027 -0.1820
   42DOPE    HS 5309   0.220   5.624  13.933  0.0206  0.1977 -0.3800
   42DOPE   O21 5310   0.352   5.699  14.079  0.2539  0.4077 -0.1813
   42DOPE   C21 5311   0.251   5.777  14.135  0.4827  0.6497 -0.0764
   42DOPE   O22 5312   0.135   5.764  14.102 -0.0222  0.2916 -0.0696
   42DOPE   C22 5313   0.300   5.859  14.253 -0.2163 -0.3870 -0.4019
   42DOPE   H2R 5314   0.291   5.968  14.233  1.8112  0.1336  1.2311
   42DOPE   H2S 5315   0.406   5.842  14.282 -0.5439 -0.1219  1.0005
   42DOPE    C3 5316   0.279   5.463  14.073 -0.0996 -0.8113  0.0644
   42DOPE    HX 5317   0.265   5.379  14.001  0.1217 -0.0505 -0.8878
   42DOPE    HY 5318   0.180   5.482  14.119 -1.0090  1.1881 -2.5116
   42DOPE   O31 5319   0.375   5.432  14.175 -0.0008  0.7703 -0.2183
   42DOPE   C31 5320   0.498   5.375  14.137 -0.0506 -1.5002 -0.0254
   42DOPE   O32 5321   0.528   5.334  14.026 -0.8962  0.0830 -0.6646
   42DOPE   C32 5322   0.585   5.373  14.262 -0.1226  0.4210 -0.7469
   42DOPE   H2X 5323   0.543   5.455  14.325  0.1076  0.6062 -0.8348
   42DOPE   H2Y 5324   0.571   5.272  14.305  0.8437  1.4092  2.0979
   42DOPE   C23 5325   0.210   5.833  14.378  0.0070 -0.2061 -0.1923
   42DOPE   H3R 5326   0.104   5.830  14.348 -0.5239 -0.9933  1.6510
   42DOPE   H3S 5327   0.216   5.917  14.451 -0.2509  0.4752 -0.9448
   42DOPE   C24 5328   0.236   5.696  14.446  0.1715 -1.2938  0.1604
   42DOPE   H4R 5329   0.330   5.694  14.506  0.6803  0.9114 -0.4802
   42DOPE   H4S 5330   0.237   5.616  14.369 -1.2948  0.0056 -1.2779
   42DOPE   C25 5331   0.125   5.658  14.550 -0.1005  0.3252  0.0078
   42DOPE   H5R 5332   0.120   5.742  14.623 -2.5240 -0.6516  1.0804
   42DOPE   H5S 5333   0.157   5.568  14.606  0.8060 -0.6403 -2.0007
   42DOPE   C26 5334  -0.019   5.642  14.498 -0.2402 -0.1811 -0.0478
   42DOPE   H6R 5335  -0.046   5.742  14.459 -0.9964  0.0777  1.1116
   42DOPE   H6S 5336  -0.088   5.614  14.580  1.5132  0.7681  1.8436
   42DOPE   C27 5337  -0.027   5.534  14.386 -0.2808  0.6712  0.8004
   42DOPE   H7R 5338   0.031   5.450  14.430  1.5627  1.7139  0.4867
   42DOPE   H7S 5339   0.029   5.574  14.299 -0.9084 -0.0866  0.0431
   42DOPE   C28 5340  -0.172   5.494  14.350 -0.0075  0.4890  0.4499
   42DOPE   H8R 5341  -0.225   5.504  14.448 -0.5532  0.6378  0.1458
   42DOPE   H8S 5342  -0.179   5.389  14.317 -0.5946  1.1078 -1.5070
   42DOPE   C29 5343  -0.227   5.593  14.246 -0.2171 -0.0636 -0.5977
   42DOPE   H9R 5344  -0.160   5.609  14.159  1.3783 -1.3672  0.3299
   42DOPE  C210 5345  -0.336   5.674  14.266 -0.0067 -0.1814  0.4822
   42DOPE  H10R 5346  -0.364   5.732  14.177  2.2198  2.6287  1.4610
   42DOPE  C211 5347  -0.428   5.683  14.379  0.6584 -1.1759  0.1418
   42DOPE  H11R 5348  -0.403   5.613  14.461 -0.0331  1.2479  2.5513
   42DOPE  H11S 5349  -0.536   5.663  14.364  0.4297  0.4127 -0.4727
   42DOPE  C212 5350  -0.426   5.829  14.434  0.0960  0.4192  0.4025
   42DOPE  H12R 5351  -0.323   5.862  14.462 -0.4376  1.6242  1.0589
   42DOPE  H12S 5352  -0.460   5.826  14.540 -0.9826  0.0620  0.0519
   42DOPE  C213 5353  -0.489   5.944  14.348  0.4305 -0.3041  0.4345
   42DOPE  H13R 5354  -0.430   5.947  14.254 -0.5684  0.8414 -0.1942
   42DOPE  H13S 5355  -0.478   6.043  14.398 -0.0808  0.2071 -0.4266
   42DOPE  C214 5356  -0.637   5.925  14.300  0.0473 -0.1095  0.6022
   42DOPE  H14R 5357  -0.630   5.838  14.232  0.6543  2.1312 -2.4292
   42DOPE  H14S 5358  -0.676   6.011  14.241 -3.7838 -0.6741  2.0317
   42DOPE  C215 5359  -0.738   5.902  14.414  0.9860 -0.9988 -0.1525
   42DOPE  H15R 5360  -0.725   5.983  14.489  1.1848 -0.4365 -0.7757
   42DOPE  H15S 5361  -0.706   5.810  14.466  0.3663 -0.3912  1.3576
   42DOPE  C216 5362  -0.887   5.890  14.371 -0.5442 -0.3704  0.0448
   42DOPE  H16R 5363  -0.898   5.857  14.265 -0.2831  2.2033 -0.8389
   42DOPE  H16S 5364  -0.930   5.992  14.371 -1.2165 -0.6521  0.4201
   42DOPE  C217 5365  -0.972   5.807  14.466  0.1007 -0.5533  0.2692
   42DOPE  H17R 5366  -0.975   5.862  14.563  0.1937 -0.1055  0.0183
   42DOPE  H17S 5367  -0.922   5.710  14.486 -0.8200 -1.4053 -1.3236
   42DOPE  C218 5368  -1.115   5.787  14.416  0.4796  0.1501 -0.4162
   42DOPE  H18R 5369  -1.169   5.729  14.493 -0.0934 -0.1713 -1.0550
   42DOPE  H18S 5370  -1.113   5.721  14.326 -1.6314 -1.9984  1.0224
   42DOPE  H18T 5371  -1.173   5.881  14.402 -2.0059 -0.9506  1.8161
   42DOPE   C33 5372   0.736   5.393  14.228  0.2607  0.0968 -0.5120
   42DOPE   H3X 5373   0.750   5.483  14.165  2.2541 -0.9022 -1.6062
   42DOPE   H3Y 5374   0.775   5.305  14.173 -0.0225  1.2942 -2.7097
   42DOPE   C34 5375   0.811   5.409  14.368 -0.2364  0.3277  0.0044
   42DOPE   H4X 5376   0.919   5.415  14.341 -0.4309  0.1214 -0.8694
   42DOPE   H4Y 5377   0.771   5.507  14.402 -3.2741 -0.2584 -1.5568
   42DOPE   C35 5378   0.781   5.306  14.477  0.1096 -0.5276 -0.1493
   42DOPE   H5X 5379   0.674   5.317  14.506  0.5233  0.0117  1.2361
   42DOPE   H5Y 5380   0.835   5.328  14.571 -0.2923 -2.5824  0.6183
   42DOPE   C36 5381   0.823   5.157  14.433 -0.4902 -0.2775  0.1108
   42DOPE   H6X 5382   0.931   5.157  14.407 -0.2039 -0.2022  1.2201
   42DOPE   H6Y 5383   0.761   5.124  14.347 -0.1758 -0.4294 -0.0576
   42DOPE   C37 5384   0.804   5.058  14.554  0.2145  0.3622 -0.2906
   42DOPE   H7X 5385   0.837   4.963  14.507 -1.8208 -1.0050  0.8837
   42DOPE   H7Y 5386   0.868   5.078  14.643  0.0297 -1.4447  0.2913
   42DOPE   C38 5387   0.649   5.043  14.593  0.2165  0.4390 -0.2866
   42DOPE   H8X 5388   0.604   5.144  14.604 -2.0789 -0.3230 -1.9928
   42DOPE   H8Y 5389   0.640   5.013  14.700 -0.4593  1.9493  0.1004
   42DOPE   C39 5390   0.569   4.961  14.490  0.0344 -0.7068 -0.5540
   42DOPE   H9X 5391   0.531   5.011  14.400  0.0329 -3.0057 -1.8978
   42DOPE  C310 5392   0.543   4.834  14.501 -1.0141 -0.2312  0.4134
   42DOPE  H10X 5393   0.479   4.797  14.419  2.1614 -0.4827 -2.1896
   42DOPE  C311 5394   0.569   4.744  14.617  0.0600 -0.5112 -0.1953
   42DOPE  H11X 5395   0.654   4.674  14.603  2.4080  2.3201 -1.4053
   42DOPE  H11Y 5396   0.596   4.801  14.709  0.3677 -0.2625 -0.4367
   42DOPE  C312 5397   0.444   4.662  14.673  0.2779 -0.0584  0.1880
   42DOPE  H12X 5398   0.419   4.585  14.596  1.9466  1.2083 -1.7426
   42DOPE  H12Y 5399   0.361   4.735  14.682 -0.0682 -0.1010 -2.0499
   42DOPE  C313 5400   0.482   4.591  14.805 -0.3642  0.8771 -0.0340
   42DOPE  H13X 5401   0.581   4.542  14.792 -0.9821 -1.2165  2.3345
   42DOPE  H13Y 5402   0.489   4.670  14.883  0.7497 -2.1597  3.1586
   42DOPE  C314 5403   0.379   4.489  14.848 -0.1857  0.6158  0.0411
   42DOPE  H14X 5404   0.370   4.412  14.769  0.9840 -1.2518  1.6574
   42DOPE  H14Y 5405   0.281   4.540  14.862 -2.2504 -3.0134  0.0487
   42DOPE  C315 5406   0.415   4.422  14.987  0.3405 -0.7987  0.2005
   42DOPE  H15X 5407   0.346   4.338  15.006 -0.2459  0.2883  3.4655
   42DOPE  H15Y 5408   0.397   4.491  15.072 -0.2600  1.4906 -1.6548
   42DOPE  C316 5409   0.554   4.367  14.991  0.0889  0.7167 -0.0351
   42DOPE  H16X 5410   0.635   4.430  14.950 -0.5374  1.0886 -0.7342
   42DOPE  H16Y 5411   0.538   4.284  14.919 -1.7308  0.4690  0.6069
   42DOPE  C317 5412   0.588   4.314  15.131 -0.2934  0.2303 -0.1549
   42DOPE  H17X 5413   0.601   4.403  15.196 -2.0795  0.6762 -0.3482
   42DOPE  H17Y 5414   0.504   4.247  15.160 -0.2320 -0.4366 -1.4305
   42DOPE  C318 5415   0.704   4.211  15.132  0.6139  0.4989  0.4778
   42DOPE  H18X 5416   0.721   4.151  15.223  1.2267 -0.9705 -0.5618
   42DOPE  H18Y 5417   0.710   4.134  15.052  1.6664 -0.4824  1.4683
   42DOPE  H18Z 5418   0.800   4.265  15.114  1.1030 -0.2950  0.6752
   43DOPE     N 5419   7.623   4.560  13.490  0.0401  0.3929  0.0006
   43DOPE   HN1 5420   7.664   4.504  13.413  0.4373 -0.1889  0.6304
   43DOPE   HN2 5421   7.528   4.591  13.458  0.0462 -0.2540 -0.6720
   43DOPE   HN3 5422   7.694   4.627  13.526  3.3608 -3.3166  0.9811
   43DOPE   C12 5423   7.595   4.474  13.604 -0.0998  0.5266 -0.1892
   43DOPE  H12A 5424   7.562   4.539  13.687  1.5848  0.2087  0.7805
   43DOPE  H12B 5425   7.686   4.421  13.639 -0.2607 -0.1733 -0.7986
   43DOPE   C11 5426   7.483   4.376  13.565 -0.8808 -0.2072  0.7826
   43DOPE  H11A 5427   7.385   4.424  13.543 -0.5950  0.1067  0.1788
   43DOPE  H11B 5428   7.468   4.295  13.639  0.1240  0.3149  1.5744
   43DOPE     P 5429   7.482   4.170  13.399  0.2820  0.3830  0.0033
   43DOPE   O13 5430   7.558   4.123  13.283 -0.4811 -0.1189 -0.0572
   43DOPE   O14 5431   7.335   4.166  13.390  0.0248 -0.3277 -0.1315
   43DOPE   O11 5432   7.523   4.089  13.526 -0.0869  0.4469 -0.9820
   43DOPE   O12 5433   7.528   4.313  13.437 -0.0240 -0.0322 -0.2940
   43DOPE    C1 5434   7.654   4.081  13.582  0.0286  0.2684  0.9646
   43DOPE    HA 5435   7.657   4.075  13.693  0.2150  2.0688  1.0953
   43DOPE    HB 5436   7.717   4.167  13.550  1.4927 -1.4819 -1.1638
   43DOPE    C2 5437   7.726   3.951  13.537  0.6006 -0.3077 -0.0922
   43DOPE    HS 5438   7.734   3.954  13.426 -0.4560 -1.3775 -0.2135
   43DOPE   O21 5439   7.652   3.834  13.591 -0.1160 -0.5089  0.1469
   43DOPE   C21 5440   7.685   3.718  13.549  0.1694  0.6454  0.8579
   43DOPE   O22 5441   7.772   3.699  13.461  0.2232 -0.1827 -0.7060
   43DOPE   C22 5442   7.599   3.608  13.609  0.0894  0.1136  0.2658
   43DOPE   H2R 5443   7.539   3.582  13.519  0.8027  2.4024 -0.9474
   43DOPE   H2S 5444   7.523   3.656  13.674  0.8429  2.0728 -0.2484
   43DOPE    C3 5445   7.879   3.956  13.585  0.2713 -0.2531 -0.0848
   43DOPE    HX 5446   7.927   4.043  13.535  1.9133 -0.9371  0.2550
   43DOPE    HY 5447   7.933   3.865  13.551 -0.5209 -0.4348 -0.8769
   43DOPE   O31 5448   7.882   3.969  13.732 -0.0379  0.1343 -0.1515
   43DOPE   C31 5449   7.918   3.867  13.809  0.1888 -0.4410 -0.8431
   43DOPE   O32 5450   7.951   3.756  13.773  0.0379 -0.4089  0.3191
   43DOPE   C32 5451   7.897   3.906  13.952  0.3605  0.4478  0.3677
   43DOPE   H2X 5452   7.994   3.907  14.006 -0.1993  0.3286  1.4054
   43DOPE   H2Y 5453   7.848   4.005  13.966 -2.4819 -0.6456 -1.0891
   43DOPE   C23 5454   7.685   3.495  13.657 -0.2739 -0.0887  0.1047
   43DOPE   H3R 5455   7.764   3.534  13.726  0.9432 -3.3769  0.7552
   43DOPE   H3S 5456   7.744   3.460  13.569  0.0837  0.8491 -0.0508
   43DOPE   C24 5457   7.612   3.390  13.744 -0.1823  0.0013 -0.0994
   43DOPE   H4R 5458   7.554   3.326  13.674 -0.4420 -0.3325  0.4191
   43DOPE   H4S 5459   7.545   3.437  13.819  1.1437 -0.3738  1.3705
   43DOPE   C25 5460   7.712   3.305  13.823 -0.6803 -0.3352 -0.2712
   43DOPE   H5R 5461   7.778   3.369  13.886 -0.8907 -0.3871  0.0043
   43DOPE   H5S 5462   7.786   3.252  13.760  1.1423  0.9514  0.6872
   43DOPE   C26 5463   7.641   3.203  13.910 -0.0649  0.6390 -0.5633
   43DOPE   H6R 5464   7.586   3.134  13.842 -0.1824  2.3459 -2.2594
   43DOPE   H6S 5465   7.572   3.250  13.983  1.0683  0.8182  0.4400
   43DOPE   C27 5466   7.742   3.122  13.996 -0.1978 -0.7239  0.0866
   43DOPE   H7R 5467   7.818   3.183  14.050 -0.8020 -0.5129  0.7146
   43DOPE   H7S 5468   7.799   3.060  13.924  3.3673 -0.4707  2.4386
   43DOPE   C28 5469   7.676   3.017  14.093 -0.4274  0.3073 -0.1506
   43DOPE   H8R 5470   7.749   2.935  14.115  0.1083  1.2815  1.9248
   43DOPE   H8S 5471   7.593   2.970  14.037 -1.0181  1.0979  0.0583
   43DOPE   C29 5472   7.604   3.084  14.212  0.0174 -0.7262  0.0152
   43DOPE   H9R 5473   7.541   3.166  14.176 -0.5574 -0.8948  0.6294
   43DOPE  C210 5474   7.611   3.059  14.343 -0.1616  0.4427 -0.4475
   43DOPE  H10R 5475   7.547   3.118  14.411 -0.4945  0.1278 -0.4853
   43DOPE  C211 5476   7.690   2.944  14.400 -0.3995  0.2150 -0.2166
   43DOPE  H11R 5477   7.781   2.984  14.449  0.8651 -0.8977 -1.5784
   43DOPE  H11S 5478   7.724   2.872  14.323  0.8123 -0.6445  1.0732
   43DOPE  C212 5479   7.612   2.874  14.515 -0.6919 -0.4144  0.1786
   43DOPE  H12R 5480   7.540   2.808  14.463  3.9026 -3.2373 -3.3828
   43DOPE  H12S 5481   7.569   2.958  14.574  0.3790  0.6580 -0.5165
   43DOPE  C213 5482   7.686   2.788  14.615  0.2979 -0.3320 -0.5629
   43DOPE  H13R 5483   7.642   2.798  14.717  1.1162 -1.3452 -0.0959
   43DOPE  H13S 5484   7.790   2.822  14.630  0.2220 -1.0536  2.0727
   43DOPE  C214 5485   7.692   2.635  14.579 -0.0418  0.6539 -0.5317
   43DOPE  H14R 5486   7.733   2.638  14.476  1.2887  1.2444 -0.0070
   43DOPE  H14S 5487   7.590   2.591  14.581  0.3206 -0.2018  0.8984
   43DOPE  C215 5488   7.780   2.553  14.678  0.0138  0.4912 -0.1763
   43DOPE  H15R 5489   7.890   2.572  14.673 -0.2032  2.8141  2.0813
   43DOPE  H15S 5490   7.766   2.445  14.655  0.6687 -0.3070  2.7946
   43DOPE  C216 5491   7.751   2.573  14.832  0.1719 -0.2772 -0.0424
   43DOPE  H16R 5492   7.651   2.617  14.854  1.9619  2.9017  2.6484
   43DOPE  H16S 5493   7.823   2.650  14.866 -0.3945 -0.4420  1.6337
   43DOPE  C217 5494   7.778   2.452  14.919 -0.2826 -0.2653  0.0519
   43DOPE  H17R 5495   7.887   2.439  14.938 -0.4844 -0.3327  1.2493
   43DOPE  H17S 5496   7.727   2.364  14.875 -0.6314  0.0992 -0.2811
   43DOPE  C218 5497   7.714   2.471  15.061 -0.5601  0.3011  0.4805
   43DOPE  H18R 5498   7.738   2.566  15.113 -0.5122 -0.8227  2.6642
   43DOPE  H18S 5499   7.740   2.386  15.128 -1.2829 -0.9633 -0.7977
   43DOPE  H18T 5500   7.604   2.467  15.048 -0.6016  0.2539  0.8287
   43DOPE   C33 5501   7.813   3.798  14.022 -0.5052 -0.0663 -0.7131
   43DOPE   H3X 5502   7.808   3.834  14.127  1.2732  0.4700 -0.7909
   43DOPE   H3Y 5503   7.856   3.695  14.019 -1.3315 -0.4668  0.4176
   43DOPE   C34 5504   7.672   3.793  13.973 -0.0499 -0.2448  0.1228
   43DOPE   H4X 5505   7.617   3.869  14.032  0.8304 -0.7839  1.6938
   43DOPE   H4Y 5506   7.658   3.812  13.864  0.0293 -0.0618  0.1442
   43DOPE   C35 5507   7.592   3.669  14.002  0.3945  0.2606  0.2366
   43DOPE   H5X 5508   7.644   3.584  13.952 -1.0873 -0.3827 -0.2765
   43DOPE   H5Y 5509   7.489   3.685  13.962  0.9831  1.2750 -0.9272
   43DOPE   C36 5510   7.583   3.636  14.151 -0.0346  0.4085  0.0703
   43DOPE   H6X 5511   7.682   3.650  14.200  0.0259 -0.4467  0.2032
   43DOPE   H6Y 5512   7.553   3.529  14.151  1.2488 -0.0710  3.3962
   43DOPE   C37 5513   7.474   3.715  14.225  0.8578  0.0430 -0.7356
   43DOPE   H7X 5514   7.491   3.824  14.238  1.0516 -0.1520  0.8915
   43DOPE   H7Y 5515   7.380   3.705  14.166 -0.9354  0.2406  1.8977
   43DOPE   C38 5516   7.446   3.660  14.368  0.0989 -0.2220 -1.0312
   43DOPE   H8X 5517   7.365   3.722  14.413 -1.5049 -0.6210 -3.2032
   43DOPE   H8Y 5518   7.539   3.687  14.422 -1.0886 -0.7869  1.4695
   43DOPE   C39 5519   7.420   3.507  14.382  1.2670 -0.3275 -0.6939
   43DOPE   H9X 5520   7.334   3.474  14.322 -0.6547  1.8781  0.6943
   43DOPE  C310 5521   7.491   3.418  14.465 -0.1967 -0.4505  0.1605
   43DOPE  H10X 5522   7.459   3.312  14.465 -1.3183 -0.1335  1.0662
   43DOPE  C311 5523   7.613   3.461  14.555  0.0609 -0.1166 -0.4983
   43DOPE  H11X 5524   7.579   3.560  14.593 -2.5686 -0.6443 -1.2534
   43DOPE  H11Y 5525   7.628   3.405  14.650  1.5150  0.5150 -0.3378
   43DOPE  C312 5526   7.750   3.471  14.481 -0.1153  0.7832  0.3368
   43DOPE  H12X 5527   7.736   3.501  14.374 -1.5749 -1.4091 -0.1631
   43DOPE  H12Y 5528   7.797   3.370  14.481 -1.9453 -0.1417 -0.9786
   43DOPE  C313 5529   7.852   3.552  14.559  0.0912 -0.1989 -0.3482
   43DOPE  H13X 5530   7.854   3.512  14.663 -1.3406  1.4982  0.3855
   43DOPE  H13Y 5531   7.952   3.535  14.514  1.0071  0.8570  1.1845
   43DOPE  C314 5532   7.820   3.701  14.562  1.2554  0.3219 -0.4509
   43DOPE  H14X 5533   7.886   3.740  14.643  0.5514 -0.2581  0.4144
   43DOPE  H14Y 5534   7.714   3.733  14.574  0.1617 -1.8604 -3.2104
   43DOPE  C315 5535   7.866   3.771  14.435  0.6937  0.2150  0.6883
   43DOPE  H15X 5536   7.805   3.733  14.350  2.6130 -2.2283  0.2938
   43DOPE  H15Y 5537   7.976   3.765  14.422  0.9803  0.3278  2.7006
   43DOPE  C316 5538   7.835   3.926  14.438 -0.2987  0.1071 -0.1024
   43DOPE  H16X 5539   7.725   3.934  14.437 -0.3442 -0.5053 -0.8228
   43DOPE  H16Y 5540   7.880   3.981  14.353  3.6026  0.3147  1.8599
   43DOPE  C317 5541   7.900   4.007  14.552 -0.4539  0.1249 -0.1063
   43DOPE  H17X 5542   7.858   4.109  14.538 -5.8467 -1.6995  0.4102
   43DOPE  H17Y 5543   7.862   3.960  14.645  0.3853 -1.7903 -0.6695
   43DOPE  C318 5544   8.050   4.000  14.547 -0.2751  0.4020  0.0775
   43DOPE  H18X 5545   8.093   3.901  14.576 -0.1950  0.5759  0.5583
   43DOPE  H18Y 5546   8.089   4.016  14.444 -0.5610 -0.3893 -0.1646
   43DOPE  H18Z 5547   8.100   4.073  14.614  2.3408 -1.6345  0.5354
   44DOPE     N 5548   4.105   1.264  14.093  0.0879 -0.0391  0.1025
   44DOPE   HN1 5549   4.109   1.301  14.190 -2.3679 -1.5514  0.8703
   44DOPE   HN2 5550   4.022   1.203  14.080  1.2881 -1.8306  0.4905
   44DOPE   HN3 5551   4.191   1.213  14.065  1.7234  2.1185  0.8665
   44DOPE   C12 5552   4.099   1.391  14.011 -0.2595 -0.8433  0.1507
   44DOPE  H12A 5553   4.169   1.376  13.926 -0.4829  1.0527 -0.4137
   44DOPE  H12B 5554   4.141   1.470  14.077 -2.0318 -1.5207  2.2176
   44DOPE   C11 5555   3.958   1.448  13.966  0.4367 -0.7048 -0.1289
   44DOPE  H11A 5556   3.901   1.369  13.913 -2.0282  0.6356  0.3930
   44DOPE  H11B 5557   3.994   1.529  13.899  4.0371  0.2942  2.6819
   44DOPE     P 5558   3.785   1.612  14.075  0.1374 -0.7227 -0.3355
   44DOPE   O13 5559   3.660   1.577  14.008  0.2806  0.3851  0.0348
   44DOPE   O14 5560   3.850   1.735  14.025  0.2416 -0.1292 -0.0345
   44DOPE   O11 5561   3.739   1.647  14.221  0.1471 -0.3864 -0.1102
   44DOPE   O12 5562   3.881   1.489  14.074  0.1182  0.1361  0.2212
   44DOPE    C1 5563   3.771   1.559  14.334 -0.5663 -0.2855  0.6001
   44DOPE    HA 5564   3.750   1.616  14.427 -0.2807  1.8391 -0.5745
   44DOPE    HB 5565   3.881   1.548  14.328 -0.2544  2.6703 -1.5847
   44DOPE    C2 5566   3.695   1.423  14.339 -0.0380 -0.1883 -0.3815
   44DOPE    HS 5567   3.721   1.381  14.240 -0.0439  0.9413 -0.8754
   44DOPE   O21 5568   3.547   1.450  14.352  0.2725 -0.6477  0.4364
   44DOPE   C21 5569   3.468   1.348  14.319 -0.4119 -0.4679 -0.1844
   44DOPE   O22 5570   3.511   1.245  14.265  0.4080 -0.2142 -0.1347
   44DOPE   C22 5571   3.322   1.369  14.360 -0.5857 -0.2678 -0.4107
   44DOPE   H2R 5572   3.279   1.462  14.317  2.6167  2.2883  1.3877
   44DOPE   H2S 5573   3.318   1.379  14.471 -1.0110 -1.5314 -0.3006
   44DOPE    C3 5574   3.731   1.333  14.462  0.3924  0.4241  0.3245
   44DOPE    HX 5575   3.826   1.278  14.449  0.4110  0.7058 -0.8777
   44DOPE    HY 5576   3.664   1.244  14.469 -0.8937  1.4589  1.9663
   44DOPE   O31 5577   3.734   1.409  14.588  0.0403  0.2562 -0.3642
   44DOPE   C31 5578   3.854   1.445  14.636 -0.0883  0.5371 -0.7731
   44DOPE   O32 5579   3.966   1.403  14.600 -0.1420  0.4993 -0.1791
   44DOPE   C32 5580   3.841   1.558  14.743  0.6142 -0.1900 -0.7407
   44DOPE   H2X 5581   3.921   1.632  14.722 -0.0979  1.0634  0.7190
   44DOPE   H2Y 5582   3.741   1.606  14.739  1.5894  2.5525  2.6619
   44DOPE   C23 5583   3.240   1.244  14.325 -0.4388 -0.1721  0.1339
   44DOPE   H3R 5584   3.174   1.225  14.413  0.7237  0.1217  1.0873
   44DOPE   H3S 5585   3.304   1.154  14.314 -2.2638 -1.4325 -0.7585
   44DOPE   C24 5586   3.156   1.262  14.202  0.1227  0.0500  0.6303
   44DOPE   H4R 5587   3.214   1.244  14.109  0.3549 -1.4714  1.0472
   44DOPE   H4S 5588   3.106   1.361  14.195 -0.8239 -0.4763 -0.3808
   44DOPE   C25 5589   3.040   1.161  14.178  0.6435  0.8626  0.2250
   44DOPE   H5R 5590   3.078   1.058  14.159 -4.2359 -1.0290 -0.8343
   44DOPE   H5S 5591   2.987   1.187  14.084 -0.0406 -0.0108  0.3562
   44DOPE   C26 5592   2.932   1.145  14.295  0.1042  0.8184  0.8134
   44DOPE   H6R 5593   2.904   1.247  14.329 -0.5735  0.6480  0.7850
   44DOPE   H6S 5594   2.985   1.091  14.376  1.0523 -1.4540 -1.1762
   44DOPE   C27 5595   2.803   1.072  14.241  0.0400  0.1389  0.5986
   44DOPE   H7R 5596   2.814   0.964  14.220  0.6957  0.6665 -2.2251
   44DOPE   H7S 5597   2.785   1.121  14.143 -0.1087  1.1764  1.1251
   44DOPE   C28 5598   2.682   1.078  14.339  0.8073 -0.1563 -0.2071
   44DOPE   H8R 5599   2.712   1.027  14.434 -1.0155  1.4218  1.2969
   44DOPE   H8S 5600   2.597   1.022  14.295 -0.2453  0.6920  0.6846
   44DOPE   C29 5601   2.649   1.221  14.345  0.1996 -0.4990 -0.2656
   44DOPE   H9R 5602   2.684   1.290  14.267 -0.1207  0.0828  0.0960
   44DOPE  C210 5603   2.564   1.269  14.439 -0.5370  0.5532  1.0121
   44DOPE  H10R 5604   2.554   1.379  14.446 -0.1455  0.6053  0.7397
   44DOPE  C211 5605   2.510   1.188  14.561 -0.3740  0.2691  0.1245
   44DOPE  H11R 5606   2.582   1.111  14.599 -0.2873  0.5704  0.5854
   44DOPE  H11S 5607   2.421   1.130  14.530  0.6004 -1.4005  0.3103
   44DOPE  C212 5608   2.478   1.281  14.675 -0.0924 -0.3018 -0.4180
   44DOPE  H12R 5609   2.400   1.353  14.644 -0.9877 -0.8871  0.4063
   44DOPE  H12S 5610   2.571   1.334  14.705 -1.1127  0.7652  1.0149
   44DOPE  C213 5611   2.413   1.206  14.796 -0.7952  0.1221  0.2950
   44DOPE  H13R 5612   2.474   1.121  14.831  2.4035  1.2635 -2.0277
   44DOPE  H13S 5613   2.308   1.178  14.776 -1.0623  2.5142 -2.1242
   44DOPE  C214 5614   2.413   1.303  14.916 -0.0739 -0.2133 -0.0649
   44DOPE  H14R 5615   2.337   1.382  14.901 -0.2655 -0.4859 -0.5623
   44DOPE  H14S 5616   2.513   1.351  14.918 -0.5641  0.8016  1.3408
   44DOPE  C215 5617   2.378   1.248  15.052  0.1907  0.3675  0.3800
   44DOPE  H15R 5618   2.451   1.172  15.086 -0.0208 -0.0054  0.0036
   44DOPE  H15S 5619   2.286   1.186  15.042 -0.0442  0.8749 -0.8058
   44DOPE  C216 5620   2.354   1.357  15.159 -0.0686  0.2486  0.8426
   44DOPE  H16R 5621   2.261   1.322  15.209  0.0117 -0.4693  0.5033
   44DOPE  H16S 5622   2.351   1.450  15.099  2.7034 -1.1615 -1.7510
   44DOPE  C217 5623   2.463   1.382  15.268  0.5828  0.7725  0.6569
   44DOPE  H17R 5624   2.469   1.291  15.331  0.7866 -0.1749 -0.7027
   44DOPE  H17S 5625   2.435   1.467  15.334 -0.0767 -0.3779  1.9169
   44DOPE  C218 5626   2.594   1.426  15.199  0.1668  0.1019  0.1607
   44DOPE  H18R 5627   2.648   1.345  15.144 -1.2519  0.1593 -1.3762
   44DOPE  H18S 5628   2.662   1.463  15.279  1.4980  1.8041 -1.6904
   44DOPE  H18T 5629   2.568   1.506  15.127  2.5018  0.2649 -0.5801
   44DOPE   C33 5630   3.869   1.510  14.887 -0.5009 -0.1496  0.4697
   44DOPE   H3X 5631   3.863   1.599  14.953 -0.8506  0.1540  0.0379
   44DOPE   H3Y 5632   3.976   1.486  14.904 -1.1260 -1.8711  2.3532
   44DOPE   C34 5633   3.779   1.398  14.946 -0.4005 -0.0492  0.3823
   44DOPE   H4X 5634   3.824   1.308  14.900 -0.4765  0.1475 -0.0865
   44DOPE   H4Y 5635   3.787   1.379  15.055 -2.8564 -1.8833  0.3204
   44DOPE   C35 5636   3.627   1.404  14.916  0.2794  0.1421 -0.6884
   44DOPE   H5X 5637   3.598   1.449  14.819 -1.1599 -0.0068 -0.3492
   44DOPE   H5Y 5638   3.580   1.460  15.000  1.3320  1.0607 -0.6774
   44DOPE   C36 5639   3.563   1.257  14.919 -0.3891 -0.5552  0.4193
   44DOPE   H6X 5640   3.568   1.205  15.017 -1.2167 -1.2479  0.1127
   44DOPE   H6Y 5641   3.619   1.198  14.843  0.7353 -0.3172  1.0512
   44DOPE   C37 5642   3.412   1.238  14.884 -0.5284  0.0017  0.3505
   44DOPE   H7X 5643   3.381   1.133  14.903 -0.6684 -0.0056  0.1009
   44DOPE   H7Y 5644   3.347   1.304  14.946  2.1816  2.3110  0.9149
   44DOPE   C38 5645   3.381   1.263  14.730 -0.7379  0.0761 -0.3616
   44DOPE   H8X 5646   3.437   1.189  14.669  1.2683 -0.3264  1.8277
   44DOPE   H8Y 5647   3.424   1.359  14.696  0.8982 -1.8438 -4.3910
   44DOPE   C39 5648   3.230   1.243  14.707  0.1266 -0.2459  1.1188
   44DOPE   H9X 5649   3.177   1.337  14.687 -0.3809 -0.7913 -0.1886
   44DOPE  C310 5650   3.170   1.122  14.713  0.5523  0.3566  0.0452
   44DOPE  H10X 5651   3.063   1.107  14.695  0.0101  1.0904  2.3641
   44DOPE  C311 5652   3.230   0.982  14.731 -0.7249 -0.3246  0.0769
   44DOPE  H11X 5653   3.298   0.982  14.818 -0.7975  0.8276  0.1466
   44DOPE  H11Y 5654   3.148   0.920  14.773 -0.9065 -0.9806 -1.1752
   44DOPE  C312 5655   3.301   0.917  14.606 -0.0049 -0.0328  0.3704
   44DOPE  H12X 5656   3.380   0.991  14.581  0.5670 -1.1876 -1.4846
   44DOPE  H12Y 5657   3.238   0.918  14.514  0.9117 -0.0266 -0.2768
   44DOPE  C313 5658   3.368   0.783  14.630  0.2406 -0.3276  0.0415
   44DOPE  H13X 5659   3.429   0.788  14.723  1.1301 -0.2802 -0.5318
   44DOPE  H13Y 5660   3.295   0.704  14.659  1.1450 -0.9012  0.8369
   44DOPE  C314 5661   3.449   0.721  14.513 -0.5237  0.6062 -0.0890
   44DOPE  H14X 5662   3.506   0.810  14.480 -0.7830  2.1882  3.3036
   44DOPE  H14Y 5663   3.396   0.676  14.427  1.5145 -1.1218 -0.4943
   44DOPE  C315 5664   3.546   0.606  14.554 -0.1408 -0.3634 -0.5011
   44DOPE  H15X 5665   3.610   0.652  14.632 -2.8735 -0.7862  2.1559
   44DOPE  H15Y 5666   3.614   0.585  14.469  0.0130  0.9305 -0.7189
   44DOPE  C316 5667   3.492   0.471  14.598 -0.1645 -0.8676 -0.8243
   44DOPE  H16X 5668   3.423   0.482  14.685  0.2729 -1.1137 -0.4453
   44DOPE  H16Y 5669   3.584   0.422  14.636 -0.8639 -2.2287 -0.8338
   44DOPE  C317 5670   3.430   0.376  14.492 -0.4178 -0.3135  0.2278
   44DOPE  H17X 5671   3.498   0.382  14.404 -0.0212  0.9541  0.5992
   44DOPE  H17Y 5672   3.437   0.270  14.524 -2.2317 -0.6855 -0.4940
   44DOPE  C318 5673   3.285   0.396  14.451 -0.7180 -0.0202  0.3214
   44DOPE  H18X 5674   3.230   0.427  14.543 -1.1093 -0.0667  0.1081
   44DOPE  H18Y 5675   3.274   0.477  14.375 -2.9582 -1.5201 -1.0944
   44DOPE  H18Z 5676   3.246   0.297  14.418  0.4153 -0.1331 -0.7230
   45DOPE     N 5677   3.489   1.303  13.781 -0.2026 -0.0415  0.1850
   45DOPE   HN1 5678   3.574   1.355  13.753 -0.2482 -0.4423 -0.7429
   45DOPE   HN2 5679   3.473   1.227  13.711 -1.9852  2.8552 -2.7994
   45DOPE   HN3 5680   3.412   1.370  13.765  1.1268  1.5843  0.3414
   45DOPE   C12 5681   3.496   1.240  13.916 -0.6458 -0.5827  0.0155
   45DOPE  H12A 5682   3.441   1.143  13.915 -2.5420  0.4326  0.4998
   45DOPE  H12B 5683   3.457   1.310  13.992  1.9825  1.1533 -0.1286
   45DOPE   C11 5684   3.647   1.216  13.953 -0.1250  0.1778 -0.3077
   45DOPE  H11A 5685   3.649   1.201  14.063  0.2632  1.8533 -0.0639
   45DOPE  H11B 5686   3.710   1.304  13.929  1.2538  0.0341  2.4325
   45DOPE     P 5687   3.817   1.010  13.945 -0.2386  0.5486 -0.3740
   45DOPE   O13 5688   3.758   0.878  13.979  0.6729  0.2947  0.1260
   45DOPE   O14 5689   3.900   1.073  14.049 -0.2049 -0.5708 -0.0581
   45DOPE   O11 5690   3.917   0.987  13.820 -0.2336  0.1431  0.2145
   45DOPE   O12 5691   3.713   1.109  13.885  0.0247 -0.3695 -0.4012
   45DOPE    C1 5692   3.978   0.864  13.788  0.2997 -0.4345  0.7486
   45DOPE    HA 5693   3.987   0.859  13.677 -0.5235  2.3508  0.4706
   45DOPE    HB 5694   3.913   0.777  13.812 -0.7502  0.6034  1.7996
   45DOPE    C2 5695   4.117   0.850  13.851 -0.0560 -0.6417  0.4281
   45DOPE    HS 5696   4.157   0.753  13.815 -2.0316 -0.6646 -2.0451
   45DOPE   O21 5697   4.110   0.847  13.993  0.5676  0.0972  0.4125
   45DOPE   C21 5698   4.053   0.745  14.042 -0.0957  0.5570 -0.1970
   45DOPE   O22 5699   4.036   0.637  13.989  0.5349 -0.1614  0.1410
   45DOPE   C22 5700   4.009   0.792  14.179  0.5409  0.9578 -0.4479
   45DOPE   H2R 5701   3.907   0.833  14.165  0.3859  0.3656 -1.1411
   45DOPE   H2S 5702   4.079   0.870  14.215  0.0016  0.5664  1.5565
   45DOPE    C3 5703   4.216   0.956  13.803  0.3022 -0.0803 -0.3954
   45DOPE    HX 5704   4.165   1.051  13.834 -1.0658 -0.6451 -0.8504
   45DOPE    HY 5705   4.216   0.969  13.693  0.4020  0.8259 -0.3001
   45DOPE   O31 5706   4.343   0.943  13.861 -0.5255 -0.8327 -0.1047
   45DOPE   C31 5707   4.371   1.026  13.964 -0.0926  0.9735  0.3163
   45DOPE   O32 5708   4.295   1.099  14.020 -0.3068 -0.2181 -0.0308
   45DOPE   C32 5709   4.503   0.975  14.027  1.0025 -0.2824 -1.0145
   45DOPE   H2X 5710   4.499   0.864  14.037  1.4787 -0.2552 -0.4654
   45DOPE   H2Y 5711   4.583   1.007  13.958  0.6577  0.6692 -0.9893
   45DOPE   C23 5712   4.012   0.679  14.283 -0.6608 -0.3272  0.9509
   45DOPE   H3R 5713   4.111   0.661  14.329 -0.0069 -1.5651 -0.8479
   45DOPE   H3S 5714   3.977   0.577  14.255 -1.6127 -0.6081  2.9610
   45DOPE   C24 5715   3.925   0.720  14.399  0.2868 -0.4257 -0.2638
   45DOPE   H4R 5716   3.883   0.626  14.442 -2.1127  1.2919  1.4103
   45DOPE   H4S 5717   3.843   0.783  14.358  1.0653  0.2316 -0.8283
   45DOPE   C25 5718   3.996   0.800  14.511  0.2472 -0.2663  0.2729
   45DOPE   H5R 5719   4.043   0.887  14.461 -0.4368 -0.7827 -1.3801
   45DOPE   H5S 5720   4.079   0.742  14.555  0.2956  0.2329  0.8398
   45DOPE   C26 5721   3.893   0.856  14.614  0.0887 -0.1915  0.2272
   45DOPE   H6R 5722   3.867   0.757  14.657  0.5207 -1.2334 -1.7874
   45DOPE   H6S 5723   3.806   0.906  14.567 -0.5021 -1.4549 -0.0732
   45DOPE   C27 5724   3.964   0.942  14.719  0.2300  0.3617  0.8312
   45DOPE   H7R 5725   3.896   1.022  14.757 -1.3733 -1.2225  1.4504
   45DOPE   H7S 5726   4.047   1.003  14.677 -0.0253  0.8143  0.9714
   45DOPE   C28 5727   4.010   0.873  14.844  0.7259  0.0259 -0.6930
   45DOPE   H8R 5728   4.077   0.791  14.810 -0.2136 -1.0014 -0.1257
   45DOPE   H8S 5729   3.923   0.837  14.903 -1.1732  1.6580 -2.3313
   45DOPE   C29 5730   4.094   0.959  14.934 -0.2869 -0.0178  0.1465
   45DOPE   H9R 5731   4.202   0.968  14.912 -0.4131  2.9619  0.2821
   45DOPE  C210 5732   4.050   1.037  15.032 -0.2405  0.3646  0.0351
   45DOPE  H10R 5733   4.120   1.079  15.106 -1.2349  2.4389 -0.1152
   45DOPE  C211 5734   3.909   1.049  15.081 -0.5684  0.0909  0.4718
   45DOPE  H11R 5735   3.839   0.995  15.013 -0.2030  1.6773 -1.2540
   45DOPE  H11S 5736   3.893   1.159  15.089  0.2304  0.3296 -0.8319
   45DOPE  C212 5737   3.888   0.985  15.218 -0.1027 -0.6638  0.7912
   45DOPE  H12R 5738   3.963   1.014  15.294  1.7182 -3.4848  0.2003
   45DOPE  H12S 5739   3.875   0.875  15.219 -1.8433 -0.5002  2.0660
   45DOPE  C213 5740   3.749   1.033  15.285  0.0754 -0.8135 -0.3587
   45DOPE  H13R 5741   3.714   0.937  15.329  0.5271 -1.6736 -1.7844
   45DOPE  H13S 5742   3.687   1.063  15.198  0.6647  3.2089  0.4012
   45DOPE  C214 5743   3.757   1.129  15.398 -1.2054  0.8493 -0.2342
   45DOPE  H14R 5744   3.802   1.223  15.359 -0.3224  0.4954 -0.1071
   45DOPE  H14S 5745   3.829   1.089  15.472  0.1058  1.1306 -1.2996
   45DOPE  C215 5746   3.624   1.145  15.468 -0.1679  0.0899  0.3062
   45DOPE  H15R 5747   3.629   1.210  15.558 -2.3530 -2.0692  2.1520
   45DOPE  H15S 5748   3.584   1.049  15.507 -4.1466  0.3571 -2.4848
   45DOPE  C216 5749   3.505   1.188  15.375  0.5370 -0.2943 -0.1023
   45DOPE  H16R 5750   3.410   1.206  15.428  0.5414  0.4409 -0.3337
   45DOPE  H16S 5751   3.476   1.106  15.305 -1.3865 -0.4261  0.7843
   45DOPE  C217 5752   3.528   1.319  15.287  0.0779 -0.1030 -0.0899
   45DOPE  H17R 5753   3.613   1.314  15.214  0.2220  1.4592 -0.0709
   45DOPE  H17S 5754   3.561   1.399  15.357  1.9374  2.0787 -3.1284
   45DOPE  C218 5755   3.405   1.376  15.215 -0.7188  0.6083  0.6285
   45DOPE  H18R 5756   3.365   1.298  15.146 -0.6343  1.2997 -0.2228
   45DOPE  H18S 5757   3.444   1.466  15.162  2.3229 -1.3642 -0.7871
   45DOPE  H18T 5758   3.337   1.405  15.298 -0.9164 -2.8022  1.8283
   45DOPE   C33 5759   4.537   1.059  14.155 -0.1156 -0.2903  1.0601
   45DOPE   H3X 5760   4.514   1.166  14.139 -0.1785 -0.7148 -2.4016
   45DOPE   H3Y 5761   4.648   1.062  14.158  0.0321  0.8603 -2.0312
   45DOPE   C34 5762   4.475   1.010  14.284  0.2819 -0.1269  0.2725
   45DOPE   H4X 5763   4.479   0.900  14.270  0.2312  0.2439 -3.6320
   45DOPE   H4Y 5764   4.544   1.039  14.366  0.1489 -3.1289  1.5756
   45DOPE   C35 5765   4.335   1.065  14.318 -0.0876 -0.0454  0.2791
   45DOPE   H5X 5766   4.272   1.034  14.232  1.1966  0.4035 -0.8670
   45DOPE   H5Y 5767   4.330   1.174  14.335  0.5487 -0.2920  2.3409
   45DOPE   C36 5768   4.284   1.000  14.448 -0.3087 -0.2000  0.3873
   45DOPE   H6X 5769   4.273   0.891  14.430 -0.4887 -0.2304  0.6701
   45DOPE   H6Y 5770   4.188   1.047  14.478 -0.6016 -0.9345  0.6125
   45DOPE   C37 5771   4.383   1.025  14.570 -0.2631  0.1542  0.3408
   45DOPE   H7X 5772   4.330   0.982  14.658  1.3850 -2.4978  0.1385
   45DOPE   H7Y 5773   4.474   0.965  14.547  1.9645  3.7798 -1.0824
   45DOPE   C38 5774   4.432   1.165  14.602 -0.6460 -0.3571 -0.7379
   45DOPE   H8X 5775   4.479   1.199  14.507 -0.3477  0.5436 -0.2777
   45DOPE   H8Y 5776   4.503   1.168  14.688  1.9392  0.1079 -2.7360
   45DOPE   C39 5777   4.313   1.237  14.641 -0.2721  0.0890  0.0272
   45DOPE   H9X 5778   4.246   1.258  14.557  1.7779 -0.8478 -1.9325
   45DOPE  C310 5779   4.268   1.261  14.766 -0.5744  0.2644 -0.2853
   45DOPE  H10X 5780   4.169   1.308  14.776 -0.1139  1.2622 -0.3963
   45DOPE  C311 5781   4.336   1.233  14.894 -0.6545 -0.2237  0.1142
   45DOPE  H11X 5782   4.266   1.223  14.979  0.7007 -3.0257  1.0232
   45DOPE  H11Y 5783   4.381   1.132  14.888 -2.1865 -1.0306  1.5413
   45DOPE  C312 5784   4.432   1.354  14.931  0.2429 -0.4188 -0.4200
   45DOPE  H12X 5785   4.514   1.350  14.856  1.7439  0.7565  1.0905
   45DOPE  H12Y 5786   4.482   1.320  15.024  0.6709 -2.6927 -1.4148
   45DOPE  C313 5787   4.364   1.486  14.941 -0.6365  0.0661 -0.0536
   45DOPE  H13X 5788   4.442   1.561  14.916  0.1769 -0.8451 -0.3281
   45DOPE  H13Y 5789   4.282   1.488  14.866 -2.5991 -1.6589  1.8861
   45DOPE  C314 5790   4.305   1.523  15.075 -0.5747 -0.5694  0.0225
   45DOPE  H14X 5791   4.340   1.458  15.158  0.6791  1.5611  1.2643
   45DOPE  H14Y 5792   4.197   1.501  15.066 -0.7073  0.4030 -1.1178
   45DOPE  C315 5793   4.337   1.668  15.134 -0.2697 -0.0465  0.4514
   45DOPE  H15X 5794   4.323   1.739  15.050 -2.1186  0.7223  1.3452
   45DOPE  H15Y 5795   4.446   1.679  15.153 -0.1007  0.4365 -0.7290
   45DOPE  C316 5796   4.249   1.721  15.243 -0.2807  0.4285  0.1709
   45DOPE  H16X 5797   4.283   1.670  15.336 -0.1632  2.6600  1.4034
   45DOPE  H16Y 5798   4.140   1.697  15.241 -0.0211 -1.2941  2.4488
   45DOPE  C317 5799   4.275   1.875  15.275  1.3011  0.8228  0.1607
   45DOPE  H17X 5800   4.385   1.886  15.278  1.1746  2.9662 -1.1113
   45DOPE  H17Y 5801   4.232   1.930  15.189  1.6623 -0.7012 -1.0307
   45DOPE  C318 5802   4.215   1.928  15.401  0.8540 -0.2614  0.4501
   45DOPE  H18X 5803   4.241   1.865  15.489  1.1822 -1.0951 -0.2353
   45DOPE  H18Y 5804   4.257   2.028  15.425 -2.3833  1.6895 -1.2351
   45DOPE  H18Z 5805   4.106   1.938  15.383  1.4142  0.9940 -3.1659
   46DOPE     N 5806   4.021   6.683  12.933 -0.1771  0.3092 -0.2196
   46DOPE   HN1 5807   3.979   6.777  12.940 -1.1745 -0.1727  0.4748
   46DOPE   HN2 5808   4.103   6.683  12.997 -0.1100  2.0788 -0.2621
   46DOPE   HN3 5809   4.052   6.665  12.835  2.1295  0.4266  0.4253
   46DOPE   C12 5810   3.917   6.565  12.946 -0.5962 -0.6415  0.3384
   46DOPE  H12A 5811   3.965   6.467  12.969 -2.1596 -1.2206  1.3658
   46DOPE  H12B 5812   3.855   6.563  12.854  0.3757  1.0051 -0.3962
   46DOPE   C11 5813   3.820   6.606  13.072  0.3521 -0.6204 -0.0296
   46DOPE  H11A 5814   3.878   6.632  13.163 -1.6675  1.0338  0.8640
   46DOPE  H11B 5815   3.764   6.515  13.103  3.2240 -3.1038 -1.6083
   46DOPE     P 5816   3.752   6.869  13.049  0.1164  0.5992 -0.0994
   46DOPE   O13 5817   3.636   6.957  13.016  0.2427 -0.2722  0.0232
   46DOPE   O14 5818   3.882   6.895  12.989  0.3434 -0.0515  0.4267
   46DOPE   O11 5819   3.783   6.889  13.205  0.1696  0.0705 -0.2632
   46DOPE   O12 5820   3.721   6.711  13.048 -0.9094  0.3239  0.3376
   46DOPE    C1 5821   3.698   6.852  13.314 -0.1971  0.4898 -0.8263
   46DOPE    HA 5822   3.768   6.812  13.391 -1.2370 -1.2613 -0.7367
   46DOPE    HB 5823   3.629   6.767  13.293 -0.3218  0.1593  0.7786
   46DOPE    C2 5824   3.619   6.967  13.373 -0.4579 -0.4890  0.0926
   46DOPE    HS 5825   3.544   7.010  13.304 -0.8050 -0.1424  0.6767
   46DOPE   O21 5826   3.710   7.066  13.420  0.5355 -0.5406  0.4603
   46DOPE   C21 5827   3.676   7.190  13.423  0.4233 -0.0263 -0.2365
   46DOPE   O22 5828   3.569   7.239  13.387 -0.0934  0.0822  0.4317
   46DOPE   C22 5829   3.781   7.271  13.493  0.2509 -0.1531 -0.0619
   46DOPE   H2R 5830   3.797   7.356  13.424  0.1506 -1.3740 -1.6407
   46DOPE   H2S 5831   3.875   7.213  13.496 -0.1083 -0.8603  3.9032
   46DOPE    C3 5832   3.536   6.909  13.492  0.6708  0.2083 -0.1973
   46DOPE    HX 5833   3.595   6.843  13.559  0.4662  0.2725  0.0472
   46DOPE    HY 5834   3.462   6.840  13.446  0.6001  0.3894 -0.3554
   46DOPE   O31 5835   3.472   7.009  13.577  0.2693  0.0288 -0.0403
   46DOPE   C31 5836   3.359   7.057  13.526 -0.4523  0.4135 -0.1266
   46DOPE   O32 5837   3.295   7.012  13.433 -0.0474 -0.1368 -0.6810
   46DOPE   C32 5838   3.310   7.172  13.614  0.2559 -0.2495 -0.7510
   46DOPE   H2X 5839   3.354   7.153  13.714  0.4124 -0.5125 -0.8704
   46DOPE   H2Y 5840   3.352   7.257  13.556  1.0776 -1.8169 -2.5157
   46DOPE   C23 5841   3.725   7.323  13.630 -0.6025 -0.6473  0.0688
   46DOPE   H3R 5842   3.618   7.351  13.618 -0.3374 -0.8522 -4.9613
   46DOPE   H3S 5843   3.779   7.414  13.663  0.3563 -0.6760 -1.3623
   46DOPE   C24 5844   3.736   7.207  13.731  0.4592 -0.2455 -0.1943
   46DOPE   H4R 5845   3.844   7.183  13.740  0.6909 -0.2026 -2.2498
   46DOPE   H4S 5846   3.693   7.113  13.692 -1.9392  0.3356  0.8688
   46DOPE   C25 5847   3.656   7.227  13.858  0.6143 -0.5930 -0.1098
   46DOPE   H5R 5848   3.616   7.132  13.901  2.4391 -1.3889 -0.0839
   46DOPE   H5S 5849   3.568   7.290  13.833 -1.8493 -2.9788  1.8397
   46DOPE   C26 5850   3.733   7.303  13.967  0.5147 -0.5533 -0.2735
   46DOPE   H6R 5851   3.787   7.379  13.905  1.0402  0.4813  1.4007
   46DOPE   H6S 5852   3.811   7.244  14.019  1.9554  0.5100 -1.1456
   46DOPE   C27 5853   3.642   7.368  14.076 -0.5888  0.5490 -0.3689
   46DOPE   H7R 5854   3.581   7.290  14.124  1.3143 -0.9141 -0.2153
   46DOPE   H7S 5855   3.570   7.430  14.018 -2.3997 -1.2984 -0.1827
   46DOPE   C28 5856   3.725   7.462  14.165  0.0639  0.4133  0.5061
   46DOPE   H8R 5857   3.780   7.535  14.102  0.4478  0.1710  0.5546
   46DOPE   H8S 5858   3.814   7.405  14.200 -0.0500 -1.0598 -1.4140
   46DOPE   C29 5859   3.658   7.519  14.281 -0.2423 -0.4061  0.1040
   46DOPE   H9R 5860   3.652   7.449  14.366  0.8985 -2.3987 -1.3790
   46DOPE  C210 5861   3.624   7.652  14.299 -0.0624 -0.2984 -0.2769
   46DOPE  H10R 5862   3.595   7.677  14.402  0.6980  1.4750 -0.4556
   46DOPE  C211 5863   3.633   7.762  14.205  0.0965 -0.2934  0.5907
   46DOPE  H11R 5864   3.705   7.741  14.123  0.8183  0.3825  1.0308
   46DOPE  H11S 5865   3.677   7.846  14.262  0.0122 -0.1762  0.4831
   46DOPE  C212 5866   3.503   7.795  14.131 -0.4506  0.4062 -0.5286
   46DOPE  H12R 5867   3.480   7.711  14.062  0.8438  0.1299 -0.6526
   46DOPE  H12S 5868   3.538   7.889  14.084 -0.4268  0.4484 -0.4259
   46DOPE  C213 5869   3.379   7.831  14.210 -0.0848  0.0416 -0.2494
   46DOPE  H13R 5870   3.417   7.845  14.313 -0.6106 -0.6821  0.0534
   46DOPE  H13S 5871   3.308   7.746  14.218 -0.0102 -0.0885 -0.9009
   46DOPE  C214 5872   3.313   7.959  14.160 -0.3097  0.4692  0.3611
   46DOPE  H14R 5873   3.249   7.932  14.073  0.6471  1.1808 -0.5695
   46DOPE  H14S 5874   3.394   8.026  14.126  0.3619 -0.0033  0.9933
   46DOPE  C215 5875   3.229   8.042  14.260 -0.8601  0.4304 -0.1058
   46DOPE  H15R 5876   3.279   8.063  14.357  1.6539  0.0494 -1.2340
   46DOPE  H15S 5877   3.144   7.974  14.280 -1.5752  0.6413 -2.2425
   46DOPE  C216 5878   3.166   8.164  14.199  0.4788 -0.0870  0.4426
   46DOPE  H16R 5879   3.082   8.207  14.258 -1.5389  0.4549 -2.6014
   46DOPE  H16S 5880   3.114   8.145  14.103 -4.8735 -0.3065  3.0046
   46DOPE  C217 5881   3.258   8.288  14.173  0.0525 -0.0243  0.5312
   46DOPE  H17R 5882   3.224   8.343  14.083 -0.0604 -0.0447  0.5623
   46DOPE  H17S 5883   3.355   8.243  14.145 -0.0589  0.2800 -0.3758
   46DOPE  C218 5884   3.284   8.387  14.286  0.1023 -0.5127 -0.4019
   46DOPE  H18R 5885   3.192   8.441  14.316 -0.0224 -1.8586  1.8030
   46DOPE  H18S 5886   3.350   8.469  14.251 -1.2900 -0.0423 -2.0683
   46DOPE  H18T 5887   3.333   8.350  14.378 -2.9186  2.4244  2.6720
   46DOPE   C33 5888   3.155   7.186  13.617  0.3568  0.5513  0.6516
   46DOPE   H3X 5889   3.117   7.178  13.513 -0.4812 -0.9355  1.0482
   46DOPE   H3Y 5890   3.129   7.287  13.656  0.2346  1.1284 -0.8505
   46DOPE   C34 5891   3.078   7.080  13.697 -0.9657 -0.2209 -0.2312
   46DOPE   H4X 5892   2.976   7.122  13.709 -1.1392 -1.1739  2.1887
   46DOPE   H4Y 5893   3.084   6.981  13.647 -2.3533 -0.2209 -0.4135
   46DOPE   C35 5894   3.126   7.055  13.839  0.0377 -0.2011  0.2636
   46DOPE   H5X 5895   3.235   7.033  13.832  0.2600  1.2748 -2.4925
   46DOPE   H5Y 5896   3.072   6.964  13.871 -0.4661 -0.1249 -0.3586
   46DOPE   C36 5897   3.103   7.175  13.941 -0.5341 -0.1318  0.2838
   46DOPE   H6X 5898   2.995   7.179  13.970 -0.3046  0.8213  1.0602
   46DOPE   H6Y 5899   3.119   7.272  13.889  2.4012 -0.7560 -0.1304
   46DOPE   C37 5900   3.198   7.157  14.061  0.3673  0.2627 -0.0894
   46DOPE   H7X 5901   3.170   7.062  14.112  1.4901  0.3714  0.7796
   46DOPE   H7Y 5902   3.300   7.132  14.024  0.8278  0.4155  1.0478
   46DOPE   C38 5903   3.189   7.274  14.168  0.3210 -0.7621 -0.1448
   46DOPE   H8X 5904   3.264   7.245  14.246  1.9250  4.3010  0.5385
   46DOPE   H8Y 5905   3.086   7.264  14.209  0.2446  1.2062  0.2361
   46DOPE   C39 5906   3.241   7.401  14.107 -0.1499  0.1775  0.1915
   46DOPE   H9X 5907   3.337   7.392  14.055 -2.1564 -2.6339 -3.5791
   46DOPE  C310 5908   3.179   7.519  14.109 -0.4516 -0.1172 -0.2142
   46DOPE  H10X 5909   3.221   7.604  14.053 -0.1867 -0.7502 -1.0131
   46DOPE  C311 5910   3.047   7.541  14.173  0.2965  0.2077 -0.4635
   46DOPE  H11X 5911   2.983   7.556  14.083  1.3658  1.7847 -1.0183
   46DOPE  H11Y 5912   3.020   7.462  14.246  0.3868 -0.1484 -0.8096
   46DOPE  C312 5913   3.044   7.674  14.250 -0.2238  0.1919 -0.3967
   46DOPE  H12X 5914   3.056   7.768  14.193 -0.8161  0.1422 -0.5982
   46DOPE  H12Y 5915   3.127   7.664  14.324  0.4071  1.2167 -0.9402
   46DOPE  C313 5916   2.912   7.686  14.333 -0.2363 -0.3619  0.2209
   46DOPE  H13X 5917   2.836   7.685  14.252 -1.3253 -0.5595  1.2208
   46DOPE  H13Y 5918   2.901   7.594  14.394 -0.2869 -0.8879 -0.5629
   46DOPE  C314 5919   2.894   7.810  14.417 -0.0094 -0.2468  0.5173
   46DOPE  H14X 5920   2.785   7.808  14.437 -0.0431  1.1543  0.5530
   46DOPE  H14Y 5921   2.908   7.894  14.345  0.5981  0.5423  1.5342
   46DOPE  C315 5922   2.999   7.820  14.519 -1.1885 -0.0609 -1.0196
   46DOPE  H15X 5923   3.088   7.856  14.463 -1.3098  4.1689  1.1170
   46DOPE  H15Y 5924   3.018   7.718  14.559  1.1722  0.9280  0.5586
   46DOPE  C316 5925   2.968   7.930  14.622  0.0493 -0.3708  0.5849
   46DOPE  H16X 5926   2.865   7.929  14.664 -0.6055 -0.4884 -0.9681
   46DOPE  H16Y 5927   2.969   8.019  14.555 -2.1988  0.2580  1.2875
   46DOPE  C317 5928   3.069   7.952  14.732  0.0856  0.0613  0.1035
   46DOPE  H17X 5929   3.032   8.033  14.798 -0.1515 -0.6063  0.8003
   46DOPE  H17Y 5930   3.069   7.864  14.800 -1.1510 -1.0798 -1.2821
   46DOPE  C318 5931   3.213   7.968  14.672  0.3679  0.3884  0.4868
   46DOPE  H18X 5932   3.241   7.876  14.615 -0.4367 -0.3954  1.3309
   46DOPE  H18Y 5933   3.205   8.054  14.602  1.1850  0.9281  1.0374
   46DOPE  H18Z 5934   3.289   7.993  14.749  1.7656  1.2922 -1.1138
   47DOPE     N 5935   1.796   6.115  13.179 -0.3549  0.0613 -0.1518
   47DOPE   HN1 5936   1.891   6.083  13.152 -0.2083  0.0311  0.3956
   47DOPE   HN2 5937   1.802   6.159  13.273  0.7813  0.6476 -0.4840
   47DOPE   HN3 5938   1.741   6.027  13.181 -0.1386 -0.1121 -1.2704
   47DOPE   C12 5939   1.741   6.210  13.074 -0.0574  0.9004 -0.5965
   47DOPE  H12A 5940   1.726   6.143  12.987 -1.3692 -2.3877  1.9542
   47DOPE  H12B 5941   1.823   6.282  13.053  2.7849 -2.6942 -3.1803
   47DOPE   C11 5942   1.613   6.271  13.123  0.0472  0.6974 -0.9968
   47DOPE  H11A 5943   1.565   6.333  13.045  1.2837  0.9397 -1.5866
   47DOPE  H11B 5944   1.649   6.331  13.210  0.5801  1.4036 -1.6909
   47DOPE     P 5945   1.371   6.176  13.174 -0.4343 -0.1739 -0.4249
   47DOPE   O13 5946   1.309   6.054  13.227  0.7114 -0.5460  0.2832
   47DOPE   O14 5947   1.315   6.211  13.043 -0.1527  0.1691 -0.1320
   47DOPE   O11 5948   1.340   6.294  13.286  0.3633 -0.2342 -0.5908
   47DOPE   O12 5949   1.530   6.168  13.166 -0.1115  0.3399 -0.0143
   47DOPE    C1 5950   1.407   6.269  13.412  0.4851  0.0312 -0.7738
   47DOPE    HA 5951   1.514   6.253  13.389  1.2448  2.5547  0.6233
   47DOPE    HB 5952   1.366   6.179  13.463  0.5376  1.1140  1.2942
   47DOPE    C2 5953   1.402   6.387  13.507 -0.2380 -0.7051 -0.0000
   47DOPE    HS 5954   1.471   6.371  13.593  0.8167  3.4784  0.1599
   47DOPE   O21 5955   1.258   6.405  13.545 -0.5294 -0.6403 -0.2152
   47DOPE   C21 5956   1.247   6.438  13.677 -0.5756 -0.1718 -0.0092
   47DOPE   O22 5957   1.340   6.453  13.758 -0.2141 -0.1186  0.1729
   47DOPE   C22 5958   1.100   6.431  13.716  0.2716 -0.1311  0.1590
   47DOPE   H2R 5959   1.072   6.329  13.750 -2.0019  0.7893  1.2858
   47DOPE   H2S 5960   1.026   6.451  13.636 -1.0057  0.8893  1.5316
   47DOPE    C3 5961   1.457   6.515  13.430 -0.3850 -0.7634  0.1115
   47DOPE    HX 5962   1.377   6.552  13.363  0.7325  2.5072  0.3970
   47DOPE    HY 5963   1.543   6.513  13.360  0.1349  3.0259  0.3925
   47DOPE   O31 5964   1.482   6.617  13.533 -0.1989 -0.4604 -0.0813
   47DOPE   C31 5965   1.609   6.618  13.583  0.4475  0.1711  0.5169
   47DOPE   O32 5966   1.692   6.537  13.546 -0.1035  0.3080  0.4855
   47DOPE   C32 5967   1.635   6.723  13.687  0.4134  0.0899 -0.0622
   47DOPE   H2X 5968   1.727   6.688  13.739  0.2412  1.2054  1.0305
   47DOPE   H2Y 5969   1.661   6.814  13.628 -2.4530  0.3848 -1.0255
   47DOPE   C23 5970   1.072   6.530  13.826  0.2097 -0.3600 -0.2912
   47DOPE   H3R 5971   1.143   6.526  13.911  0.5614  0.8847 -0.5113
   47DOPE   H3S 5972   0.972   6.513  13.872  0.4545 -0.9193  0.0446
   47DOPE   C24 5973   1.074   6.672  13.772 -0.3620 -0.0358 -0.5002
   47DOPE   H4R 5974   1.036   6.683  13.668  2.8091 -2.0489 -2.0259
   47DOPE   H4S 5975   1.182   6.697  13.762 -0.5646  1.3868  0.6128
   47DOPE   C25 5976   1.013   6.763  13.873  0.1150  0.4917 -0.1388
   47DOPE   H5R 5977   1.061   6.862  13.863 -2.5827  1.9596  0.5669
   47DOPE   H5S 5978   1.035   6.740  13.980  2.9618  0.5531 -0.6313
   47DOPE   C26 5979   0.863   6.792  13.851  0.5991  0.4261  0.1883
   47DOPE   H6R 5980   0.802   6.710  13.894  0.0234  1.2193  0.9053
   47DOPE   H6S 5981   0.849   6.799  13.741  2.4146 -1.5459 -0.2518
   47DOPE   C27 5982   0.806   6.912  13.932 -0.0326 -0.0533 -0.4774
   47DOPE   H7R 5983   0.856   7.001  13.890  0.3715  1.2262  2.4179
   47DOPE   H7S 5984   0.835   6.899  14.039  1.7007 -1.6172 -1.0849
   47DOPE   C28 5985   0.658   6.944  13.915  0.7916 -0.3582 -0.0114
   47DOPE   H8R 5986   0.597   6.853  13.931 -1.1444  0.8904 -0.0384
   47DOPE   H8S 5987   0.650   6.965  13.806 -1.6628  0.7804  0.3322
   47DOPE   C29 5988   0.608   7.066  13.990  0.3745  0.0954  0.2764
   47DOPE   H9R 5989   0.596   7.151  13.921 -1.0162  0.5428  1.0265
   47DOPE  C210 5990   0.573   7.081  14.118  0.0534 -0.6135  0.0135
   47DOPE  H10R 5991   0.538   7.179  14.153  3.3113  0.6109  0.1553
   47DOPE  C211 5992   0.579   6.973  14.228  1.1133 -0.4038 -0.0488
   47DOPE  H11R 5993   0.678   6.958  14.275  0.5513  0.9101  1.6369
   47DOPE  H11S 5994   0.570   6.873  14.181  0.8108  0.5312 -2.1371
   47DOPE  C212 5995   0.464   6.982  14.334  0.3281 -0.3400 -0.1292
   47DOPE  H12R 5996   0.473   6.911  14.419  0.9094 -0.1814 -0.0505
   47DOPE  H12S 5997   0.365   6.957  14.292  0.3123  0.8888 -0.8737
   47DOPE  C213 5998   0.464   7.116  14.414  0.4480  0.1563 -0.4224
   47DOPE  H13R 5999   0.496   7.194  14.342 -1.5027 -1.1027 -2.7877
   47DOPE  H13S 6000   0.534   7.114  14.500 -0.9927  0.9478  0.8227
   47DOPE  C214 6001   0.335   7.159  14.477  0.6640 -0.5955  0.9500
   47DOPE  H14R 6002   0.298   7.077  14.543 -2.7174  0.7264  0.8918
   47DOPE  H14S 6003   0.250   7.168  14.406  2.4906  3.3537 -1.0248
   47DOPE  C215 6004   0.337   7.294  14.551  0.1340  0.9750  0.8593
   47DOPE  H15R 6005   0.366   7.362  14.469 -1.7761 -1.2194 -1.8299
   47DOPE  H15S 6006   0.406   7.285  14.638 -0.1850 -1.4144  0.9438
   47DOPE  C216 6007   0.195   7.330  14.603  0.1707 -0.3209  0.0500
   47DOPE  H16R 6008   0.129   7.299  14.519 -2.5167 -0.2459  1.9865
   47DOPE  H16S 6009   0.180   7.438  14.624  0.7399 -0.0254 -1.0132
   47DOPE  C217 6010   0.159   7.263  14.730 -0.0164  0.1719 -0.4460
   47DOPE  H17R 6011   0.215   7.315  14.811  0.6749 -1.2672  0.0460
   47DOPE  H17S 6012   0.198   7.158  14.734  1.3859  0.6566 -0.7442
   47DOPE  C218 6013   0.010   7.278  14.768 -0.1598 -0.4960 -1.0179
   47DOPE  H18R 6014  -0.006   7.386  14.783 -0.1551 -0.8672  2.7440
   47DOPE  H18S 6015  -0.015   7.228  14.864 -0.7418 -2.0921 -1.9455
   47DOPE  H18T 6016  -0.060   7.253  14.686 -2.5987 -0.4446  0.9407
   47DOPE   C33 6017   1.513   6.735  13.786 -0.9204 -0.6283  0.2131
   47DOPE   H3X 6018   1.514   6.638  13.839  2.7619 -0.1502  1.2910
   47DOPE   H3Y 6019   1.417   6.750  13.732 -1.1263 -0.1885  0.6988
   47DOPE   C34 6020   1.542   6.848  13.886 -0.4913  0.3407  0.7518
   47DOPE   H4X 6021   1.554   6.940  13.825 -1.3532  0.8325  1.3021
   47DOPE   H4Y 6022   1.452   6.862  13.950 -1.3871 -0.4815 -0.2838
   47DOPE   C35 6023   1.667   6.832  13.970  0.2703 -0.2770 -0.5291
   47DOPE   H5X 6024   1.762   6.863  13.921  0.7793 -2.6619 -1.1918
   47DOPE   H5Y 6025   1.676   6.724  13.994 -0.7530 -0.5771 -1.4147
   47DOPE   C36 6026   1.644   6.923  14.097 -0.5062  0.0816  0.4151
   47DOPE   H6X 6027   1.553   6.890  14.152 -0.6632 -0.4123 -0.1399
   47DOPE   H6Y 6028   1.617   7.027  14.068 -0.3006 -0.1948 -0.8062
   47DOPE   C37 6029   1.772   6.920  14.180 -0.5026 -0.2599  0.1167
   47DOPE   H7X 6030   1.795   6.816  14.211  3.2551 -0.3791 -2.4733
   47DOPE   H7Y 6031   1.850   6.963  14.114 -0.1030 -0.6762  0.3189
   47DOPE   C38 6032   1.766   7.009  14.307 -0.0029 -0.6916  0.1207
   47DOPE   H8X 6033   1.673   6.983  14.362  0.3757 -1.9375  0.1994
   47DOPE   H8Y 6034   1.767   7.114  14.271  0.9562 -0.3486  1.0964
   47DOPE   C39 6035   1.894   7.000  14.393  0.3986 -0.3520 -0.6313
   47DOPE   H9X 6036   1.985   6.982  14.334  0.8436 -1.6601  0.3832
   47DOPE  C310 6037   1.900   6.989  14.529 -0.8621 -0.1392 -0.6198
   47DOPE  H10X 6038   2.001   6.978  14.571 -0.4584 -1.2354 -1.8376
   47DOPE  C311 6039   1.799   7.007  14.641 -0.4797  0.2912 -0.2940
   47DOPE  H11X 6040   1.801   7.108  14.686  0.7503 -0.5289  1.6363
   47DOPE  H11Y 6041   1.694   7.002  14.605 -0.3240  1.4309 -0.9536
   47DOPE  C312 6042   1.827   6.899  14.756  0.4669 -0.0666 -0.1053
   47DOPE  H12X 6043   1.928   6.915  14.799  0.8248 -1.1422 -0.5052
   47DOPE  H12Y 6044   1.810   6.800  14.708  0.3917 -0.0717 -0.0683
   47DOPE  C313 6045   1.729   6.913  14.869 -0.2674  0.3676  0.0247
   47DOPE  H13X 6046   1.737   7.013  14.917  1.1037 -0.0400  0.7059
   47DOPE  H13Y 6047   1.625   6.907  14.833 -0.0160 -2.0495 -0.4244
   47DOPE  C314 6048   1.742   6.812  14.982 -0.3129 -0.1537 -0.2571
   47DOPE  H14X 6049   1.844   6.829  15.023 -1.2619  3.1533  1.1615
   47DOPE  H14Y 6050   1.733   6.710  14.939  0.4985 -0.5658  0.5204
   47DOPE  C315 6051   1.640   6.836  15.085  0.1980  0.0671 -0.7533
   47DOPE  H15X 6052   1.543   6.804  15.042  1.1526 -0.9282 -2.2511
   47DOPE  H15Y 6053   1.623   6.944  15.105  0.8881  0.0232  0.1848
   47DOPE  C316 6054   1.666   6.749  15.212 -0.1402  0.2185  0.1000
   47DOPE  H16X 6055   1.746   6.795  15.274  0.7025 -1.4686  0.3326
   47DOPE  H16Y 6056   1.693   6.646  15.181  0.0172  0.8502 -2.0275
   47DOPE  C317 6057   1.539   6.744  15.306 -0.2122  0.3720  0.5976
   47DOPE  H17X 6058   1.577   6.680  15.388  4.3877 -0.8222 -2.1024
   47DOPE  H17Y 6059   1.522   6.847  15.342 -2.1565  0.0030  0.8565
   47DOPE  C318 6060   1.420   6.678  15.241  0.0249  0.1479  0.3613
   47DOPE  H18X 6061   1.368   6.629  15.326 -0.4769 -1.9685 -1.0883
   47DOPE  H18Y 6062   1.357   6.756  15.194 -0.1270  0.0686  0.4335
   47DOPE  H18Z 6063   1.460   6.601  15.171  0.2650  2.5978 -2.3766
   48DOPE     N 6064   6.040   2.962  13.121  0.1347 -0.0840  0.6110
   48DOPE   HN1 6065   6.119   2.984  13.185  0.5947 -0.8908  0.3367
   48DOPE   HN2 6066   6.070   3.009  13.033  0.6839  0.1905  0.9319
   48DOPE   HN3 6067   5.953   3.012  13.149  1.0306  1.2287  1.1894
   48DOPE   C12 6068   6.027   2.809  13.131  0.1083  0.6108  0.5281
   48DOPE  H12A 6069   6.129   2.764  13.131 -1.2743 -2.8112  1.0350
   48DOPE  H12B 6070   5.972   2.782  13.038  0.0739  1.2207  0.3722
   48DOPE   C11 6071   5.958   2.755  13.258  0.6502 -0.4989  0.0284
   48DOPE  H11A 6072   6.019   2.773  13.349 -3.8000 -1.4791  3.5421
   48DOPE  H11B 6073   5.932   2.647  13.254  2.1844 -1.0059  2.2300
   48DOPE     P 6074   5.732   2.789  13.361  0.2590 -0.0828  0.2655
   48DOPE   O13 6075   5.609   2.741  13.293 -0.3157 -0.3095  0.3126
   48DOPE   O14 6076   5.704   2.909  13.443 -0.2698  0.3765 -0.1670
   48DOPE   O11 6077   5.798   2.674  13.445 -0.0111  0.1555 -0.4213
   48DOPE   O12 6078   5.842   2.827  13.272  0.9080 -0.1670  0.1981
   48DOPE    C1 6079   5.707   2.600  13.530  0.2920  0.4066 -0.4407
   48DOPE    HA 6080   5.760   2.512  13.576 -3.6756 -1.9539  0.0708
   48DOPE    HB 6081   5.632   2.549  13.466  3.0704 -3.1870 -1.2374
   48DOPE    C2 6082   5.651   2.681  13.651 -0.1198 -0.0752  0.2126
   48DOPE    HS 6083   5.596   2.767  13.607  0.6524  1.6582  2.5001
   48DOPE   O21 6084   5.766   2.724  13.737  0.0453  0.2535 -0.3310
   48DOPE   C21 6085   5.735   2.817  13.830  0.3842  0.0150  0.4173
   48DOPE   O22 6086   5.627   2.880  13.836  0.5702  0.0368  0.2146
   48DOPE   C22 6087   5.863   2.841  13.908  0.2586 -0.2090 -0.0914
   48DOPE   H2R 6088   5.936   2.898  13.849  1.0024 -0.7970  0.2389
   48DOPE   H2S 6089   5.912   2.743  13.925 -0.2701 -0.3863  0.4694
   48DOPE    C3 6090   5.552   2.598  13.736 -0.1629 -0.0876  0.0269
   48DOPE    HX 6091   5.479   2.540  13.674 -0.6425  1.3573 -0.8136
   48DOPE    HY 6092   5.486   2.671  13.788 -2.5308 -1.2231 -1.2127
   48DOPE   O31 6093   5.621   2.512  13.828  0.2182  0.3258 -0.2434
   48DOPE   C31 6094   5.545   2.453  13.913  0.6415  0.0586 -0.6271
   48DOPE   O32 6095   5.424   2.459  13.919  0.4453 -0.2499 -0.3590
   48DOPE   C32 6096   5.628   2.385  14.027  0.0439  0.5258  0.6675
   48DOPE   H2X 6097   5.548   2.334  14.086  0.8773 -0.6273  0.8381
   48DOPE   H2Y 6098   5.697   2.309  13.984 -1.2687 -0.8312  0.8435
   48DOPE   C23 6099   5.819   2.896  14.037  0.4006  0.1993 -0.4634
   48DOPE   H3R 6100   5.747   2.827  14.086  0.6240 -0.2768 -0.7885
   48DOPE   H3S 6101   5.769   2.993  14.017 -0.3689 -0.4778 -2.0075
   48DOPE   C24 6102   5.932   2.916  14.135 -0.4279 -0.2493 -0.8420
   48DOPE   H4R 6103   6.021   2.969  14.094  0.2266  1.2882  2.2442
   48DOPE   H4S 6104   5.961   2.819  14.180 -0.5797  0.5621  1.0749
   48DOPE   C25 6105   5.902   3.006  14.262 -0.6526 -0.8711  0.2025
   48DOPE   H5R 6106   5.813   2.956  14.306 -1.0536 -0.0156  0.3712
   48DOPE   H5S 6107   5.859   3.101  14.225  1.0431  0.1534  0.7743
   48DOPE   C26 6108   6.013   3.042  14.359 -0.2813  0.2156 -0.1647
   48DOPE   H6R 6109   6.091   3.098  14.303  0.4857  1.7553  2.2712
   48DOPE   H6S 6110   6.067   2.950  14.392 -1.3492 -1.2044 -2.1623
   48DOPE   C27 6111   5.968   3.125  14.484 -0.4535  0.0298  0.3522
   48DOPE   H7R 6112   5.900   3.073  14.556  0.7153  0.4121  1.7889
   48DOPE   H7S 6113   5.912   3.204  14.430  1.1428  0.7908 -0.2487
   48DOPE   C28 6114   6.087   3.192  14.547  0.2720  0.0255  0.1000
   48DOPE   H8R 6115   6.132   3.278  14.493  1.1067 -0.3022  0.2690
   48DOPE   H8S 6116   6.171   3.122  14.566  1.2354  1.5887  1.9164
   48DOPE   C29 6117   6.050   3.255  14.677 -0.3944 -0.2661 -0.1832
   48DOPE   H9R 6118   6.043   3.364  14.670  0.6485 -0.2061 -0.4497
   48DOPE  C210 6119   6.043   3.192  14.796 -0.1310  0.4363  0.0696
   48DOPE  H10R 6120   6.013   3.250  14.884  0.0601 -1.0231  1.1456
   48DOPE  C211 6121   6.052   3.042  14.822  0.8590 -0.7769  0.4037
   48DOPE  H11R 6122   6.074   3.000  14.722  0.2653 -0.9255  0.3338
   48DOPE  H11S 6123   5.951   3.018  14.861  0.1706  1.4656  0.1953
   48DOPE  C212 6124   6.156   2.996  14.914  0.2580 -0.0472 -0.5752
   48DOPE  H12R 6125   6.115   3.016  15.016 -0.5363 -1.6036 -0.5670
   48DOPE  H12S 6126   6.252   3.051  14.903  0.8527 -0.5238  1.6776
   48DOPE  C213 6127   6.185   2.848  14.898 -0.7375  1.1161 -0.5065
   48DOPE  H13R 6128   6.262   2.836  14.819 -1.2933 -3.0273 -0.6518
   48DOPE  H13S 6129   6.088   2.802  14.867 -1.2876  2.2256 -0.4590
   48DOPE  C214 6130   6.239   2.783  15.029 -1.0348  0.3672  0.4756
   48DOPE  H14R 6131   6.166   2.802  15.109  0.0493  0.9407  1.3554
   48DOPE  H14S 6132   6.332   2.841  15.049 -0.7754 -0.2900  1.2090
   48DOPE  C215 6133   6.258   2.634  15.010  1.5004 -0.0675  0.4272
   48DOPE  H15R 6134   6.339   2.614  14.937  0.1937  1.9911 -1.7268
   48DOPE  H15S 6135   6.170   2.581  14.967  0.7657 -0.7214  2.5815
   48DOPE  C216 6136   6.279   2.566  15.148 -0.1340  0.1990 -0.0450
   48DOPE  H16R 6137   6.205   2.603  15.223  0.0170 -2.5897  1.6170
   48DOPE  H16S 6138   6.375   2.606  15.186  0.4992 -0.3652 -0.9962
   48DOPE  C217 6139   6.294   2.408  15.145  0.2917 -0.4707  0.4464
   48DOPE  H17R 6140   6.376   2.384  15.075  0.4674 -0.3042  0.5913
   48DOPE  H17S 6141   6.200   2.368  15.101 -1.2768  1.9760  1.3720
   48DOPE  C218 6142   6.305   2.337  15.283  0.4653 -0.1886 -0.3642
   48DOPE  H18R 6143   6.298   2.227  15.276  0.0729 -0.3026  1.3372
   48DOPE  H18S 6144   6.220   2.364  15.349  1.8038 -0.3059  1.5109
   48DOPE  H18T 6145   6.396   2.354  15.345 -0.9189  0.2012  1.6650
   48DOPE   C33 6146   5.700   2.472  14.130  0.1181 -0.2297 -0.4380
   48DOPE   H3X 6147   5.631   2.549  14.172 -0.5086  0.1121 -2.0251
   48DOPE   H3Y 6148   5.770   2.543  14.081  0.2995  1.4241  2.0115
   48DOPE   C34 6149   5.768   2.385  14.235  0.8483 -1.2666  0.5346
   48DOPE   H4X 6150   5.837   2.316  14.180 -1.5700 -0.5763 -3.8327
   48DOPE   H4Y 6151   5.839   2.448  14.292 -0.1290 -2.5595  3.3675
   48DOPE   C35 6152   5.671   2.314  14.332 -0.8720  0.7398  0.9376
   48DOPE   H5X 6153   5.729   2.243  14.394 -1.1544  0.3987  0.8109
   48DOPE   H5Y 6154   5.601   2.252  14.272  0.7681  0.6606 -0.9793
   48DOPE   C36 6155   5.590   2.406  14.419 -0.5575  0.1165 -0.5060
   48DOPE   H6X 6156   5.509   2.445  14.354  0.3196  0.2516 -1.5533
   48DOPE   H6Y 6157   5.643   2.501  14.441 -1.8587  0.9796 -0.9877
   48DOPE   C37 6158   5.551   2.333  14.557 -0.0599 -0.2822  0.5186
   48DOPE   H7X 6159   5.507   2.231  14.546 -1.9834  0.3064  2.0999
   48DOPE   H7Y 6160   5.643   2.321  14.617 -1.0485 -0.0413  2.1540
   48DOPE   C38 6161   5.458   2.419  14.640  0.4191 -0.1965 -0.4136
   48DOPE   H8X 6162   5.375   2.439  14.568  1.2368 -0.6034 -1.4876
   48DOPE   H8Y 6163   5.508   2.514  14.667 -1.6235  1.1879 -1.1883
   48DOPE   C39 6164   5.402   2.358  14.766  0.3389 -0.0934  0.6016
   48DOPE   H9X 6165   5.302   2.314  14.755  0.2403  0.0558  0.9057
   48DOPE  C310 6166   5.471   2.354  14.881 -0.7773  0.3294  0.0573
   48DOPE  H10X 6167   5.428   2.302  14.968 -0.0588  2.2600  1.6236
   48DOPE  C311 6168   5.608   2.405  14.917 -0.0469  0.1450 -0.5607
   48DOPE  H11X 6169   5.663   2.417  14.821 -0.5836 -0.6807 -0.9786
   48DOPE  H11Y 6170   5.609   2.503  14.969 -1.6799  0.0049 -0.2029
   48DOPE  C312 6171   5.673   2.299  15.004  0.5655 -0.1980 -0.3282
   48DOPE  H12X 6172   5.715   2.215  14.946  2.0749  0.5238 -0.3423
   48DOPE  H12Y 6173   5.611   2.255  15.085  1.1856  0.1545  0.3500
   48DOPE  C313 6174   5.800   2.362  15.066 -0.6338 -0.1537 -0.8438
   48DOPE  H13X 6175   5.845   2.408  14.975 -1.0948  0.0921 -0.9497
   48DOPE  H13Y 6176   5.779   2.441  15.141  1.1401 -0.7262  0.3252
   48DOPE  C314 6177   5.900   2.254  15.119 -0.4049  0.8032  0.2861
   48DOPE  H14X 6178   5.987   2.308  15.163 -1.4542  2.1968  0.7133
   48DOPE  H14Y 6179   5.934   2.193  15.033 -1.5147  0.7668 -0.1339
   48DOPE  C315 6180   5.856   2.177  15.236  0.5552  0.1922  0.2583
   48DOPE  H15X 6181   5.749   2.149  15.234  1.2840 -3.1747  1.9786
   48DOPE  H15Y 6182   5.875   2.241  15.325 -1.7314 -2.1923  2.6408
   48DOPE  C316 6183   5.953   2.060  15.257 -0.1314 -0.2450  0.0372
   48DOPE  H16X 6184   6.054   2.088  15.221  0.2851 -0.0797  1.2659
   48DOPE  H16Y 6185   5.921   1.972  15.198  1.9242 -1.7080  0.9989
   48DOPE  C317 6186   5.965   2.017  15.399 -0.1886  0.4610 -0.4354
   48DOPE  H17X 6187   5.866   2.006  15.447  1.3784  1.3789  3.4128
   48DOPE  H17Y 6188   6.011   1.916  15.403 -1.1388 -0.1126 -2.6423
   48DOPE  C318 6189   6.048   2.113  15.488  0.1940  0.1833  0.4855
   48DOPE  H18X 6190   6.050   2.059  15.585 -0.3796 -1.4167 -0.3559
   48DOPE  H18Y 6191   6.148   2.123  15.440 -1.6345  1.7693 -3.4945
   48DOPE  H18Z 6192   6.006   2.216  15.494 -4.4864 -1.4503 -0.0344
   49DOPE     N 6193   7.513   7.415  13.016 -0.4196 -0.1518 -0.2376
   49DOPE   HN1 6194   7.422   7.454  12.985  0.3478  1.8682 -0.1106
   49DOPE   HN2 6195   7.516   7.312  13.007  2.0030 -0.2087  0.6040
   49DOPE   HN3 6196   7.511   7.424  13.120 -1.4574  1.8980 -0.3817
   49DOPE   C12 6197   7.613   7.504  12.951  0.3644 -0.0964  0.4533
   49DOPE  H12A 6198   7.583   7.610  12.961 -1.6561 -0.6096  0.2513
   49DOPE  H12B 6199   7.609   7.493  12.840  0.3539  0.9420  0.3435
   49DOPE   C11 6200   7.758   7.484  12.997 -0.1818  0.0964  0.5290
   49DOPE  H11A 6201   7.820   7.564  12.952 -1.1967 -0.6289 -2.3844
   49DOPE  H11B 6202   7.792   7.387  12.955 -0.4629 -0.0655  0.6663
   49DOPE     P 6203   7.898   7.430  13.200  0.0062  0.0397 -0.2345
   49DOPE   O13 6204   7.927   7.292  13.139  0.2388 -0.0580 -0.4913
   49DOPE   O14 6205   7.884   7.432  13.352 -0.1048 -0.4915  0.4276
   49DOPE   O11 6206   8.000   7.542  13.152  0.1661 -0.2559  0.0650
   49DOPE   O12 6207   7.759   7.482  13.137 -0.1034  0.1905 -0.1113
   49DOPE    C1 6208   7.955   7.680  13.166  0.3997  0.6542  0.0130
   49DOPE    HA 6209   7.865   7.685  13.231 -2.2032 -1.9153 -3.0088
   49DOPE    HB 6210   7.918   7.720  13.069 -0.1429  0.3257  0.0794
   49DOPE    C2 6211   8.061   7.776  13.231  0.6429  0.3954  0.7215
   49DOPE    HS 6212   8.154   7.771  13.171  0.0532  0.7988 -0.2633
   49DOPE   O21 6213   8.076   7.731  13.367  0.1323  0.4353 -0.1783
   49DOPE   C21 6214   8.196   7.662  13.394  1.0609 -0.4208  0.0496
   49DOPE   O22 6215   8.275   7.630  13.310  0.2576 -0.0912  0.5138
   49DOPE   C22 6216   8.198   7.628  13.541  0.0039 -0.1781 -0.7057
   49DOPE   H2R 6217   8.276   7.549  13.549  0.0398 -0.0390  0.3872
   49DOPE   H2S 6218   8.099   7.586  13.565  0.4764 -0.6197  0.5632
   49DOPE    C3 6219   8.026   7.929  13.221 -0.1382  0.3210  0.6805
   49DOPE    HX 6220   7.938   7.959  13.281 -0.6565  0.7677 -0.2673
   49DOPE    HY 6221   8.004   7.958  13.115 -1.4404 -0.3985  0.7298
   49DOPE   O31 6222   8.150   8.002  13.264 -0.1436 -0.7198 -0.0045
   49DOPE   C31 6223   8.141   8.044  13.388  0.4972  0.1650 -0.1524
   49DOPE   O32 6224   8.054   8.017  13.472  0.0451  0.4461  0.3687
   49DOPE   C32 6225   8.258   8.135  13.417  0.1026 -0.0536 -0.2784
   49DOPE   H2X 6226   8.347   8.091  13.367  2.1973  0.7802  2.4663
   49DOPE   H2Y 6227   8.228   8.232  13.372 -1.5912 -0.8754 -0.9992
   49DOPE   C23 6228   8.235   7.748  13.633 -0.0890  0.2068  0.3016
   49DOPE   H3R 6229   8.149   7.817  13.648 -0.3739 -0.3084  1.1389
   49DOPE   H3S 6230   8.319   7.813  13.601  2.1293 -2.2408  0.7661
   49DOPE   C24 6231   8.270   7.701  13.771  0.5596 -0.2169  0.0025
   49DOPE   H4R 6232   8.350   7.625  13.775 -0.1378 -0.9076  2.2025
   49DOPE   H4S 6233   8.174   7.664  13.814  0.5863  2.2644  2.4597
   49DOPE   C25 6234   8.316   7.824  13.855 -0.3484  0.2907 -0.8088
   49DOPE   H5R 6235   8.252   7.909  13.825 -0.1814  0.8460  0.3899
   49DOPE   H5S 6236   8.419   7.846  13.820 -0.2041  0.5364 -0.2348
   49DOPE   C26 6237   8.314   7.808  14.007  0.1069  0.2775 -0.4300
   49DOPE   H6R 6238   8.347   7.906  14.048 -0.0044  0.1004  0.0855
   49DOPE   H6S 6239   8.397   7.743  14.041  1.1806  1.3172 -0.9891
   49DOPE   C27 6240   8.185   7.749  14.067  0.2327 -0.2853  0.4244
   49DOPE   H7R 6241   8.212   7.712  14.168  0.6231 -1.1315  0.0170
   49DOPE   H7S 6242   8.167   7.658  14.007  1.2715 -1.9756  2.5268
   49DOPE   C28 6243   8.068   7.838  14.090  0.1984 -0.2609  0.2949
   49DOPE   H8R 6244   8.045   7.877  13.989  2.1453  3.2343  1.0482
   49DOPE   H8S 6245   8.082   7.933  14.146 -4.4762  0.1034  1.1852
   49DOPE   C29 6246   7.956   7.768  14.153 -0.6151  0.7168  0.4857
   49DOPE   H9R 6247   7.897   7.718  14.074  2.6386  0.7746 -2.1701
   49DOPE  C210 6248   7.926   7.761  14.285 -1.2316  0.1994 -0.2737
   49DOPE  H10R 6249   7.837   7.702  14.312 -0.5086  0.1781  2.4262
   49DOPE  C211 6250   7.999   7.819  14.404 -0.6420  0.2155 -0.0712
   49DOPE  H11R 6251   8.090   7.874  14.371  1.3904 -2.4546  0.7518
   49DOPE  H11S 6252   8.035   7.730  14.460  1.4360 -0.6244 -2.5256
   49DOPE  C212 6253   7.911   7.912  14.481 -0.3420  0.5586 -0.9210
   49DOPE  H12R 6254   7.830   7.857  14.534  0.5423  0.1793  0.0650
   49DOPE  H12S 6255   7.860   7.984  14.414 -1.9785  0.4633  0.1451
   49DOPE  C213 6256   7.983   7.998  14.586  0.4236 -0.1153 -0.6245
   49DOPE  H13R 6257   8.041   8.069  14.524 -0.2839 -1.2850 -2.7444
   49DOPE  H13S 6258   8.048   7.939  14.654 -0.6357 -0.9218 -0.2666
   49DOPE  C214 6259   7.888   8.083  14.670  0.5255 -0.0415  0.3406
   49DOPE  H14R 6260   7.812   8.142  14.614  1.6529  0.6307 -0.5145
   49DOPE  H14S 6261   7.952   8.167  14.706 -0.3087  2.1640 -2.8505
   49DOPE  C215 6262   7.823   8.024  14.794  0.1346  0.3402 -0.2728
   49DOPE  H15R 6263   7.762   7.933  14.775  2.2075 -0.9639 -1.0557
   49DOPE  H15S 6264   7.755   8.102  14.833 -1.0510 -0.7880 -0.0166
   49DOPE  C216 6265   7.921   7.995  14.908 -0.0731  0.0893 -0.2004
   49DOPE  H16R 6266   7.971   8.090  14.938 -2.3678  1.8325 -1.5858
   49DOPE  H16S 6267   8.002   7.929  14.869  1.8013  2.4639 -0.6048
   49DOPE  C217 6268   7.849   7.939  15.031 -0.1420  0.2769  0.8132
   49DOPE  H17R 6269   7.793   7.847  15.005 -0.4408  0.5985  0.3204
   49DOPE  H17S 6270   7.781   8.017  15.073  1.3911  1.8380  0.5057
   49DOPE  C218 6271   7.943   7.897  15.141  0.5141  0.7335 -0.5216
   49DOPE  H18R 6272   7.877   7.865  15.225 -0.6878  3.8823 -0.1245
   49DOPE  H18S 6273   7.982   7.995  15.178 -0.2837  2.0032 -2.8361
   49DOPE  H18T 6274   8.016   7.819  15.111 -0.7289 -0.8062  0.3097
   49DOPE   C33 6275   8.289   8.152  13.567  0.0856  0.7736  0.5297
   49DOPE   H3X 6276   8.337   8.058  13.602 -1.1953  0.6866  2.1603
   49DOPE   H3Y 6277   8.192   8.169  13.617 -0.5321  1.5402 -0.8544
   49DOPE   C34 6278   8.389   8.265  13.606 -0.0922  0.1017 -0.0012
   49DOPE   H4X 6279   8.487   8.225  13.572 -1.8411 -2.7313 -2.1996
   49DOPE   H4Y 6280   8.357   8.359  13.556  0.9810  0.3601 -0.2323
   49DOPE   C35 6281   8.390   8.283  13.756 -0.4108  0.5115 -0.7301
   49DOPE   H5X 6282   8.411   8.181  13.794 -0.1426  1.5516  2.2167
   49DOPE   H5Y 6283   8.290   8.321  13.788 -0.4329 -1.3288  1.7322
   49DOPE   C36 6284   8.499   8.379  13.809  0.0403  0.1857 -0.4071
   49DOPE   H6X 6285   8.455   8.480  13.816 -2.8926 -1.0325  0.2537
   49DOPE   H6Y 6286   8.586   8.380  13.740  0.4429  1.4612  0.0931
   49DOPE   C37 6287   8.553   8.345  13.948  0.8820  0.4147 -0.1799
   49DOPE   H7X 6288   8.462   8.354  14.011  1.0669 -2.1677  0.5877
   49DOPE   H7Y 6289   8.602   8.246  13.960  0.5327  0.4372  1.7905
   49DOPE   C38 6290   8.647   8.446  14.007  0.6334  0.0424 -0.8349
   49DOPE   H8X 6291   8.682   8.388  14.095  0.6530  0.8969 -0.2598
   49DOPE   H8Y 6292   8.590   8.533  14.045 -1.4503 -1.1866 -1.0130
   49DOPE   C39 6293   8.775   8.475  13.932 -0.3552  0.5824  0.9816
   49DOPE   H9X 6294   8.809   8.380  13.888 -1.8554  0.4886 -0.0379
   49DOPE  C310 6295   8.844   8.586  13.913 -0.3742 -0.2089 -0.5132
   49DOPE  H10X 6296   8.932   8.578  13.847  0.4792  1.1767  0.4026
   49DOPE  C311 6297   8.820   8.722  13.969 -0.4079 -0.3284 -0.2020
   49DOPE  H11X 6298   8.805   8.802  13.894  1.4035 -0.1751 -0.4249
   49DOPE  H11Y 6299   8.726   8.726  14.028  0.4486 -2.3875  1.4504
   49DOPE  C312 6300   8.927   8.749  14.069 -0.3037 -0.5254  0.2478
   49DOPE  H12X 6301   8.963   8.663  14.129 -0.2076  0.2507  1.3370
   49DOPE  H12Y 6302   8.896   8.818  14.151  1.7560 -0.7679  1.2902
   49DOPE  C313 6303   9.040   8.823  13.988  0.0175 -0.1638  0.1639
   49DOPE  H13X 6304   9.084   8.759  13.909  0.7534  1.1915 -0.5636
   49DOPE  H13Y 6305   8.978   8.897  13.933  0.1437 -0.6517 -0.6423
   49DOPE  C314 6306   9.148   8.898  14.063 -0.1077 -0.2379 -0.1402
   49DOPE  H14X 6307   9.103   8.992  14.100 -0.5140 -0.1450 -0.8408
   49DOPE  H14Y 6308   9.221   8.931  13.986 -0.0844 -0.8884 -0.4022
   49DOPE  C315 6309   9.223   8.813  14.164 -0.3520  0.5370  0.0320
   49DOPE  H15X 6310   9.244   8.715  14.116  2.4565  0.8602  0.4186
   49DOPE  H15Y 6311   9.166   8.804  14.258 -2.0245  0.0927 -0.9829
   49DOPE  C316 6312   9.364   8.860  14.213  0.4674 -0.8657  1.0118
   49DOPE  H16X 6313   9.440   8.861  14.132  0.6300 -3.7696  1.0425
   49DOPE  H16Y 6314   9.402   8.786  14.286  1.5678 -2.6517 -1.2467
   49DOPE  C317 6315   9.354   9.002  14.271  0.4127 -0.4599 -0.2629
   49DOPE  H17X 6316   9.318   9.074  14.195  0.8578  1.1653  1.0121
   49DOPE  H17Y 6317   9.283   9.000  14.356  0.0504  1.0042 -0.5017
   49DOPE  C318 6318   9.498   9.047  14.312 -0.2413  0.0619  0.0469
   49DOPE  H18X 6319   9.491   9.143  14.369 -0.6002 -0.1828  0.4199
   49DOPE  H18Y 6320   9.551   8.972  14.375  1.4751 -1.0298 -2.5231
   49DOPE  H18Z 6321   9.563   9.073  14.226 -1.0421  0.8937 -0.3211
   50DOPE     N 6322   0.545   4.533  13.682 -0.8529 -0.1633 -0.0111
   50DOPE   HN1 6323   0.459   4.489  13.719 -1.0491  1.4486  1.5952
   50DOPE   HN2 6324   0.613   4.468  13.637  0.2720  1.4056 -0.6862
   50DOPE   HN3 6325   0.597   4.581  13.758  0.8859 -0.9662 -0.6358
   50DOPE   C12 6326   0.500   4.638  13.579 -0.0812 -0.3523  0.7435
   50DOPE  H12A 6327   0.595   4.662  13.526  0.1921 -1.5121  0.6633
   50DOPE  H12B 6328   0.476   4.732  13.632  2.7440  0.7647  0.2356
   50DOPE   C11 6329   0.390   4.591  13.487 -0.2423  0.6763 -0.0184
   50DOPE  H11A 6330   0.431   4.507  13.426  0.7569  0.4059  0.9721
   50DOPE  H11B 6331   0.360   4.675  13.421 -2.3375 -0.1071 -0.1220
   50DOPE     P 6332   0.179   4.637  13.635  0.6328 -0.3503  0.1098
   50DOPE   O13 6333   0.059   4.559  13.676 -0.1993 -0.1238 -0.0289
   50DOPE   O14 6334   0.152   4.760  13.546 -0.2770  0.0968  0.5255
   50DOPE   O11 6335   0.251   4.684  13.765  0.1133  0.5750  0.0158
   50DOPE   O12 6336   0.284   4.545  13.564 -0.3459 -0.1851 -0.1256
   50DOPE    C1 6337   0.272   4.818  13.793  0.0376 -0.4467  0.0161
   50DOPE    HA 6338   0.293   4.874  13.699 -0.0198  0.8286  0.7414
   50DOPE    HB 6339   0.364   4.818  13.854 -1.2988 -1.4470  2.1445
   50DOPE    C2 6340   0.162   4.893  13.873 -0.2228 -0.4352  0.0410
   50DOPE    HS 6341   0.200   4.969  13.944 -0.2782 -1.4633  1.1895
   50DOPE   O21 6342   0.076   4.802  13.950 -0.3945  0.6407  0.7416
   50DOPE   C21 6343   0.112   4.764  14.076  0.3181 -0.1764  0.8391
   50DOPE   O22 6344   0.204   4.817  14.134 -0.3692  0.0021 -0.4008
   50DOPE   C22 6345   0.005   4.665  14.130  0.6385 -0.1423  0.2025
   50DOPE   H2R 6346   0.023   4.561  14.095  2.9465  0.1377  0.3661
   50DOPE   H2S 6347  -0.091   4.712  14.101  1.1785  1.6772  1.1945
   50DOPE    C3 6348   0.061   4.969  13.788  0.3501 -0.3954  0.0765
   50DOPE    HX 6349  -0.004   4.897  13.733  2.5082 -0.9226 -1.9296
   50DOPE    HY 6350   0.118   5.018  13.706 -0.5815 -1.1603 -1.0658
   50DOPE   O31 6351  -0.006   5.072  13.874 -0.3682  0.1228  0.4148
   50DOPE   C31 6352  -0.108   5.035  13.950  0.0939 -0.1442  0.1490
   50DOPE   O32 6353  -0.164   4.927  13.936  0.2233  0.1338  0.5292
   50DOPE   C32 6354  -0.141   5.133  14.054  0.4029 -0.7289 -0.1510
   50DOPE   H2X 6355  -0.087   5.228  14.032 -0.4714 -0.4192 -1.0442
   50DOPE   H2Y 6356  -0.248   5.162  14.047  0.4034 -0.5713  0.4637
   50DOPE   C23 6357   0.004   4.670  14.280  0.7213 -0.3251 -0.7449
   50DOPE   H3R 6358  -0.102   4.687  14.311 -0.1489 -0.2610 -3.4703
   50DOPE   H3S 6359   0.057   4.755  14.328 -0.6026 -0.4653  1.0751
   50DOPE   C24 6360   0.037   4.537  14.342  0.4379  0.2293 -0.4754
   50DOPE   H4R 6361   0.146   4.524  14.327  0.4897  0.3558 -0.2245
   50DOPE   H4S 6362  -0.007   4.461  14.275 -0.9422  2.1185 -1.8193
   50DOPE   C25 6363   0.000   4.522  14.493 -0.1872  0.1086 -0.6040
   50DOPE   H5R 6364   0.011   4.415  14.521 -0.6765 -0.1812 -1.4991
   50DOPE   H5S 6365  -0.109   4.543  14.501 -0.0786  0.1559  1.0211
   50DOPE   C26 6366   0.090   4.619  14.587  0.3501 -0.2587 -0.5741
   50DOPE   H6R 6367   0.091   4.727  14.563 -2.0284 -0.4503 -1.7930
   50DOPE   H6S 6368   0.196   4.586  14.578  0.5690  0.5444 -1.0363
   50DOPE   C27 6369   0.044   4.610  14.736 -0.5563 -0.0430 -0.1134
   50DOPE   H7R 6370   0.117   4.669  14.797 -1.2763  1.6115 -0.7871
   50DOPE   H7S 6371   0.038   4.508  14.779 -0.9248 -0.0169 -0.1011
   50DOPE   C28 6372  -0.090   4.687  14.761 -0.1272  0.5219 -0.3253
   50DOPE   H8R 6373  -0.122   4.669  14.866  2.1443  1.4979  0.6164
   50DOPE   H8S 6374  -0.161   4.640  14.690  2.0261 -0.8706 -1.6867
   50DOPE   C29 6375  -0.097   4.836  14.750 -0.1675  0.0306 -0.6989
   50DOPE   H9R 6376  -0.085   4.882  14.849  1.3165 -1.1469 -0.2870
   50DOPE  C210 6377  -0.153   4.911  14.650 -0.3136  0.7168 -1.0780
   50DOPE  H10R 6378  -0.141   5.020  14.650  1.7695  0.5361 -2.0810
   50DOPE  C211 6379  -0.210   4.865  14.517 -0.0684 -0.2130 -0.3462
   50DOPE  H11R 6380  -0.217   4.755  14.510  2.2772 -0.3836 -0.9079
   50DOPE  H11S 6381  -0.144   4.896  14.433  1.5987  0.4168  1.1070
   50DOPE  C212 6382  -0.354   4.908  14.500 -0.5886  0.0007 -0.5818
   50DOPE  H12R 6383  -0.358   5.019  14.490 -1.0066  0.1601  1.0885
   50DOPE  H12S 6384  -0.418   4.888  14.589  1.0653 -0.2623  0.5937
   50DOPE  C213 6385  -0.419   4.840  14.375 -0.4677 -0.3954  0.0136
   50DOPE  H13R 6386  -0.419   4.730  14.390 -0.0595 -0.4696 -0.4967
   50DOPE  H13S 6387  -0.357   4.873  14.288  0.3749 -0.0651  0.7208
   50DOPE  C214 6388  -0.562   4.884  14.342 -0.6199 -0.3662  0.1708
   50DOPE  H14R 6389  -0.586   4.830  14.248 -0.3201  0.8473 -0.6284
   50DOPE  H14S 6390  -0.573   4.992  14.320 -1.6189 -0.3482  0.6930
   50DOPE  C215 6391  -0.667   4.856  14.446 -0.1063 -0.5320 -0.5262
   50DOPE  H15R 6392  -0.662   4.928  14.530 -0.5884 -0.2913 -0.6943
   50DOPE  H15S 6393  -0.643   4.765  14.506  1.8237  0.4158  0.2082
   50DOPE  C216 6394  -0.812   4.860  14.397  0.0823 -0.3277 -0.1128
   50DOPE  H16R 6395  -0.837   4.949  14.335 -1.1730 -0.4049  0.2625
   50DOPE  H16S 6396  -0.872   4.852  14.490 -0.6393 -1.1992 -0.6349
   50DOPE  C217 6397  -0.843   4.728  14.323  0.5684  1.0582 -0.4915
   50DOPE  H17R 6398  -0.820   4.637  14.382 -2.0740  0.8259  0.2866
   50DOPE  H17S 6399  -0.766   4.719  14.243  1.6101 -1.1174  0.6719
   50DOPE  C218 6400  -0.983   4.720  14.264 -0.2629  0.4925 -0.3444
   50DOPE  H18R 6401  -0.991   4.625  14.207 -0.4531 -0.7683  1.6792
   50DOPE  H18S 6402  -1.006   4.808  14.201 -1.7500  0.2882 -0.1209
   50DOPE  H18T 6403  -1.064   4.706  14.339  0.2926 -2.2616 -0.1373
   50DOPE   C33 6404  -0.127   5.077  14.195 -0.2692  0.5999  0.5532
   50DOPE   H3X 6405  -0.161   4.972  14.204  1.0588  0.1756  0.7328
   50DOPE   H3Y 6406  -0.180   5.138  14.272 -0.5273 -0.2929  1.1002
   50DOPE   C34 6407   0.019   5.074  14.241  0.0481 -0.1358  0.5503
   50DOPE   H4X 6408   0.059   4.971  14.254 -1.0405 -0.8861 -1.5159
   50DOPE   H4Y 6409   0.071   5.137  14.166  2.4898 -0.5930  1.7831
   50DOPE   C35 6410   0.044   5.144  14.380 -0.3838 -0.0239  0.8615
   50DOPE   H5X 6411  -0.008   5.094  14.465  0.0229  1.4313  2.0084
   50DOPE   H5Y 6412   0.004   5.247  14.371 -1.6102 -0.5389 -0.0149
   50DOPE   C36 6413   0.196   5.154  14.399 -0.4660  0.4307  0.0427
   50DOPE   H6X 6414   0.225   5.236  14.331 -0.5490  0.2870 -0.1657
   50DOPE   H6Y 6415   0.242   5.060  14.363  1.1547  0.5844  1.5932
   50DOPE   C37 6416   0.255   5.162  14.543  1.1231  0.2115  0.0822
   50DOPE   H7X 6417   0.214   5.080  14.605  1.0789  1.3222  1.5844
   50DOPE   H7Y 6418   0.359   5.142  14.511  0.8578  0.5060 -1.0193
   50DOPE   C38 6419   0.251   5.295  14.615 -0.1675 -0.6480 -0.4479
   50DOPE   H8X 6420   0.143   5.321  14.626 -0.4092 -1.0888 -1.6183
   50DOPE   H8Y 6421   0.298   5.376  14.556 -0.0006 -0.4052  0.0147
   50DOPE   C39 6422   0.325   5.291  14.747 -0.0475 -0.0021 -0.3334
   50DOPE   H9X 6423   0.280   5.221  14.819 -0.9283  0.5623 -0.3238
   50DOPE  C310 6424   0.437   5.355  14.789 -0.4070  0.8976  0.0382
   50DOPE  H10X 6425   0.480   5.319  14.883  0.1201 -2.0828 -1.2065
   50DOPE  C311 6426   0.525   5.444  14.710 -0.5481 -0.3605 -0.1844
   50DOPE  H11X 6427   0.629   5.422  14.740 -0.4473  0.3104 -0.0377
   50DOPE  H11Y 6428   0.527   5.419  14.601 -0.1683 -0.7011 -0.1037
   50DOPE  C312 6429   0.506   5.594  14.736  0.3766 -0.3563 -0.4136
   50DOPE  H12X 6430   0.519   5.606  14.845  0.1448  0.2065 -0.4452
   50DOPE  H12Y 6431   0.411   5.633  14.692  1.3020  0.6782 -1.5543
   50DOPE  C313 6432   0.627   5.674  14.679  0.7975 -0.1371  0.4943
   50DOPE  H13X 6433   0.709   5.677  14.753  0.3829  1.7189  0.9295
   50DOPE  H13Y 6434   0.659   5.629  14.582 -2.6099 -1.4613 -0.1356
   50DOPE  C314 6435   0.582   5.821  14.654  0.5268 -0.0518 -0.7230
   50DOPE  H14X 6436   0.518   5.857  14.737 -0.2621 -2.4102 -0.2149
   50DOPE  H14Y 6437   0.524   5.823  14.559 -0.0865 -0.0195 -0.3583
   50DOPE  C315 6438   0.702   5.921  14.634  0.8219 -0.8169 -0.5015
   50DOPE  H15X 6439   0.751   5.941  14.732 -0.8853 -1.1663  0.4824
   50DOPE  H15Y 6440   0.661   6.021  14.607  1.5735  0.0216  1.2972
   50DOPE  C316 6441   0.800   5.882  14.517  0.3051  0.6688  0.8062
   50DOPE  H16X 6442   0.834   5.776  14.523 -1.1335  0.1367  0.1251
   50DOPE  H16Y 6443   0.892   5.944  14.520  1.0987 -0.0955 -2.9436
   50DOPE  C317 6444   0.734   5.901  14.382  0.3784 -0.5698 -0.1258
   50DOPE  H17X 6445   0.647   5.831  14.376 -0.5427  0.5162  0.2895
   50DOPE  H17Y 6446   0.684   6.000  14.389  3.1698  0.8823  0.6469
   50DOPE  C318 6447   0.825   5.886  14.268  0.3898 -0.2997  0.4292
   50DOPE  H18X 6448   0.854   5.782  14.241 -1.1901 -0.3720 -1.2040
   50DOPE  H18Y 6449   0.784   5.936  14.177  0.0206 -1.4379 -0.0417
   50DOPE  H18Z 6450   0.924   5.932  14.288  1.0971 -0.7274 -1.8551
   51DOPE     N 6451   2.137   7.442  13.451  0.3851  0.1818 -0.0154
   51DOPE   HN1 6452   2.184   7.453  13.543  0.1560 -0.7133  0.2180
   51DOPE   HN2 6453   2.165   7.522  13.392 -2.8268 -1.6529 -4.6244
   51DOPE   HN3 6454   2.034   7.453  13.459  0.5602  1.3619  0.8054
   51DOPE   C12 6455   2.160   7.325  13.372 -0.6172  0.5853  1.0323
   51DOPE  H12A 6456   2.269   7.302  13.365 -0.8539 -0.2051 -0.5936
   51DOPE  H12B 6457   2.116   7.343  13.271 -2.1983  0.0617  1.5997
   51DOPE   C11 6458   2.084   7.195  13.420 -0.2815  0.6561  0.4658
   51DOPE  H11A 6459   2.137   7.176  13.515 -0.0685 -0.8195  0.0766
   51DOPE  H11B 6460   2.103   7.113  13.348  0.6293  2.8957 -2.0079
   51DOPE     P 6461   1.879   7.096  13.536 -0.2949  0.3749 -0.1824
   51DOPE   O13 6462   1.961   6.972  13.524  0.2403 -0.5593 -0.2767
   51DOPE   O14 6463   1.734   7.079  13.514  0.4466 -0.0705  0.0700
   51DOPE   O11 6464   1.888   7.163  13.676 -0.3899 -0.0798  0.7195
   51DOPE   O12 6465   1.937   7.203  13.436  0.1587 -0.4273 -0.2226
   51DOPE    C1 6466   1.918   7.295  13.694  0.2292  0.0487  0.5877
   51DOPE    HA 6467   1.898   7.355  13.603 -0.4091  0.2562  0.8619
   51DOPE    HB 6468   2.023   7.307  13.729  0.0957  0.8908  0.7172
   51DOPE    C2 6469   1.838   7.343  13.819  0.5515  0.1787 -0.6561
   51DOPE    HS 6470   1.849   7.453  13.829  2.3288  0.1495 -1.9095
   51DOPE   O21 6471   1.881   7.266  13.930 -0.3907  0.3009 -0.1523
   51DOPE   C21 6472   1.991   7.311  13.983  0.2993 -0.4568 -0.1556
   51DOPE   O22 6473   2.066   7.403  13.938 -0.3000  0.3222  0.3669
   51DOPE   C22 6474   2.020   7.237  14.107 -0.3513 -0.2448 -0.1226
   51DOPE   H2R 6475   2.026   7.127  14.090  0.2952 -0.5252  1.6644
   51DOPE   H2S 6476   1.936   7.258  14.177  0.4562 -1.8602  1.4286
   51DOPE    C3 6477   1.685   7.303  13.799  0.1512 -0.5617  0.8627
   51DOPE    HX 6478   1.691   7.193  13.797 -0.4418 -0.6198  1.7086
   51DOPE    HY 6479   1.651   7.324  13.695  1.5701 -1.1474  0.2596
   51DOPE   O31 6480   1.591   7.361  13.891 -0.2658 -0.1382 -0.1147
   51DOPE   C31 6481   1.474   7.304  13.894  0.5197  0.0314  0.1197
   51DOPE   O32 6482   1.442   7.207  13.827  0.1838  0.0638  0.8057
   51DOPE   C32 6483   1.396   7.380  14.001  0.4181  0.4046 -0.3267
   51DOPE   H2X 6484   1.442   7.372  14.101  1.9970  0.0916 -1.0563
   51DOPE   H2Y 6485   1.387   7.489  13.980  1.2783  0.8325  1.3725
   51DOPE   C23 6486   2.148   7.281  14.173 -0.8158 -0.0170 -0.6190
   51DOPE   H3R 6487   2.142   7.391  14.180 -2.1249 -0.0519 -0.9619
   51DOPE   H3S 6488   2.245   7.270  14.119 -0.9080  1.4997 -1.1368
   51DOPE   C24 6489   2.155   7.237  14.327 -0.0324 -0.5510  0.3490
   51DOPE   H4R 6490   2.138   7.129  14.347 -1.3782 -0.1395  1.6310
   51DOPE   H4S 6491   2.069   7.289  14.376  0.7870  0.8652  0.3348
   51DOPE   C25 6492   2.286   7.291  14.385  0.3439  0.0833 -0.7256
   51DOPE   H5R 6493   2.275   7.400  14.363 -1.2735  0.1978  0.4191
   51DOPE   H5S 6494   2.375   7.240  14.343  0.2440 -1.5089  0.8749
   51DOPE   C26 6495   2.307   7.275  14.535 -0.7259  0.2404  0.5895
   51DOPE   H6R 6496   2.395   7.337  14.563  0.6659 -0.0254 -2.7734
   51DOPE   H6S 6497   2.353   7.176  14.555  0.2019  1.0911  3.0995
   51DOPE   C27 6498   2.182   7.287  14.625  0.2303 -0.2144  0.1222
   51DOPE   H7R 6499   2.104   7.211  14.604  0.0751 -0.0968  0.2795
   51DOPE   H7S 6500   2.134   7.386  14.609 -0.1793 -0.6510 -1.5032
   51DOPE   C28 6501   2.216   7.268  14.775  0.2528 -0.4571 -0.1999
   51DOPE   H8R 6502   2.289   7.350  14.795  1.2393 -2.0364  3.4823
   51DOPE   H8S 6503   2.272   7.177  14.804  0.0810 -0.5687 -0.2155
   51DOPE   C29 6504   2.087   7.279  14.854 -0.3735 -0.8193  0.0017
   51DOPE   H9R 6505   2.031   7.369  14.825 -0.4381 -0.8871 -0.0847
   51DOPE  C210 6506   2.038   7.199  14.947  0.8251  0.5744  1.0363
   51DOPE  H10R 6507   1.939   7.221  14.990  0.1397 -0.3764  0.0042
   51DOPE  C211 6508   2.104   7.074  15.005  0.3106  0.6653  0.5600
   51DOPE  H11R 6509   2.211   7.060  14.978 -0.8984 -1.9585 -4.0776
   51DOPE  H11S 6510   2.044   6.991  14.963  2.8987 -1.2643  0.4246
   51DOPE  C212 6511   2.086   7.088  15.154 -0.1868 -0.0598 -0.2135
   51DOPE  H12R 6512   1.986   7.130  15.180  0.3869  0.1555  1.8860
   51DOPE  H12S 6513   2.161   7.157  15.199  0.4565 -0.9679  0.1231
   51DOPE  C213 6514   2.078   6.949  15.223  0.4792  0.0097 -0.9464
   51DOPE  H13R 6515   2.150   6.872  15.189 -0.3327  0.0106 -2.7671
   51DOPE  H13S 6516   1.979   6.901  15.205  0.7087 -0.5982 -0.6178
   51DOPE  C214 6517   2.113   6.969  15.380  0.2465  0.2275  0.2962
   51DOPE  H14R 6518   2.206   7.027  15.399  0.6134 -0.0607 -0.5998
   51DOPE  H14S 6519   2.132   6.870  15.425 -0.6602  0.4575  1.2279
   51DOPE  C215 6520   1.996   7.026  15.457 -0.1735 -0.7452 -0.5032
   51DOPE  H15R 6521   2.014   6.993  15.562  1.0663  3.1200  0.6890
   51DOPE  H15S 6522   1.894   7.005  15.419 -0.0717 -2.6949  0.1845
   51DOPE  C216 6523   2.005   7.180  15.482 -0.4103  0.1637 -0.0169
   51DOPE  H16R 6524   2.018   7.242  15.390  2.6648 -1.6129 -0.9251
   51DOPE  H16S 6525   2.092   7.212  15.543  1.0536 -0.3808 -1.7384
   51DOPE  C217 6526   1.876   7.231  15.549  0.6084  0.1389  0.1062
   51DOPE  H17R 6527   1.909   7.332  15.583 -0.8949 -0.0778  2.3866
   51DOPE  H17S 6528   1.848   7.166  15.634 -2.0465  1.3573  0.2649
   51DOPE  C218 6529   1.763   7.260  15.451  0.3084 -0.7070  0.2620
   51DOPE  H18R 6530   1.671   7.285  15.507  0.7969  0.2808  0.6506
   51DOPE  H18S 6531   1.747   7.173  15.384 -2.4361 -0.1578  0.0873
   51DOPE  H18T 6532   1.792   7.348  15.390 -0.9764 -1.7776 -2.0208
   51DOPE   C33 6533   1.254   7.321  14.013 -0.0752 -0.2068  0.1209
   51DOPE   H3X 6534   1.211   7.310  13.911 -4.0822  0.7122  1.5175
   51DOPE   H3Y 6535   1.181   7.391  14.060 -2.0206 -1.0889 -1.4214
   51DOPE   C34 6536   1.247   7.193  14.101  0.2880  0.4382 -0.0546
   51DOPE   H4X 6537   1.299   7.117  14.039  0.4403  0.2542  0.2901
   51DOPE   H4Y 6538   1.294   7.211  14.201  1.6328 -0.3829 -0.5156
   51DOPE   C35 6539   1.107   7.139  14.115  0.6165 -0.0117 -0.0708
   51DOPE   H5X 6540   1.117   7.037  14.156  0.1467 -1.1230 -2.5499
   51DOPE   H5Y 6541   1.055   7.128  14.017  1.0971  1.1788 -0.4823
   51DOPE   C36 6542   1.028   7.217  14.219  0.7024  0.0041 -0.3551
   51DOPE   H6X 6543   1.012   7.319  14.179  0.6109  0.0985 -0.0852
   51DOPE   H6Y 6544   1.091   7.234  14.309  0.3122 -0.0072 -0.0770
   51DOPE   C37 6545   0.897   7.140  14.253  0.0522 -0.5740 -0.2177
   51DOPE   H7X 6546   0.839   7.138  14.159 -0.9798  2.2783  0.2588
   51DOPE   H7Y 6547   0.930   7.034  14.262 -0.8992 -0.8242  0.4290
   51DOPE   C38 6548   0.821   7.184  14.383 -0.0696 -0.8423  0.2786
   51DOPE   H8X 6549   0.889   7.174  14.471  1.8070 -0.4694 -1.0737
   51DOPE   H8Y 6550   0.741   7.110  14.406 -1.8571  1.4010  1.7425
   51DOPE   C39 6551   0.757   7.320  14.379  0.3018 -0.1725  0.2312
   51DOPE   H9X 6552   0.779   7.369  14.283 -3.2141 -0.6453 -0.9395
   51DOPE  C310 6553   0.701   7.387  14.483 -0.3751  0.4808  0.2704
   51DOPE  H10X 6554   0.648   7.481  14.462  2.0462  1.8290 -0.1949
   51DOPE  C311 6555   0.709   7.335  14.621  0.1079 -0.0598 -0.2554
   51DOPE  H11X 6556   0.627   7.262  14.639 -0.6507  0.3443 -1.8721
   51DOPE  H11Y 6557   0.800   7.276  14.642  1.6970  1.6528 -2.0150
   51DOPE  C312 6558   0.695   7.451  14.730 -0.1232 -0.0650 -0.7078
   51DOPE  H12X 6559   0.681   7.398  14.827 -2.3616  0.1771 -0.8519
   51DOPE  H12Y 6560   0.602   7.507  14.705  0.0051  0.7455  0.5054
   51DOPE  C313 6561   0.798   7.562  14.725  0.1175 -0.8731 -0.2363
   51DOPE  H13X 6562   0.906   7.534  14.727  1.6432  3.7452 -2.0405
   51DOPE  H13Y 6563   0.805   7.602  14.621  2.5172  0.3874  0.3380
   51DOPE  C314 6564   0.770   7.680  14.821 -0.3114  0.2621  0.6088
   51DOPE  H14X 6565   0.665   7.712  14.803 -0.6539 -1.1604 -0.0716
   51DOPE  H14Y 6566   0.828   7.770  14.793 -1.6509  1.8683  2.7113
   51DOPE  C315 6567   0.794   7.638  14.968 -0.1161  0.1550 -0.4943
   51DOPE  H15X 6568   0.744   7.541  14.990  2.2973 -0.8524  1.0298
   51DOPE  H15Y 6569   0.740   7.720  15.020 -1.4512  1.9743 -4.3969
   51DOPE  C316 6570   0.943   7.609  15.011  1.1429  0.3135 -0.7151
   51DOPE  H16X 6571   0.971   7.522  14.947 -3.0679  0.0033 -2.5085
   51DOPE  H16Y 6572   0.947   7.585  15.119 -0.8204  0.5549 -0.5481
   51DOPE  C317 6573   1.030   7.720  14.981  0.2987 -0.5282 -0.1942
   51DOPE  H17X 6574   1.134   7.680  14.990  0.7537  0.6320 -0.1953
   51DOPE  H17Y 6575   1.016   7.758  14.877 -1.9476 -0.9979 -0.1072
   51DOPE  C318 6576   1.012   7.845  15.071  0.5514 -0.4584 -0.2077
   51DOPE  H18X 6577   1.095   7.919  15.063 -0.6850  0.8649 -1.1844
   51DOPE  H18Y 6578   0.920   7.896  15.037 -0.3321 -2.6394 -1.2376
   51DOPE  H18Z 6579   0.988   7.821  15.177 -1.6797 -2.6001 -1.1291
   52DOPE     N 6580   8.233   4.724  13.289 -0.0189  0.3720  0.1465
   52DOPE   HN1 6581   8.203   4.788  13.213 -0.5671  0.8679  0.7579
   52DOPE   HN2 6582   8.310   4.666  13.251 -1.2401 -1.0113 -0.3194
   52DOPE   HN3 6583   8.159   4.651  13.293  1.5081 -1.4010 -2.0105
   52DOPE   C12 6584   8.264   4.796  13.422  0.4492  0.3879 -0.2590
   52DOPE  H12A 6585   8.337   4.880  13.412  1.4801 -0.4012  0.3962
   52DOPE  H12B 6586   8.313   4.723  13.489  1.9801  0.5784 -1.1115
   52DOPE   C11 6587   8.137   4.866  13.475 -0.7867 -0.5794  0.2689
   52DOPE  H11A 6588   8.115   4.939  13.395  0.7501 -0.7349 -0.3328
   52DOPE  H11B 6589   8.165   4.916  13.570  0.3490 -2.2077  0.8424
   52DOPE     P 6590   7.888   4.826  13.528 -0.2282 -0.0973  0.4990
   52DOPE   O13 6591   7.822   4.712  13.585 -0.2193 -0.0963  0.1385
   52DOPE   O14 6592   7.826   4.899  13.416  0.4360  0.9267 -0.0281
   52DOPE   O11 6593   7.917   4.931  13.638 -0.3067 -0.0564 -0.1046
   52DOPE   O12 6594   8.031   4.771  13.486  0.4787  0.0653  0.1514
   52DOPE    C1 6595   7.961   4.886  13.768  0.5905 -0.3298  0.0607
   52DOPE    HA 6596   8.041   4.951  13.808  2.5258 -1.8798 -1.0918
   52DOPE    HB 6597   7.995   4.780  13.772 -2.5570 -1.4350  3.7329
   52DOPE    C2 6598   7.837   4.891  13.862  0.4661  0.1859  0.2583
   52DOPE    HS 6599   7.745   4.852  13.816  0.3004  0.9588 -0.0753
   52DOPE   O21 6600   7.819   5.025  13.910  0.0727 -0.5005 -0.1657
   52DOPE   C21 6601   7.710   5.049  13.977 -0.5353 -0.6697 -0.0005
   52DOPE   O22 6602   7.620   4.971  13.993  0.0794  0.3666  0.3416
   52DOPE   C22 6603   7.710   5.197  14.030  0.1360 -0.0363  0.1917
   52DOPE   H2R 6604   7.730   5.273  13.952  1.2118  0.3818  0.8510
   52DOPE   H2S 6605   7.782   5.203  14.115  0.6211 -1.0441 -0.1305
   52DOPE    C3 6606   7.864   4.804  13.995 -0.3710  0.0343  0.8947
   52DOPE    HX 6607   7.781   4.808  14.068 -0.4717 -1.7829  0.9343
   52DOPE    HY 6608   7.962   4.843  14.031  0.2715 -1.8176  1.2903
   52DOPE   O31 6609   7.883   4.668  13.960 -0.2041  0.0339  0.4544
   52DOPE   C31 6610   7.778   4.590  13.946 -0.5169 -1.0598 -0.9025
   52DOPE   O32 6611   7.663   4.622  13.955 -0.0635 -0.1200 -0.3361
   52DOPE   C32 6612   7.827   4.454  13.891  0.0688 -0.1529  0.6538
   52DOPE   H2X 6613   7.840   4.458  13.781  1.7769 -0.5231  0.8057
   52DOPE   H2Y 6614   7.923   4.427  13.942  0.4358 -0.3430 -0.1287
   52DOPE   C23 6615   7.571   5.219  14.089 -0.3005 -0.4283 -0.4858
   52DOPE   H3R 6616   7.552   5.150  14.174  0.2319 -0.0385 -0.0419
   52DOPE   H3S 6617   7.488   5.205  14.016  1.0371 -1.0277 -1.9552
   52DOPE   C24 6618   7.561   5.363  14.148  0.8137  0.2467 -0.3796
   52DOPE   H4R 6619   7.462   5.367  14.196  1.5443  0.6804  1.1428
   52DOPE   H4S 6620   7.577   5.433  14.063  1.1919  0.1250 -0.4112
   52DOPE   C25 6621   7.657   5.397  14.261 -0.2860  0.2187 -0.3830
   52DOPE   H5R 6622   7.645   5.503  14.292 -1.6772  0.0233 -0.1803
   52DOPE   H5S 6623   7.762   5.391  14.225  0.8249 -0.0432  2.6153
   52DOPE   C26 6624   7.650   5.314  14.390 -0.6710  0.0301 -0.1442
   52DOPE   H6R 6625   7.667   5.208  14.360  0.1426 -0.1572  0.9378
   52DOPE   H6S 6626   7.543   5.322  14.420 -0.2931  0.3289  1.1640
   52DOPE   C27 6627   7.746   5.340  14.514  0.1796 -0.7422 -0.0660
   52DOPE   H7R 6628   7.795   5.437  14.490  0.0990 -1.2101 -2.3299
   52DOPE   H7S 6629   7.819   5.257  14.516  0.0508 -0.8597 -0.2014
   52DOPE   C28 6630   7.681   5.346  14.650  0.3274 -0.5102 -0.0442
   52DOPE   H8R 6631   7.635   5.248  14.675 -2.2551 -0.1633 -2.8621
   52DOPE   H8S 6632   7.598   5.420  14.641 -0.1641 -0.3944  3.8344
   52DOPE   C29 6633   7.773   5.403  14.751 -0.5710  0.4663 -0.9232
   52DOPE   H9R 6634   7.839   5.483  14.713  1.6890  0.4124  2.4275
   52DOPE  C210 6635   7.798   5.359  14.880  0.3925 -0.2118  0.6721
   52DOPE  H10R 6636   7.888   5.394  14.933  0.7642  0.1179 -0.1458
   52DOPE  C211 6637   7.736   5.241  14.946 -0.6522 -1.1064 -0.1881
   52DOPE  H11R 6638   7.653   5.189  14.892 -3.0056  1.3848  0.7781
   52DOPE  H11S 6639   7.676   5.283  15.030 -1.7747 -1.9750 -0.5202
   52DOPE  C212 6640   7.841   5.137  14.998  0.2651 -0.3635 -0.1938
   52DOPE  H12R 6641   7.791   5.070  15.071 -0.7580 -0.5345 -1.0325
   52DOPE  H12S 6642   7.922   5.188  15.055  0.3802 -0.1335 -0.5603
   52DOPE  C213 6643   7.894   5.044  14.889  0.0798 -0.2599  0.1775
   52DOPE  H13R 6644   7.899   5.112  14.801 -4.2067  1.4531  0.9830
   52DOPE  H13S 6645   7.822   4.963  14.864  0.1025 -0.3448  0.3819
   52DOPE  C214 6646   8.024   4.977  14.922  0.0471 -0.6763  1.1417
   52DOPE  H14R 6647   8.091   5.065  14.923 -1.8052  1.0888 -3.5535
   52DOPE  H14S 6648   8.047   4.917  14.832 -2.3209 -0.5768  0.3976
   52DOPE  C215 6649   8.026   4.904  15.052  0.1288 -0.4803  0.1628
   52DOPE  H15R 6650   7.939   4.835  15.055  1.2743 -2.0515 -1.2575
   52DOPE  H15S 6651   7.995   4.973  15.134 -2.0614 -2.1932  0.8816
   52DOPE  C216 6652   8.157   4.831  15.078  0.1144 -0.1181 -0.1351
   52DOPE  H16R 6653   8.231   4.909  15.051  0.1429 -0.5580 -1.3939
   52DOPE  H16S 6654   8.163   4.749  15.003 -3.3878 -0.7995  0.1273
   52DOPE  C217 6655   8.203   4.800  15.222  0.3974  0.3315  0.8341
   52DOPE  H17R 6656   8.188   4.893  15.282 -0.2788 -0.9427  2.7191
   52DOPE  H17S 6657   8.309   4.771  15.209  0.2758  0.5920 -0.9738
   52DOPE  C218 6658   8.126   4.687  15.290  0.3657 -0.1414  0.0944
   52DOPE  H18R 6659   8.177   4.648  15.381  0.2321  0.3205  0.3696
   52DOPE  H18S 6660   8.029   4.724  15.328  0.5783  0.1594  0.3524
   52DOPE  H18T 6661   8.112   4.597  15.227  2.9381 -0.1839 -0.5552
   52DOPE   C33 6662   7.725   4.340  13.922  0.3639  0.0649  0.9820
   52DOPE   H3X 6663   7.752   4.256  13.853  1.6651  2.8350 -2.1726
   52DOPE   H3Y 6664   7.624   4.379  13.899 -0.9496 -3.7122 -0.4863
   52DOPE   C34 6665   7.738   4.278  14.055 -0.3828 -0.1364 -0.2799
   52DOPE   H4X 6666   7.827   4.214  14.072  1.0898  2.1778  1.5243
   52DOPE   H4Y 6667   7.758   4.350  14.138 -1.4791 -1.4444  1.1965
   52DOPE   C35 6668   7.617   4.204  14.099  0.0017  0.1971 -0.9122
   52DOPE   H5X 6669   7.611   4.111  14.039 -2.9281  0.7463 -1.6346
   52DOPE   H5Y 6670   7.531   4.267  14.067 -1.3483 -1.3113 -0.3788
   52DOPE   C36 6671   7.607   4.180  14.254  0.2474  0.0261 -0.4337
   52DOPE   H6X 6672   7.703   4.146  14.298  0.6711 -0.0086 -1.3489
   52DOPE   H6Y 6673   7.536   4.097  14.275 -1.6477  1.1361 -2.1050
   52DOPE   C37 6674   7.554   4.302  14.329  0.2228  0.3940 -0.4385
   52DOPE   H7X 6675   7.608   4.395  14.301 -0.2818  0.2017 -2.1928
   52DOPE   H7Y 6676   7.446   4.317  14.306  0.2031 -0.2569 -0.8250
   52DOPE   C38 6677   7.557   4.277  14.483  0.0226  0.3207  0.1837
   52DOPE   H8X 6678   7.662   4.262  14.515  0.6000  0.0828 -1.6976
   52DOPE   H8Y 6679   7.493   4.188  14.501 -1.1253  1.2235  0.7152
   52DOPE   C39 6680   7.487   4.391  14.558 -0.2803  0.0845 -0.1865
   52DOPE   H9X 6681   7.490   4.486  14.501  2.0644 -0.1103 -0.4867
   52DOPE  C310 6682   7.447   4.384  14.686  0.4581  0.3431 -0.2038
   52DOPE  H10X 6683   7.406   4.472  14.737 -0.7280 -0.4672  0.2577
   52DOPE  C311 6684   7.458   4.256  14.774  0.1938 -0.1561 -0.6497
   52DOPE  H11X 6685   7.379   4.260  14.853  1.0922 -0.7722  0.2998
   52DOPE  H11Y 6686   7.428   4.170  14.710  1.7206  0.2708 -1.9905
   52DOPE  C312 6687   7.595   4.237  14.843  0.6103 -0.2738  0.6311
   52DOPE  H12X 6688   7.629   4.325  14.902 -0.0081  0.7330 -0.4899
   52DOPE  H12Y 6689   7.672   4.225  14.764  2.5564  2.1087  2.0227
   52DOPE  C313 6690   7.595   4.125  14.943 -0.3634  0.6427 -0.6758
   52DOPE  H13X 6691   7.533   4.144  15.033  2.0946 -1.3501  1.6048
   52DOPE  H13Y 6692   7.542   4.043  14.891  0.6664 -0.8389  0.5272
   52DOPE  C314 6693   7.733   4.071  14.979  0.2062 -0.2457  0.4212
   52DOPE  H14X 6694   7.802   4.150  15.017 -0.8693 -0.0336  2.0115
   52DOPE  H14Y 6695   7.779   4.024  14.889 -0.0193  1.1872 -0.4833
   52DOPE  C315 6696   7.713   3.971  15.087  0.0825  0.1759 -0.1928
   52DOPE  H15X 6697   7.811   3.919  15.096  0.6874  1.0516 -1.5373
   52DOPE  H15Y 6698   7.631   3.898  15.070 -0.4115  0.5584  0.4816
   52DOPE  C316 6699   7.696   4.037  15.227 -0.1655 -0.0496 -0.3793
   52DOPE  H16X 6700   7.599   4.092  15.232 -0.3099 -0.3755  0.6388
   52DOPE  H16Y 6701   7.773   4.116  15.242 -1.4894  1.4275 -0.9941
   52DOPE  C317 6702   7.688   3.923  15.331 -0.0612 -0.5906 -0.6811
   52DOPE  H17X 6703   7.654   3.972  15.426  0.9422 -0.8483 -0.1809
   52DOPE  H17Y 6704   7.612   3.847  15.304  0.3380 -1.1970 -0.1344
   52DOPE  C318 6705   7.819   3.865  15.381 -0.3212 -0.2116 -0.0977
   52DOPE  H18X 6706   7.795   3.783  15.452  2.1787 -0.1177  0.9646
   52DOPE  H18Y 6707   7.875   3.825  15.293 -1.1466  0.7006 -1.0612
   52DOPE  H18Z 6708   7.882   3.942  15.430 -2.2199  0.4871  1.3743
   53DOPE     N 6709   5.866   6.968  13.469  0.1313  0.1771  0.1495
   53DOPE   HN1 6710   5.966   6.995  13.468  0.2060 -0.1031 -1.2466
   53DOPE   HN2 6711   5.849   6.910  13.554 -0.8628  0.6100  0.2612
   53DOPE   HN3 6712   5.834   6.920  13.383  2.0021 -0.1305 -0.3998
   53DOPE   C12 6713   5.788   7.102  13.477  0.0129 -0.0734  0.6108
   53DOPE  H12A 6714   5.689   7.086  13.429  0.3392  2.0167 -0.9023
   53DOPE  H12B 6715   5.848   7.167  13.410  0.2012 -2.8370 -2.1103
   53DOPE   C11 6716   5.772   7.164  13.620 -0.6842 -0.1536  0.2965
   53DOPE  H11A 6717   5.869   7.164  13.674 -1.7104 -1.2403  2.2842
   53DOPE  H11B 6718   5.708   7.092  13.676 -1.7879  0.5337 -0.0520
   53DOPE     P 6719   5.768   7.422  13.572  0.3073  0.3268  0.2880
   53DOPE   O13 6720   5.669   7.533  13.584 -0.2270 -0.1847  0.0737
   53DOPE   O14 6721   5.836   7.413  13.441 -0.2585 -0.3381 -0.5370
   53DOPE   O11 6722   5.870   7.439  13.681 -0.4294 -0.2941  0.2944
   53DOPE   O12 6723   5.703   7.285  13.599 -0.3074 -0.3251  0.1292
   53DOPE    C1 6724   5.878   7.408  13.822 -0.2098  0.2829  0.2758
   53DOPE    HA 6725   5.987   7.393  13.837 -0.3409 -0.9962  0.0893
   53DOPE    HB 6726   5.831   7.309  13.841 -1.1971  0.6340 -0.2528
   53DOPE    C2 6727   5.833   7.527  13.912  1.3745 -0.0930  0.3430
   53DOPE    HS 6728   5.873   7.506  14.014  1.3927  1.5404  0.6921
   53DOPE   O21 6729   5.685   7.526  13.923 -0.1349 -0.0780 -0.4698
   53DOPE   C21 6730   5.637   7.449  14.023 -0.0603  0.1918  0.2735
   53DOPE   O22 6731   5.705   7.393  14.112  0.1621 -0.3331  0.3991
   53DOPE   C22 6732   5.479   7.454  14.012 -0.5041  0.3033 -0.5691
   53DOPE   H2R 6733   5.434   7.355  14.033  1.8682 -0.8906 -0.7454
   53DOPE   H2S 6734   5.454   7.464  13.905 -0.7956  0.1361 -0.5174
   53DOPE    C3 6735   5.885   7.666  13.866  0.5112  0.3438  0.1819
   53DOPE    HX 6736   5.818   7.694  13.782  3.3787  0.8382 -2.0544
   53DOPE    HY 6737   5.989   7.655  13.831  0.3780 -0.1139 -0.0865
   53DOPE   O31 6738   5.875   7.765  13.972 -0.3408 -0.0436  0.5007
   53DOPE   C31 6739   5.765   7.836  13.976 -0.6724 -0.1030 -0.2069
   53DOPE   O32 6740   5.672   7.827  13.901 -0.2153 -0.2640 -0.0035
   53DOPE   C32 6741   5.781   7.933  14.095 -0.1677 -0.2856  0.3515
   53DOPE   H2X 6742   5.682   7.969  14.132 -0.5005 -0.2704 -0.5340
   53DOPE   H2Y 6743   5.836   7.886  14.179  1.7694 -0.0967 -0.7650
   53DOPE   C23 6744   5.408   7.544  14.116 -0.0206 -0.2434 -0.9247
   53DOPE   H3R 6745   5.442   7.538  14.221 -1.5690 -3.0152 -0.4718
   53DOPE   H3S 6746   5.302   7.509  14.122 -0.2436  0.3643 -1.2358
   53DOPE   C24 6747   5.396   7.690  14.062  0.1368 -0.0646 -1.0781
   53DOPE   H4R 6748   5.323   7.697  13.978 -1.0321  1.8575  0.0175
   53DOPE   H4S 6749   5.494   7.726  14.026 -1.2239  2.1850 -2.8138
   53DOPE   C25 6750   5.341   7.792  14.164 -0.1221  0.4244 -0.5633
   53DOPE   H5R 6751   5.411   7.809  14.248  0.4261  1.4382 -1.2020
   53DOPE   H5S 6752   5.241   7.759  14.198 -0.1435 -1.0813 -1.9867
   53DOPE   C26 6753   5.341   7.931  14.103 -0.4465  0.9910  1.0641
   53DOPE   H6R 6754   5.279   7.921  14.011  0.3580 -0.2739  0.6317
   53DOPE   H6S 6755   5.441   7.951  14.059 -0.4061  0.7453  1.0419
   53DOPE   C27 6756   5.304   8.041  14.198  0.0213  1.0718  0.3082
   53DOPE   H7R 6757   5.401   8.053  14.251 -0.0014  2.6856  0.0502
   53DOPE   H7S 6758   5.224   8.009  14.268 -0.8633  0.6517 -0.8764
   53DOPE   C28 6759   5.270   8.176  14.132 -0.0444  0.4674  0.3929
   53DOPE   H8R 6760   5.350   8.184  14.055  0.3832  1.2744  0.9099
   53DOPE   H8S 6761   5.286   8.267  14.193 -1.9076  1.4213 -0.4479
   53DOPE   C29 6762   5.139   8.167  14.068  0.1379  0.3423  0.1857
   53DOPE   H9R 6763   5.141   8.135  13.963 -0.7191  0.6982  0.0502
   53DOPE  C210 6764   5.013   8.189  14.124 -0.2376 -0.4588  0.2011
   53DOPE  H10R 6765   4.933   8.187  14.049 -0.3643 -0.6155  0.3410
   53DOPE  C211 6766   4.998   8.258  14.264 -0.4611 -0.8936  0.6319
   53DOPE  H11R 6767   4.936   8.351  14.260  3.4383  1.9166 -0.8613
   53DOPE  H11S 6768   5.088   8.312  14.300  0.4829 -1.0972 -1.2796
   53DOPE  C212 6769   4.947   8.170  14.376  0.2297  0.3716 -0.3510
   53DOPE  H12R 6770   5.016   8.084  14.393  0.8191  0.8485 -0.2726
   53DOPE  H12S 6771   4.862   8.109  14.338  0.8371  0.7664 -2.5017
   53DOPE  C213 6772   4.909   8.247  14.500  0.8325  0.4794 -0.1190
   53DOPE  H13R 6773   4.828   8.315  14.469 -1.7352 -1.2231  2.3828
   53DOPE  H13S 6774   4.995   8.310  14.534 -1.1682  3.2706  0.0936
   53DOPE  C214 6775   4.867   8.166  14.620  0.4556  0.5043 -0.3594
   53DOPE  H14R 6776   4.945   8.093  14.652 -0.3072  0.0764  0.5824
   53DOPE  H14S 6777   4.779   8.100  14.608 -0.8750  2.3627 -1.2881
   53DOPE  C215 6778   4.825   8.255  14.740 -0.6408  0.1935 -0.0236
   53DOPE  H15R 6779   4.724   8.300  14.726 -0.9636 -0.3338  0.6039
   53DOPE  H15S 6780   4.898   8.338  14.754 -1.6725  0.7932  2.1963
   53DOPE  C216 6781   4.811   8.175  14.870 -0.0165 -0.3859 -0.3618
   53DOPE  H16R 6782   4.903   8.115  14.885  0.2758 -0.1873 -1.3106
   53DOPE  H16S 6783   4.729   8.103  14.849 -0.7958  0.5209 -0.5282
   53DOPE  C217 6784   4.780   8.269  14.988  0.0230 -0.3360 -0.3484
   53DOPE  H17R 6785   4.693   8.332  14.960  1.8804  1.2061 -3.0698
   53DOPE  H17S 6786   4.872   8.331  15.000  1.0385 -1.9384  0.6361
   53DOPE  C218 6787   4.764   8.200  15.125 -0.1200 -0.5363  0.8084
   53DOPE  H18R 6788   4.863   8.156  15.148 -0.0673  0.0099  1.6721
   53DOPE  H18S 6789   4.678   8.130  15.129 -0.8944  0.4254  1.5467
   53DOPE  H18T 6790   4.735   8.272  15.204 -0.0028  0.8742 -0.4005
   53DOPE   C33 6791   5.865   8.053  14.044  0.2213 -1.1378  0.5144
   53DOPE   H3X 6792   5.820   8.085  13.947  2.6230 -0.0270 -0.3115
   53DOPE   H3Y 6793   5.969   8.020  14.020 -0.3626 -2.7290 -0.0137
   53DOPE   C34 6794   5.874   8.178  14.140  0.5129  0.4190 -0.2981
   53DOPE   H4X 6795   5.766   8.194  14.164  0.2840  0.4272 -1.2910
   53DOPE   H4Y 6796   5.919   8.160  14.240 -0.9042  0.0672  0.3056
   53DOPE   C35 6797   5.931   8.306  14.088 -0.3063 -0.1364 -0.3891
   53DOPE   H5X 6798   5.878   8.330  13.994 -0.4024  1.6267  0.0781
   53DOPE   H5Y 6799   6.039   8.297  14.062 -0.0443 -0.3442  0.6836
   53DOPE   C36 6800   5.920   8.412  14.198  0.7398  0.1053  0.1188
   53DOPE   H6X 6801   5.935   8.367  14.298  0.3263 -2.7833 -1.0294
   53DOPE   H6Y 6802   5.814   8.440  14.179  1.0776  0.4388 -1.4468
   53DOPE   C37 6803   6.003   8.545  14.192  0.1454 -0.4294  0.0259
   53DOPE   H7X 6804   6.110   8.524  14.213 -0.4412 -3.8707  0.0749
   53DOPE   H7Y 6805   5.997   8.579  14.086 -0.7608  2.5050  0.9097
   53DOPE   C38 6806   5.958   8.640  14.303  0.5520 -0.0973 -0.1611
   53DOPE   H8X 6807   5.997   8.602  14.400  0.2692 -1.9555 -0.7469
   53DOPE   H8Y 6808   5.847   8.645  14.305  0.4171 -2.3433 -0.2951
   53DOPE   C39 6809   6.003   8.780  14.265 -0.2846  0.6477 -0.3465
   53DOPE   H9X 6810   6.020   8.791  14.157 -0.4023 -2.4577 -0.7807
   53DOPE  C310 6811   6.017   8.885  14.349  0.6524  0.0165 -0.1672
   53DOPE  H10X 6812   6.031   8.985  14.305  1.9980 -0.4460 -0.8536
   53DOPE  C311 6813   5.995   8.901  14.495  0.3680  0.5176  0.2255
   53DOPE  H11X 6814   5.915   8.972  14.522 -1.2636 -1.7009  1.5574
   53DOPE  H11Y 6815   5.958   8.812  14.550  0.9852 -0.6203 -1.1268
   53DOPE  C312 6816   6.128   8.939  14.557  0.5983 -0.7627 -0.8228
   53DOPE  H12X 6817   6.213   8.876  14.523 -0.6274 -3.8060  1.2904
   53DOPE  H12Y 6818   6.125   8.918  14.666 -0.8599 -2.5178 -1.1363
   53DOPE  C313 6819   6.179   9.085  14.546 -0.4854  0.2179  0.8523
   53DOPE  H13X 6820   6.199   9.110  14.439 -2.1171 -1.1128  0.1856
   53DOPE  H13Y 6821   6.110   9.160  14.589 -0.1320  1.9378 -1.3953
   53DOPE  C314 6822   6.306   9.110  14.631  0.3834  0.4413 -0.9575
   53DOPE  H14X 6823   6.288   9.050  14.723 -0.4821  0.3700 -1.1657
   53DOPE  H14Y 6824   6.318   9.219  14.645 -0.4283  0.7361 -2.4062
   53DOPE  C315 6825   6.434   9.047  14.576 -0.3043 -0.0679  0.3456
   53DOPE  H15X 6826   6.455   9.077  14.471  1.0733 -1.0355  0.3036
   53DOPE  H15Y 6827   6.414   8.938  14.586  0.1973 -0.2255 -0.3501
   53DOPE  C316 6828   6.558   9.075  14.658  0.2058 -0.4336  0.2923
   53DOPE  H16X 6829   6.540   9.057  14.766 -0.6216  0.1125  0.2492
   53DOPE  H16Y 6830   6.581   9.183  14.652 -0.3213 -0.2645  1.1617
   53DOPE  C317 6831   6.696   9.012  14.619 -0.0288 -0.1882  0.4203
   53DOPE  H17X 6832   6.683   8.902  14.613  0.7621 -0.3407  1.2618
   53DOPE  H17Y 6833   6.706   9.052  14.516  0.0470  1.1769  0.9359
   53DOPE  C318 6834   6.810   9.034  14.709  0.2607 -0.1268  0.5852
   53DOPE  H18X 6835   6.900   8.990  14.660 -0.1326  0.6133 -0.8586
   53DOPE  H18Y 6836   6.826   9.143  14.728  3.3513  0.0534 -2.1132
   53DOPE  H18Z 6837   6.794   8.979  14.804 -0.4053  1.7960  1.6567
   54DOPE     N 6838   7.012   4.861  13.145  0.5299 -0.3606 -0.3362
   54DOPE   HN1 6839   7.052   4.903  13.059  2.5656 -0.1980  0.6200
   54DOPE   HN2 6840   6.919   4.897  13.175  0.8059  0.2367 -0.1768
   54DOPE   HN3 6841   7.069   4.886  13.229  1.9579 -2.4412 -0.5988
   54DOPE   C12 6842   7.015   4.707  13.137  0.3273 -0.0567 -0.3312
   54DOPE  H12A 6843   6.943   4.669  13.062  1.2120  0.2694 -1.3842
   54DOPE  H12B 6844   6.975   4.680  13.237 -0.9658  1.1466 -0.4916
   54DOPE   C11 6845   7.164   4.660  13.102 -0.4050  0.1052 -0.0626
   54DOPE  H11A 6846   7.203   4.713  13.013  0.5578 -0.6685 -0.1103
   54DOPE  H11B 6847   7.151   4.553  13.077 -0.3418 -0.0554  0.5607
   54DOPE     P 6848   7.307   4.587  13.311 -0.1164  0.1817  0.0352
   54DOPE   O13 6849   7.396   4.652  13.407 -0.4599  0.5206  0.0926
   54DOPE   O14 6850   7.347   4.464  13.249 -0.0775 -0.0918 -0.2339
   54DOPE   O11 6851   7.169   4.563  13.386  0.2802 -0.3405  0.1185
   54DOPE   O12 6852   7.253   4.685  13.210 -0.3570  0.5807 -0.7196
   54DOPE    C1 6853   7.100   4.659  13.471 -0.6825 -0.2063 -0.6870
   54DOPE    HA 6854   6.991   4.637  13.469 -0.7378 -0.3714  1.8106
   54DOPE    HB 6855   7.101   4.764  13.434  0.8979 -0.3734 -1.2005
   54DOPE    C2 6856   7.130   4.639  13.619  1.2293 -0.4950 -0.1194
   54DOPE    HS 6857   7.240   4.647  13.629  1.2258 -2.5586  2.7074
   54DOPE   O21 6858   7.087   4.508  13.667  0.7629 -0.4783  0.6117
   54DOPE   C21 6859   7.166   4.451  13.755 -0.2414  0.0341 -0.4731
   54DOPE   O22 6860   7.260   4.504  13.812 -0.1784 -0.3534 -0.5828
   54DOPE   C22 6861   7.131   4.304  13.771  0.3984 -0.6650 -0.5130
   54DOPE   H2R 6862   7.118   4.253  13.673 -0.2417  0.5421 -1.0857
   54DOPE   H2S 6863   7.028   4.288  13.811  0.5815 -1.2975 -0.2927
   54DOPE    C3 6864   7.068   4.755  13.705  0.4867 -0.8472  0.5149
   54DOPE    HX 6865   6.959   4.733  13.713  0.1925  0.5258  0.5737
   54DOPE    HY 6866   7.077   4.856  13.659 -1.1978  0.0071  1.9600
   54DOPE   O31 6867   7.120   4.749  13.840 -0.3650 -0.5689 -0.4398
   54DOPE   C31 6868   7.034   4.759  13.938 -0.4443 -1.0735  0.1478
   54DOPE   O32 6869   6.921   4.810  13.934 -0.0729  0.2555 -0.1847
   54DOPE   C32 6870   7.093   4.696  14.061  0.4508  0.9220  0.5596
   54DOPE   H2X 6871   7.077   4.586  14.060  1.3374  0.7868 -0.3377
   54DOPE   H2Y 6872   7.202   4.698  14.040  0.3668  1.8246  0.1940
   54DOPE   C23 6873   7.238   4.236  13.860 -0.1453  0.1450  0.6387
   54DOPE   H3R 6874   7.231   4.269  13.965  3.2171  1.3942  0.5951
   54DOPE   H3S 6875   7.343   4.251  13.827 -0.9833  1.4140 -1.6996
   54DOPE   C24 6876   7.226   4.088  13.873  0.5060 -0.0097  0.0139
   54DOPE   H4R 6877   7.120   4.062  13.890  0.0292  1.9841  0.2548
   54DOPE   H4S 6878   7.274   4.057  13.969  1.6693  0.4138 -0.4107
   54DOPE   C25 6879   7.297   4.013  13.761 -0.0272 -0.7278 -0.3187
   54DOPE   H5R 6880   7.393   4.065  13.743 -0.0823 -0.9999 -1.4789
   54DOPE   H5S 6881   7.245   4.026  13.663  0.8070  0.7955 -0.5940
   54DOPE   C26 6882   7.312   3.866  13.798 -0.2752 -0.3285 -0.4192
   54DOPE   H6R 6883   7.360   3.857  13.898  0.5775  0.2861 -0.7606
   54DOPE   H6S 6884   7.373   3.813  13.722 -2.6673 -1.1029 -1.9225
   54DOPE   C27 6885   7.177   3.798  13.803  0.3819 -0.6713  0.1470
   54DOPE   H7R 6886   7.123   3.812  13.707 -0.9169  1.3384  1.0994
   54DOPE   H7S 6887   7.120   3.833  13.892  1.1779 -0.0366  0.4221
   54DOPE   C28 6888   7.184   3.651  13.824  0.3033  0.7311 -0.3251
   54DOPE   H8R 6889   7.237   3.642  13.922 -0.6024  3.9359  0.6020
   54DOPE   H8S 6890   7.244   3.602  13.745 -0.3127  0.4501 -0.6213
   54DOPE   C29 6891   7.053   3.579  13.831  0.2157  0.4055 -0.4043
   54DOPE   H9R 6892   6.981   3.594  13.749 -2.0613 -2.6987  0.7714
   54DOPE  C210 6893   7.003   3.513  13.939  0.7126 -0.3710  0.5900
   54DOPE  H10R 6894   6.897   3.485  13.934  0.5477  0.2883  0.2227
   54DOPE  C211 6895   7.072   3.495  14.065 -0.0111  0.7955 -0.9106
   54DOPE  H11R 6896   7.183   3.504  14.060  0.2645 -1.9952 -1.1896
   54DOPE  H11S 6897   7.048   3.396  14.109 -0.5733  1.3695  0.0982
   54DOPE  C212 6898   7.036   3.602  14.172 -0.7139 -0.2736  0.1546
   54DOPE  H12R 6899   7.041   3.704  14.126  0.6049 -0.3141  0.1825
   54DOPE  H12S 6900   7.106   3.594  14.257 -0.7319 -0.7581  0.1248
   54DOPE  C213 6901   6.895   3.590  14.229  0.2881 -0.8042  0.6661
   54DOPE  H13R 6902   6.876   3.487  14.267 -0.3945 -0.2468  1.9213
   54DOPE  H13S 6903   6.816   3.610  14.154 -0.1068  0.5943  1.4128
   54DOPE  C214 6904   6.867   3.689  14.336  0.5557 -0.9533 -0.4806
   54DOPE  H14R 6905   6.891   3.792  14.302 -1.7189  0.1037  0.8417
   54DOPE  H14S 6906   6.936   3.671  14.421  0.5272  0.6849 -0.0845
   54DOPE  C215 6907   6.727   3.680  14.384  0.0705 -0.1877 -0.2126
   54DOPE  H15R 6908   6.718   3.579  14.429  1.6004  0.3494  1.4235
   54DOPE  H15S 6909   6.652   3.690  14.303 -0.2356  2.1435  0.2936
   54DOPE  C216 6910   6.687   3.779  14.496  0.0784  0.2258 -0.2059
   54DOPE  H16R 6911   6.733   3.877  14.473 -0.4695  0.0462 -2.2877
   54DOPE  H16S 6912   6.736   3.750  14.591 -0.3130 -0.2364 -0.1380
   54DOPE  C217 6913   6.540   3.787  14.524 -0.2721  0.1102  0.4271
   54DOPE  H17R 6914   6.510   3.692  14.574  1.7408  0.1553  1.8649
   54DOPE  H17S 6915   6.493   3.776  14.424  0.5899 -0.2697  0.0517
   54DOPE  C218 6916   6.488   3.896  14.611  0.0932  1.1345  0.0872
   54DOPE  H18R 6917   6.561   3.912  14.694  0.3077 -1.3838  0.4723
   54DOPE  H18S 6918   6.397   3.864  14.666  0.4632 -1.0192 -0.4744
   54DOPE  H18T 6919   6.483   3.990  14.553  0.0116  2.0205  1.4669
   54DOPE   C33 6920   7.061   4.768  14.199  0.2149  0.3431  0.7132
   54DOPE   H3X 6921   6.960   4.814  14.202  1.2018  2.6937  0.1746
   54DOPE   H3Y 6922   7.132   4.853  14.203  0.6416 -0.0430  1.4748
   54DOPE   C34 6923   7.079   4.670  14.315 -0.1434  0.3331  0.5731
   54DOPE   H4X 6924   7.000   4.592  14.311  0.1697  0.0518 -1.4734
   54DOPE   H4Y 6925   7.175   4.614  14.306  0.1084  0.9366 -0.8134
   54DOPE   C35 6926   7.084   4.734  14.451  1.5563  0.3318  0.2624
   54DOPE   H5X 6927   6.985   4.781  14.471  0.7408 -1.5714  1.0035
   54DOPE   H5Y 6928   7.166   4.807  14.469  0.9269  0.3008  4.2352
   54DOPE   C36 6929   7.097   4.627  14.562  0.0721  0.1213 -0.8420
   54DOPE   H6X 6930   7.200   4.589  14.543  0.5272  0.9940 -0.1779
   54DOPE   H6Y 6931   7.015   4.553  14.557 -0.2921  0.3717  0.8832
   54DOPE   C37 6932   7.079   4.684  14.705 -0.2275 -0.3672 -0.6356
   54DOPE   H7X 6933   7.136   4.778  14.714 -1.4256  0.2981  0.2580
   54DOPE   H7Y 6934   6.979   4.731  14.712  0.2889  0.6715 -0.0552
   54DOPE   C38 6935   7.115   4.581  14.814 -0.4880  0.1524 -0.1375
   54DOPE   H8X 6936   7.225   4.562  14.809 -0.4871  0.1673 -0.1664
   54DOPE   H8Y 6937   7.063   4.487  14.784  0.0941 -0.4866  0.8070
   54DOPE   C39 6938   7.079   4.631  14.953  0.5157  0.5141 -0.0676
   54DOPE   H9X 6939   6.982   4.683  14.959  0.3901  0.1533  1.6066
   54DOPE  C310 6940   7.138   4.605  15.067 -0.6287 -0.1626  0.5988
   54DOPE  H10X 6941   7.103   4.649  15.162 -0.6509 -1.1069  1.0435
   54DOPE  C311 6942   7.255   4.520  15.099  0.3330 -0.4539 -0.3432
   54DOPE  H11X 6943   7.300   4.482  15.005 -0.9841  2.5240 -2.3056
   54DOPE  H11Y 6944   7.328   4.582  15.154 -0.1167  1.3434 -1.7038
   54DOPE  C312 6945   7.216   4.401  15.188 -0.0430 -0.1117 -0.3554
   54DOPE  H12X 6946   7.152   4.339  15.122  1.2706  1.3709 -3.1993
   54DOPE  H12Y 6947   7.160   4.443  15.274 -1.1835  1.3243 -1.7333
   54DOPE  C313 6948   7.336   4.329  15.248  0.6200 -0.3647 -0.2307
   54DOPE  H13X 6949   7.385   4.284  15.160  0.7222 -1.9641  0.6054
   54DOPE  H13Y 6950   7.399   4.399  15.308 -1.6459  2.2573 -0.6701
   54DOPE  C314 6951   7.282   4.226  15.347  0.3338 -0.0991  0.7815
   54DOPE  H14X 6952   7.240   4.140  15.291  0.4298  0.5645 -0.3477
   54DOPE  H14Y 6953   7.199   4.272  15.404 -1.3230 -0.9520 -0.8456
   54DOPE  C315 6954   7.381   4.169  15.441  0.2983  0.4495 -0.3952
   54DOPE  H15X 6955   7.427   4.252  15.500 -2.2028 -0.1719  2.6906
   54DOPE  H15Y 6956   7.473   4.122  15.401  0.0175 -1.6210  1.1975
   54DOPE  C316 6957   7.319   4.072  15.544  0.2768  0.0919 -0.6341
   54DOPE  H16X 6958   7.284   3.984  15.486  1.0653  0.9490 -2.4748
   54DOPE  H16Y 6959   7.236   4.123  15.598  1.1769  1.1397 -0.1838
   54DOPE  C317 6960   7.406   4.016  15.655 -0.4332 -0.5908 -0.4254
   54DOPE  H17X 6961   7.479   3.946  15.610  1.9978 -0.7138  3.3050
   54DOPE  H17Y 6962   7.472   4.088  15.707  0.3584 -1.2838 -0.4627
   54DOPE  C318 6963   7.323   3.939  15.756 -0.5697 -0.0536 -0.3790
   54DOPE  H18X 6964   7.398   3.877  15.810 -0.7697 -0.3061 -0.3909
   54DOPE  H18Y 6965   7.286   4.016  15.826  2.0310  0.5508  0.4385
   54DOPE  H18Z 6966   7.246   3.876  15.707  0.2761 -0.0630 -1.7680
   55DOPE     N 6967   0.643   8.404  13.164 -0.1749 -0.2802 -0.6208
   55DOPE   HN1 6968   0.714   8.467  13.208  0.0902 -0.0887 -1.3103
   55DOPE   HN2 6969   0.688   8.312  13.148  0.9341 -0.0395  0.8420
   55DOPE   HN3 6970   0.618   8.445  13.072  0.3093 -0.3476 -0.7863
   55DOPE   C12 6971   0.534   8.408  13.262  0.4982  0.2322 -0.2630
   55DOPE  H12A 6972   0.443   8.404  13.199  1.5951  1.1123 -1.9973
   55DOPE  H12B 6973   0.543   8.507  13.311  2.8945 -1.1119  2.2800
   55DOPE   C11 6974   0.535   8.283  13.353  0.4762 -0.0968 -0.0728
   55DOPE  H11A 6975   0.446   8.285  13.418 -1.7618 -0.9490 -2.8982
   55DOPE  H11B 6976   0.630   8.285  13.411  2.0511  0.4737 -2.5014
   55DOPE     P 6977   0.633   8.069  13.229 -0.3899 -0.1492  0.4170
   55DOPE   O13 6978   0.745   8.152  13.200  0.5388  0.0466 -0.5979
   55DOPE   O14 6979   0.577   7.970  13.133 -0.5536  0.0937  0.0984
   55DOPE   O11 6980   0.677   8.008  13.369 -0.3832  0.2064 -0.0318
   55DOPE   O12 6981   0.516   8.168  13.270  0.8469  0.0110 -0.2558
   55DOPE    C1 6982   0.754   7.891  13.372  0.0651  1.2002  0.2885
   55DOPE    HA 6983   0.822   7.888  13.459 -0.3013 -1.4945  0.5792
   55DOPE    HB 6984   0.802   7.860  13.277 -1.6042  1.5864 -0.7306
   55DOPE    C2 6985   0.655   7.778  13.410 -0.0528  0.5693  0.0647
   55DOPE    HS 6986   0.575   7.784  13.332  0.9078  2.5675 -0.8394
   55DOPE   O21 6987   0.603   7.799  13.539  0.3169 -0.3848 -0.0801
   55DOPE   C21 6988   0.478   7.765  13.558  0.7322  0.5574  0.1500
   55DOPE   O22 6989   0.410   7.710  13.469 -0.0490 -0.3689  0.3504
   55DOPE   C22 6990   0.453   7.782  13.714 -1.1392 -0.1949 -0.3308
   55DOPE   H2R 6991   0.498   7.877  13.751 -0.3837 -0.7526  0.2243
   55DOPE   H2S 6992   0.498   7.700  13.775 -0.4332 -0.1299 -0.7436
   55DOPE    C3 6993   0.725   7.643  13.400  0.3863 -0.3754 -0.1292
   55DOPE    HX 6994   0.767   7.632  13.298  0.7975  1.3514 -0.1811
   55DOPE    HY 6995   0.639   7.574  13.411 -0.7036  1.2217  2.1022
   55DOPE   O31 6996   0.833   7.633  13.499  0.5054  0.5051 -0.6229
   55DOPE   C31 6997   0.856   7.509  13.540 -0.0101 -0.2263  0.4822
   55DOPE   O32 6998   0.791   7.409  13.508 -0.4801  0.1831 -0.4945
   55DOPE   C32 6999   0.979   7.507  13.630 -0.1105 -0.3283  0.1266
   55DOPE   H2X 7000   1.068   7.499  13.564 -0.0518  0.2794  0.1228
   55DOPE   H2Y 7001   0.999   7.596  13.694 -0.3308  0.6614 -1.1409
   55DOPE   C23 7002   0.302   7.797  13.735  0.3360  0.3769  0.2501
   55DOPE   H3R 7003   0.242   7.719  13.683  0.7683  0.4280 -0.3466
   55DOPE   H3S 7004   0.267   7.892  13.689 -2.4940 -1.0114 -0.6590
   55DOPE   C24 7005   0.268   7.810  13.884  0.1736  0.4946  0.0625
   55DOPE   H4R 7006   0.291   7.707  13.919  1.1588 -0.0330 -2.0138
   55DOPE   H4S 7007   0.161   7.828  13.907  0.1602 -1.1462  1.5445
   55DOPE   C25 7008   0.340   7.917  13.961 -0.4471 -0.3772  0.1510
   55DOPE   H5R 7009   0.364   8.006  13.899  0.0327 -0.0570  0.7785
   55DOPE   H5S 7010   0.431   7.870  14.005  0.3621  1.8604  1.0574
   55DOPE   C26 7011   0.255   7.971  14.078 -0.3745 -0.2649  0.2576
   55DOPE   H6R 7012   0.231   7.886  14.146  1.0418 -1.1927 -0.3470
   55DOPE   H6S 7013   0.162   8.015  14.036  0.1548 -0.8796 -1.7039
   55DOPE   C27 7014   0.334   8.070  14.173 -0.4931  0.1741  0.0802
   55DOPE   H7R 7015   0.353   8.171  14.130  1.5758 -0.2912 -0.2179
   55DOPE   H7S 7016   0.439   8.047  14.199  0.1807  2.4760 -0.3612
   55DOPE   C28 7017   0.257   8.083  14.305 -0.1058 -0.7373  0.4969
   55DOPE   H8R 7018   0.320   8.135  14.381 -1.6159 -0.0917  1.3342
   55DOPE   H8S 7019   0.254   7.976  14.334 -0.2667 -1.0271 -0.5419
   55DOPE   C29 7020   0.131   8.159  14.302  0.7887 -0.6597  0.0473
   55DOPE   H9R 7021   0.137   8.268  14.302 -0.2303 -0.5926  0.3731
   55DOPE  C210 7022   0.008   8.111  14.320 -0.6262 -0.7473  0.0034
   55DOPE  H10R 7023  -0.080   8.177  14.315 -1.8620 -2.2513  0.9515
   55DOPE  C211 7024  -0.035   7.965  14.338  0.7364  0.1358 -0.1700
   55DOPE  H11R 7025   0.036   7.898  14.284  2.2579  0.4921  1.3077
   55DOPE  H11S 7026  -0.141   7.948  14.310  0.7037  0.1262 -0.0412
   55DOPE  C212 7027  -0.032   7.941  14.495 -0.4901 -0.2684  0.0504
   55DOPE  H12R 7028  -0.087   8.022  14.547  1.1449  0.5271  0.6333
   55DOPE  H12S 7029   0.071   7.941  14.538 -1.6616 -1.2124  3.1004
   55DOPE  C213 7030  -0.082   7.802  14.533 -0.8863  0.5327 -0.2988
   55DOPE  H13R 7031  -0.007   7.727  14.499  1.5511  1.9147  1.6443
   55DOPE  H13S 7032  -0.180   7.791  14.482  0.0482 -2.5950 -1.6559
   55DOPE  C214 7033  -0.096   7.779  14.685 -0.2318  0.4869  0.2319
   55DOPE  H14R 7034  -0.157   7.862  14.728 -0.2029 -0.4243  2.1225
   55DOPE  H14S 7035   0.003   7.785  14.735  0.3509 -0.5643 -0.7600
   55DOPE  C215 7036  -0.161   7.645  14.722 -0.0240 -0.1524  0.2008
   55DOPE  H15R 7037  -0.104   7.615  14.813  0.2171 -1.6263 -0.4151
   55DOPE  H15S 7038  -0.144   7.570  14.642  0.9981  0.9078 -0.6183
   55DOPE  C216 7039  -0.315   7.644  14.753 -0.5031 -0.3154  0.5229
   55DOPE  H16R 7040  -0.370   7.601  14.667  0.3914  1.0226 -0.7601
   55DOPE  H16S 7041  -0.345   7.749  14.769 -2.7815 -0.9147  0.4483
   55DOPE  C217 7042  -0.356   7.560  14.880  0.1020 -0.8334  0.0243
   55DOPE  H17R 7043  -0.311   7.600  14.973 -1.3775  0.6430  0.1461
   55DOPE  H17S 7044  -0.316   7.459  14.856 -2.2595 -1.6414 -0.7189
   55DOPE  C218 7045  -0.504   7.549  14.901 -0.8808  0.0255  0.8705
   55DOPE  H18R 7046  -0.557   7.644  14.877  0.4804  0.5209 -0.3322
   55DOPE  H18S 7047  -0.534   7.518  15.004  1.1689 -1.8939  0.9587
   55DOPE  H18T 7048  -0.544   7.478  14.826 -0.7532  0.1106  0.7221
   55DOPE   C33 7049   0.985   7.382  13.719 -0.4177  0.2490  0.0314
   55DOPE   H3X 7050   1.088   7.341  13.710 -0.2416  0.6849  0.0227
   55DOPE   H3Y 7051   0.926   7.296  13.682  0.3441 -1.2062  2.0149
   55DOPE   C34 7052   0.943   7.415  13.864  0.9713 -0.4230 -0.4499
   55DOPE   H4X 7053   0.969   7.325  13.923  2.8888  0.6482  0.4482
   55DOPE   H4Y 7054   1.005   7.502  13.897 -0.3765 -0.0844  1.4033
   55DOPE   C35 7055   0.800   7.462  13.865  0.0293  0.2696 -0.5267
   55DOPE   H5X 7056   0.740   7.391  13.803  0.9790 -0.7266 -0.3326
   55DOPE   H5Y 7057   0.785   7.565  13.827  2.8611  0.6882 -0.6939
   55DOPE   C36 7058   0.737   7.455  14.005 -0.3271  0.1884  0.3932
   55DOPE   H6X 7059   0.790   7.521  14.078  0.2398  0.0188  0.1425
   55DOPE   H6Y 7060   0.746   7.349  14.039 -2.1910  0.2775  1.2662
   55DOPE   C37 7061   0.584   7.498  14.013 -0.2042  0.8759  0.3841
   55DOPE   H7X 7062   0.576   7.597  13.963 -1.3929  1.0309  0.8643
   55DOPE   H7Y 7063   0.522   7.424  13.958 -1.6382 -0.4723  3.5759
   55DOPE   C38 7064   0.534   7.482  14.159 -0.8501  0.1854  0.6525
   55DOPE   H8X 7065   0.610   7.541  14.215 -1.1475  1.8880 -0.6658
   55DOPE   H8Y 7066   0.542   7.378  14.199 -1.4438 -0.1715 -0.1455
   55DOPE   C39 7067   0.397   7.542  14.160  0.0978 -0.2932 -0.5644
   55DOPE   H9X 7068   0.326   7.513  14.081 -0.4599 -1.3896  0.3003
   55DOPE  C310 7069   0.337   7.630  14.246 -0.0378 -0.0489 -0.2735
   55DOPE  H10X 7070   0.232   7.657  14.227 -0.4831 -2.5449 -1.8368
   55DOPE  C311 7071   0.421   7.702  14.351  0.4370  0.7764  0.0190
   55DOPE  H11X 7072   0.522   7.656  14.361 -0.0640  0.0916  3.2601
   55DOPE  H11Y 7073   0.430   7.806  14.313  1.3159  0.7651  0.1659
   55DOPE  C312 7074   0.357   7.699  14.490  0.4851  0.1357  0.4380
   55DOPE  H12X 7075   0.354   7.588  14.502  0.0439 -0.2161 -2.3637
   55DOPE  H12Y 7076   0.252   7.732  14.499  0.4905 -0.1477  1.8533
   55DOPE  C313 7077   0.435   7.762  14.604 -0.9796  0.0106 -0.1004
   55DOPE  H13X 7078   0.426   7.701  14.697  0.7232 -0.3394 -0.1163
   55DOPE  H13Y 7079   0.538   7.757  14.563  0.1930  1.5065  2.3961
   55DOPE  C314 7080   0.396   7.903  14.650 -0.2308 -0.3061 -0.2240
   55DOPE  H14X 7081   0.337   7.951  14.569  1.7476 -0.0677 -1.5987
   55DOPE  H14Y 7082   0.484   7.966  14.675  0.7829 -1.1392 -1.5066
   55DOPE  C315 7083   0.303   7.896  14.773 -0.5422  0.0335 -0.3828
   55DOPE  H15X 7084   0.244   7.802  14.769 -0.5706  0.0349 -0.0441
   55DOPE  H15Y 7085   0.233   7.982  14.775  0.2948  0.7158  0.4313
   55DOPE  C316 7086   0.387   7.892  14.902  0.3367 -0.2838  0.4090
   55DOPE  H16X 7087   0.415   7.998  14.924 -2.4582  0.3995  1.1332
   55DOPE  H16Y 7088   0.478   7.829  14.904 -1.7575 -3.5255  1.8516
   55DOPE  C317 7089   0.294   7.853  15.022  0.4745 -0.4397  0.0470
   55DOPE  H17X 7090   0.226   7.936  15.050  0.8561 -0.2345  0.3687
   55DOPE  H17Y 7091   0.228   7.768  14.993  0.7358 -1.0785  1.2471
   55DOPE  C318 7092   0.369   7.802  15.146  0.1492  0.3218 -0.0438
   55DOPE  H18X 7093   0.425   7.709  15.123  1.8335  1.7970 -2.3592
   55DOPE  H18Y 7094   0.434   7.883  15.187 -1.0937  1.9004 -1.0795
   55DOPE  H18Z 7095   0.301   7.783  15.232  0.3250 -0.7041 -0.1163
   56DOPE     N 7096   7.697   0.645  13.289 -0.1832  0.0539  0.1759
   56DOPE   HN1 7097   7.654   0.551  13.277 -2.1483  1.0022 -0.8148
   56DOPE   HN2 7098   7.659   0.681  13.379  0.5636 -1.1804  1.0119
   56DOPE   HN3 7099   7.660   0.716  13.222  0.6022  3.1169  2.7682
   56DOPE   C12 7100   7.843   0.624  13.281 -0.5925  0.5873 -0.2705
   56DOPE  H12A 7101   7.879   0.583  13.378 -0.0280  0.0338 -0.7041
   56DOPE  H12B 7102   7.889   0.724  13.270 -0.8789  0.6954 -0.4920
   56DOPE   C11 7103   7.881   0.530  13.161  0.1936  0.3554  0.2456
   56DOPE  H11A 7104   7.808   0.551  13.080 -0.6214 -0.0922  0.8526
   56DOPE  H11B 7105   7.879   0.423  13.191 -0.1115 -0.6416 -2.9425
   56DOPE     P 7106   8.146   0.527  13.188  0.0572  0.0458 -0.4336
   56DOPE   O13 7107   8.222   0.654  13.187 -0.0952 -0.1579 -0.0402
   56DOPE   O14 7108   8.223   0.416  13.136  0.4922  0.6517  0.3576
   56DOPE   O11 7109   8.091   0.508  13.335  0.0930  0.6606 -0.1356
   56DOPE   O12 7110   8.013   0.556  13.104  0.0235 -0.0834 -0.0295
   56DOPE    C1 7111   8.184   0.532  13.438  0.6825 -0.0025  0.8093
   56DOPE    HA 7112   8.212   0.639  13.443 -1.1825  0.5578  0.2281
   56DOPE    HB 7113   8.276   0.471  13.427 -0.0470 -1.2548  1.4766
   56DOPE    C2 7114   8.130   0.485  13.578 -0.3103 -0.6035  0.0715
   56DOPE    HS 7115   8.082   0.385  13.572 -0.9176 -0.2870 -0.6219
   56DOPE   O21 7116   8.040   0.592  13.632 -0.2077  0.7432  0.1379
   56DOPE   C21 7117   7.943   0.545  13.710  0.2046  0.6514  0.5930
   56DOPE   O22 7118   7.924   0.426  13.731  0.5015 -0.3045  0.5650
   56DOPE   C22 7119   7.873   0.652  13.781 -0.0505  1.0863  0.5137
   56DOPE   H2R 7120   7.778   0.658  13.723 -1.0389 -2.5314  1.4439
   56DOPE   H2S 7121   7.922   0.751  13.791  0.3456  0.9153  0.2694
   56DOPE    C3 7122   8.239   0.470  13.684  0.7509 -0.7800  0.0009
   56DOPE    HX 7123   8.260   0.569  13.728 -1.5395 -0.2723  0.1026
   56DOPE    HY 7124   8.333   0.443  13.633  0.5692 -0.8772 -0.2873
   56DOPE   O31 7125   8.204   0.387  13.799 -0.2622  0.3892  0.2735
   56DOPE   C31 7126   8.263   0.270  13.802 -0.1304 -0.6202  0.3400
   56DOPE   O32 7127   8.346   0.233  13.720  0.1676  0.1401  0.1000
   56DOPE   C32 7128   8.197   0.188  13.909 -0.0859  0.4106  0.0289
   56DOPE   H2X 7129   8.089   0.211  13.926  0.1773  0.0912  2.6349
   56DOPE   H2Y 7130   8.215   0.079  13.891 -1.3180 -0.1516  1.8528
   56DOPE   C23 7131   7.841   0.611  13.921  0.5488 -0.2374 -0.2267
   56DOPE   H3R 7132   7.784   0.516  13.932  0.4773 -0.1159  0.5075
   56DOPE   H3S 7133   7.780   0.694  13.962 -0.2752  0.0480 -1.9604
   56DOPE   C24 7134   7.965   0.602  14.011  0.1508 -0.0628 -0.2547
   56DOPE   H4R 7135   8.030   0.690  13.988  1.1356 -0.8599 -0.5860
   56DOPE   H4S 7136   8.015   0.512  13.969  0.6268  1.9224 -4.5740
   56DOPE   C25 7137   7.927   0.581  14.154  0.5176  0.5488  0.1092
   56DOPE   H5R 7138   7.868   0.487  14.163  1.0955  0.3124  1.7591
   56DOPE   H5S 7139   7.863   0.666  14.185  0.6746  0.1555  1.5660
   56DOPE   C26 7140   8.048   0.565  14.251 -0.0857 -0.4034 -0.5593
   56DOPE   H6R 7141   8.112   0.654  14.236 -0.1579 -0.5573 -1.8882
   56DOPE   H6S 7142   8.109   0.481  14.211 -0.4354 -0.1108 -1.7463
   56DOPE   C27 7143   8.005   0.552  14.397  0.8710 -1.0528 -0.5511
   56DOPE   H7R 7144   7.917   0.486  14.410 -0.4095  0.6391 -0.2439
   56DOPE   H7S 7145   7.953   0.647  14.424 -0.9907 -2.3303  0.6486
   56DOPE   C28 7146   8.110   0.519  14.503 -1.3369  0.4012 -0.6234
   56DOPE   H8R 7147   8.165   0.429  14.468 -0.4308  1.4253 -1.9531
   56DOPE   H8S 7148   8.060   0.496  14.600 -0.2495 -0.6351 -0.2859
   56DOPE   C29 7149   8.220   0.621  14.535  0.1425 -0.5149  0.7176
   56DOPE   H9R 7150   8.254   0.684  14.452 -2.5866  0.2018  0.0786
   56DOPE  C210 7151   8.262   0.652  14.660  0.2191  0.3507  0.2782
   56DOPE  H10R 7152   8.325   0.741  14.673 -0.3248  0.7683  0.0703
   56DOPE  C211 7153   8.226   0.564  14.781 -0.3414 -0.1305  0.8145
   56DOPE  H11R 7154   8.118   0.542  14.795 -0.3493 -1.0260 -0.4975
   56DOPE  H11S 7155   8.253   0.620  14.874  2.5216 -0.2417  0.1476
   56DOPE  C212 7156   8.293   0.421  14.799  0.4536  0.2598 -0.2705
   56DOPE  H12R 7157   8.252   0.364  14.713 -1.4241  2.0674 -0.6579
   56DOPE  H12S 7158   8.245   0.379  14.890 -0.4183  1.3315 -0.2169
   56DOPE  C213 7159   8.443   0.423  14.810  0.2356  0.4576 -0.0219
   56DOPE  H13R 7160   8.479   0.492  14.731 -0.3534  1.0052  0.1779
   56DOPE  H13S 7161   8.490   0.326  14.784  0.1066  0.6130 -0.8565
   56DOPE  C214 7162   8.488   0.474  14.942 -0.9942 -0.4168 -0.3611
   56DOPE  H14R 7163   8.421   0.426  15.017 -0.9498  0.4553  0.2488
   56DOPE  H14S 7164   8.481   0.585  14.945  0.4278 -0.3063 -0.7021
   56DOPE  C215 7165   8.624   0.422  14.983 -0.8273 -0.2849  0.7163
   56DOPE  H15R 7166   8.622   0.311  14.973  1.3458 -0.2577 -0.6532
   56DOPE  H15S 7167   8.651   0.449  15.087 -1.8822  0.8090  0.7251
   56DOPE  C216 7168   8.727   0.477  14.886  0.1637 -0.1373  0.0609
   56DOPE  H16R 7169   8.698   0.583  14.866 -1.5306 -0.5945 -0.0713
   56DOPE  H16S 7170   8.715   0.417  14.794 -2.1406  0.2457  0.0497
   56DOPE  C217 7171   8.878   0.455  14.930 -0.3425  0.2230 -0.0507
   56DOPE  H17R 7172   8.891   0.495  15.033 -0.0560  1.2765 -0.4910
   56DOPE  H17S 7173   8.937   0.516  14.859  1.3386 -0.9591  0.2622
   56DOPE  C218 7174   8.927   0.309  14.910 -0.1563  0.4112  0.5118
   56DOPE  H18R 7175   9.034   0.295  14.937  0.3272 -1.8534 -2.1222
   56DOPE  H18S 7176   8.914   0.279  14.804  1.9500  1.2029 -0.0162
   56DOPE  H18T 7177   8.874   0.237  14.977  0.1059  0.4735  0.7925
   56DOPE   C33 7178   8.274   0.208  14.045 -0.7209  0.1092 -0.0719
   56DOPE   H3X 7179   8.278   0.310  14.089  0.8045  0.1988 -0.3371
   56DOPE   H3Y 7180   8.375   0.165  14.025 -0.7619 -0.3004  0.5691
   56DOPE   C34 7181   8.222   0.117  14.161 -0.1068  0.5034  0.0913
   56DOPE   H4X 7182   8.115   0.140  14.178 -0.5848 -0.0832 -1.7954
   56DOPE   H4Y 7183   8.225   0.015  14.117  0.1468  0.9099 -0.8675
   56DOPE   C35 7184   8.302   0.117  14.291  0.4223  0.1289  0.1647
   56DOPE   H5X 7185   8.325   0.223  14.314  3.2849 -0.7242  1.7962
   56DOPE   H5Y 7186   8.400   0.073  14.260 -0.6257 -0.5027 -2.5750
   56DOPE   C36 7187   8.236   0.046  14.408  0.0974  0.0708  0.6416
   56DOPE   H6X 7188   8.217  -0.058  14.375  0.6747  0.8128 -2.2937
   56DOPE   H6Y 7189   8.136   0.092  14.427 -0.6972 -0.5567 -1.7063
   56DOPE   C37 7190   8.311   0.048  14.535  0.3188  0.2315  0.6578
   56DOPE   H7X 7191   8.408  -0.006  14.525 -0.2322 -0.4331 -2.0427
   56DOPE   H7Y 7192   8.339   0.153  14.561 -0.8228  1.6235 -3.0121
   56DOPE   C38 7193   8.236  -0.007  14.662  0.0066 -1.1464 -0.4893
   56DOPE   H8X 7194   8.145   0.051  14.688  2.1184  2.0831  0.1833
   56DOPE   H8Y 7195   8.303   0.030  14.742 -0.8110  1.3600 -0.8840
   56DOPE   C39 7196   8.212  -0.156  14.668 -1.1716 -1.4319  0.1331
   56DOPE   H9X 7197   8.185  -0.195  14.569  2.2681 -0.5154 -1.3076
   56DOPE  C310 7198   8.239  -0.239  14.770  0.5724 -0.1041  0.9896
   56DOPE  H10X 7199   8.237  -0.347  14.747 -1.7289  0.4065 -1.5995
   56DOPE  C311 7200   8.285  -0.194  14.905  0.6059 -0.1574 -1.1838
   56DOPE  H11X 7201   8.382  -0.140  14.896  1.5477 -1.8964 -1.8774
   56DOPE  H11Y 7202   8.214  -0.115  14.940  0.4612 -1.0284  0.6500
   56DOPE  C312 7203   8.291  -0.292  15.026 -0.3441 -0.2828  0.2047
   56DOPE  H12X 7204   8.192  -0.338  15.045  0.8351 -2.4942  1.5484
   56DOPE  H12Y 7205   8.323  -0.225  15.109  0.8034  3.9490 -3.3294
   56DOPE  C313 7206   8.390  -0.403  15.000 -0.2888  0.1890 -0.6060
   56DOPE  H13X 7207   8.386  -0.432  14.893 -3.3175  0.6117 -0.7115
   56DOPE  H13Y 7208   8.493  -0.361  15.002 -0.1791  0.1943 -3.0560
   56DOPE  C314 7209   8.384  -0.518  15.100 -0.8910 -0.8306  1.0800
   56DOPE  H14X 7210   8.447  -0.600  15.062  1.1319 -0.2452  2.9867
   56DOPE  H14Y 7211   8.278  -0.553  15.105 -1.4507  0.5627 -0.1656
   56DOPE  C315 7212   8.414  -0.476  15.244  0.4572  0.2894  0.3250
   56DOPE  H15X 7213   8.362  -0.383  15.278 -2.5980  0.2189 -3.3722
   56DOPE  H15Y 7214   8.523  -0.457  15.250  0.1860  1.6318  1.6166
   56DOPE  C316 7215   8.373  -0.589  15.335  0.0404  0.5832 -0.9270
   56DOPE  H16X 7216   8.270  -0.619  15.308 -0.1102 -1.7928  1.7445
   56DOPE  H16Y 7217   8.364  -0.558  15.442 -1.9046 -3.9973  0.4753
   56DOPE  C317 7218   8.467  -0.712  15.338 -0.0517 -0.1349  0.3631
   56DOPE  H17X 7219   8.485  -0.736  15.231  1.4809 -0.8452  0.7576
   56DOPE  H17Y 7220   8.562  -0.679  15.385 -0.2040  3.0179 -1.2832
   56DOPE  C318 7221   8.421  -0.838  15.405 -0.4832 -0.0913 -0.1033
   56DOPE  H18X 7222   8.316  -0.867  15.382 -1.3516  1.5080  1.6006
   56DOPE  H18Y 7223   8.491  -0.924  15.396 -1.1496 -0.7287  0.5966
   56DOPE  H18Z 7224   8.415  -0.821  15.514  0.5657  2.6160 -0.3847
   57DOPE     N 7225   5.810   3.109  13.548 -0.3840 -0.0318 -0.2528
   57DOPE   HN1 7226   5.808   3.201  13.499 -2.4551  1.2996  2.1147
   57DOPE   HN2 7227   5.737   3.043  13.515  0.3405 -0.6247 -0.6955
   57DOPE   HN3 7228   5.801   3.132  13.649  1.0712 -2.7565  0.5895
   57DOPE   C12 7229   5.948   3.054  13.537  0.2414  0.0369 -0.0737
   57DOPE  H12A 7230   5.964   2.996  13.444  3.7099 -0.1435  0.4895
   57DOPE  H12B 7231   5.967   2.980  13.619 -0.7508  0.3371  0.4470
   57DOPE   C11 7232   6.050   3.165  13.552 -0.1129 -0.0265  0.0294
   57DOPE  H11A 7233   6.153   3.123  13.556 -0.1695 -0.3002 -1.0017
   57DOPE  H11B 7234   6.031   3.225  13.643 -2.5204  0.7217 -0.8985
   57DOPE     P 7235   6.156   3.353  13.392  0.1548 -0.1804 -0.3258
   57DOPE   O13 7236   6.112   3.495  13.406 -0.2650  0.2041 -0.3214
   57DOPE   O14 7237   6.194   3.313  13.253 -0.4077  0.4401 -0.0853
   57DOPE   O11 7238   6.276   3.319  13.497  0.2345 -0.3660 -0.1661
   57DOPE   O12 7239   6.037   3.256  13.445  0.4876  0.2075 -0.3797
   57DOPE    C1 7240   6.286   3.400  13.613 -0.0414 -0.4410  0.0176
   57DOPE    HA 7241   6.186   3.441  13.638  0.5406  0.6365  0.6678
   57DOPE    HB 7242   6.349   3.489  13.595  1.9618 -2.1258 -1.8524
   57DOPE    C2 7243   6.360   3.319  13.729  0.0666  0.1980  0.2774
   57DOPE    HS 7244   6.458   3.282  13.692  0.2416 -0.1228  1.0380
   57DOPE   O21 7245   6.266   3.222  13.778 -0.5331 -0.2591 -0.2173
   57DOPE   C21 7246   6.327   3.110  13.811  0.1145 -0.1628  0.4705
   57DOPE   O22 7247   6.442   3.076  13.797  0.5607 -0.3881  0.6025
   57DOPE   C22 7248   6.230   3.007  13.872 -0.9106  0.2219 -0.6497
   57DOPE   H2R 7249   6.196   2.945  13.786  0.8749  0.9798 -1.9881
   57DOPE   H2S 7250   6.146   3.060  13.921  0.1629  0.2849  1.2050
   57DOPE    C3 7251   6.395   3.413  13.851 -0.2397 -0.6613  0.0085
   57DOPE    HX 7252   6.300   3.457  13.889 -0.1613  0.0156 -0.5770
   57DOPE    HY 7253   6.455   3.501  13.819 -0.0904 -0.6826  0.2215
   57DOPE   O31 7254   6.462   3.342  13.959 -0.3564 -0.0512 -0.1710
   57DOPE   C31 7255   6.592   3.323  13.950 -0.3379 -0.1704 -0.4256
   57DOPE   O32 7256   6.661   3.353  13.856 -0.2064 -0.4295 -0.9503
   57DOPE   C32 7257   6.647   3.264  14.076  0.0082  0.5178 -0.2068
   57DOPE   H2X 7258   6.607   3.163  14.096  0.1716  0.7764  1.6519
   57DOPE   H2Y 7259   6.753   3.250  14.045 -0.2979  1.4946 -1.8229
   57DOPE   C23 7260   6.290   2.918  13.983  0.7898  0.0562  0.1238
   57DOPE   H3R 7261   6.378   2.859  13.949  0.2478 -0.5952 -0.1838
   57DOPE   H3S 7262   6.206   2.850  14.012 -0.5499  0.9320 -1.5523
   57DOPE   C24 7263   6.315   2.990  14.113 -0.1122 -0.8513  0.3207
   57DOPE   H4R 7264   6.230   3.061  14.125 -0.1576 -0.3896 -2.2004
   57DOPE   H4S 7265   6.398   3.063  14.098 -1.1456  0.8894  2.3659
   57DOPE   C25 7266   6.333   2.891  14.225  0.0241 -0.4250  0.5703
   57DOPE   H5R 7267   6.410   2.815  14.199  0.9858  0.4488  0.7702
   57DOPE   H5S 7268   6.242   2.831  14.241 -1.0150  1.3480  1.6385
   57DOPE   C26 7269   6.385   2.958  14.361 -0.3826  0.9719  0.6569
   57DOPE   H6R 7270   6.315   3.040  14.389 -0.9048  1.1435 -1.0285
   57DOPE   H6S 7271   6.480   3.006  14.331  0.3282 -1.4019 -1.2196
   57DOPE   C27 7272   6.411   2.867  14.485  0.5460 -1.3158 -0.0628
   57DOPE   H7R 7273   6.310   2.828  14.509 -1.5683  2.9005 -1.2444
   57DOPE   H7S 7274   6.432   2.934  14.572  0.3511 -3.2179  1.5359
   57DOPE   C28 7275   6.519   2.765  14.466 -0.0794  0.3466 -0.4009
   57DOPE   H8R 7276   6.612   2.823  14.449 -0.1863  0.6277 -0.0306
   57DOPE   H8S 7277   6.497   2.710  14.372 -0.2555  0.7824 -0.6158
   57DOPE   C29 7278   6.543   2.688  14.595  0.2320  0.2203  0.9708
   57DOPE   H9R 7279   6.591   2.747  14.674 -0.4925  0.7753  1.0068
   57DOPE  C210 7280   6.516   2.554  14.607 -0.2286 -0.9504  0.4669
   57DOPE  H10R 7281   6.526   2.500  14.702  1.1759  0.8139  1.3973
   57DOPE  C211 7282   6.456   2.456  14.512 -0.3618  0.5099 -0.8710
   57DOPE  H11R 7283   6.427   2.522  14.428 -1.3771 -0.1851 -1.0734
   57DOPE  H11S 7284   6.370   2.412  14.566  0.9962 -1.3165 -0.0799
   57DOPE  C212 7285   6.556   2.349  14.459  0.1881 -0.4538  0.0308
   57DOPE  H12R 7286   6.614   2.302  14.541  1.1473 -0.7388 -0.7826
   57DOPE  H12S 7287   6.630   2.395  14.390 -0.1451 -0.2190 -0.1702
   57DOPE  C213 7288   6.484   2.239  14.371 -1.2016  0.3198  0.6210
   57DOPE  H13R 7289   6.426   2.284  14.288  1.4604 -0.5445 -1.8598
   57DOPE  H13S 7290   6.417   2.176  14.435 -1.6632  2.6441  2.5790
   57DOPE  C214 7291   6.578   2.133  14.312  1.0642 -0.1867  0.1867
   57DOPE  H14R 7292   6.657   2.182  14.251  0.2219 -0.9989 -1.6371
   57DOPE  H14S 7293   6.526   2.067  14.239  0.6611  0.9310 -0.5716
   57DOPE  C215 7294   6.645   2.049  14.423  0.1649 -0.5240  0.2063
   57DOPE  H15R 7295   6.580   1.999  14.497  0.5963 -2.3642 -0.5894
   57DOPE  H15S 7296   6.712   2.116  14.481 -1.0031 -0.2982  1.3186
   57DOPE  C216 7297   6.730   1.933  14.362  0.2293 -0.1342 -0.0768
   57DOPE  H16R 7298   6.662   1.886  14.286  0.8365  0.2498 -0.8720
   57DOPE  H16S 7299   6.752   1.858  14.441  3.1206 -0.9823 -1.5605
   57DOPE  C217 7300   6.860   1.977  14.286  0.8216 -0.9451  0.1383
   57DOPE  H17R 7301   6.954   1.957  14.340  2.2030  3.1315 -0.4316
   57DOPE  H17S 7302   6.846   2.087  14.279 -1.2644 -1.1327  0.7573
   57DOPE  C218 7303   6.872   1.923  14.144 -0.1587 -0.3476 -0.2702
   57DOPE  H18R 7304   6.939   1.835  14.143  0.5236  0.1518  0.3483
   57DOPE  H18S 7305   6.926   1.996  14.081  1.1443 -1.3965 -0.4230
   57DOPE  H18T 7306   6.772   1.901  14.100  0.9916 -0.4851 -3.0216
   57DOPE   C33 7307   6.626   3.346  14.201  0.4539  0.1198  0.1741
   57DOPE   H3X 7308   6.640   3.455  14.191 -1.3842  0.4386  0.6550
   57DOPE   H3Y 7309   6.703   3.310  14.273  0.8932 -0.6207 -0.6510
   57DOPE   C34 7310   6.490   3.317  14.264  0.1464  0.4591  0.3266
   57DOPE   H4X 7311   6.407   3.333  14.191 -1.0319 -0.4428  1.4313
   57DOPE   H4Y 7312   6.479   3.209  14.284 -0.4869  0.5507  0.5068
   57DOPE   C35 7313   6.453   3.410  14.373 -0.1271  0.0469 -0.3447
   57DOPE   H5X 7314   6.343   3.405  14.388  0.1286 -0.7865  1.5531
   57DOPE   H5Y 7315   6.474   3.511  14.333 -1.0615 -0.4779 -2.2695
   57DOPE   C36 7316   6.529   3.387  14.507 -0.0729 -0.4053  0.6350
   57DOPE   H6X 7317   6.557   3.485  14.552  0.5609 -0.1838 -0.2207
   57DOPE   H6Y 7318   6.610   3.313  14.493 -1.0666 -1.6063  0.9945
   57DOPE   C37 7319   6.433   3.335  14.611  0.5043 -0.5083  0.2072
   57DOPE   H7X 7320   6.338   3.388  14.588 -0.5622 -2.1263  0.6898
   57DOPE   H7Y 7321   6.411   3.230  14.584  0.5190 -0.6441  0.7071
   57DOPE   C38 7322   6.463   3.347  14.755 -0.6983  0.0064 -0.3103
   57DOPE   H8X 7323   6.372   3.317  14.812 -0.0978  1.3006  1.4142
   57DOPE   H8Y 7324   6.468   3.453  14.787  0.9944 -0.3235  0.6285
   57DOPE   C39 7325   6.594   3.277  14.797  0.9186  0.3428 -0.3642
   57DOPE   H9X 7326   6.579   3.169  14.786 -1.1687  0.5432  0.1100
   57DOPE  C310 7327   6.717   3.331  14.800  0.1765 -0.5408 -0.4769
   57DOPE  H10X 7328   6.808   3.271  14.815  2.3158  1.5497 -3.7810
   57DOPE  C311 7329   6.743   3.474  14.795  0.1257  0.3570  0.1199
   57DOPE  H11X 7330   6.728   3.501  14.688 -2.1963 -0.7207  0.1081
   57DOPE  H11Y 7331   6.666   3.525  14.856 -0.0171 -0.5669  0.7353
   57DOPE  C312 7332   6.886   3.514  14.818 -0.4297  0.4536  0.6409
   57DOPE  H12X 7333   6.934   3.472  14.909 -2.0466 -1.3579  0.7233
   57DOPE  H12Y 7334   6.877   3.625  14.823  0.1251  0.5063  0.4880
   57DOPE  C313 7335   6.985   3.493  14.696  0.2226  0.3408  0.4218
   57DOPE  H13X 7336   6.979   3.385  14.671  1.3013  0.6081 -1.0965
   57DOPE  H13Y 7337   6.950   3.550  14.608 -1.6128 -2.1669 -0.5836
   57DOPE  C314 7338   7.133   3.538  14.733 -0.2617  0.5678 -0.2304
   57DOPE  H14X 7339   7.201   3.503  14.652  0.9609  0.0091  0.9955
   57DOPE  H14Y 7340   7.173   3.475  14.815 -0.6708 -1.7374 -1.6916
   57DOPE  C315 7341   7.142   3.687  14.774  0.3171 -0.1189  0.1055
   57DOPE  H15X 7342   7.080   3.683  14.866 -0.5624 -0.4452 -0.4976
   57DOPE  H15Y 7343   7.087   3.740  14.694 -0.8764  0.2736  1.1571
   57DOPE  C316 7344   7.277   3.739  14.811  0.5132 -0.5039 -0.0876
   57DOPE  H16X 7345   7.333   3.664  14.872  0.2316  0.0174  0.8311
   57DOPE  H16Y 7346   7.270   3.838  14.860  0.0174 -1.2446  1.4209
   57DOPE  C317 7347   7.350   3.760  14.673 -0.0783 -0.3399 -0.8867
   57DOPE  H17X 7348   7.389   3.660  14.644  1.5189 -0.6744  2.0130
   57DOPE  H17Y 7349   7.283   3.796  14.592 -2.3148  1.2061  1.4894
   57DOPE  C318 7350   7.474   3.849  14.681 -0.1560 -0.4031  0.2027
   57DOPE  H18X 7351   7.531   3.846  14.586  1.4614  0.9786  1.0870
   57DOPE  H18Y 7352   7.446   3.955  14.699  2.0832  0.0689  1.2189
   57DOPE  H18Z 7353   7.542   3.827  14.766  1.3276 -1.0819 -1.1009
   58DOPE     N 7354   6.090   7.534  13.464 -0.0967 -0.2626  0.2119
   58DOPE   HN1 7355   5.996   7.490  13.460  0.1917 -0.7943 -2.0968
   58DOPE   HN2 7356   6.145   7.504  13.547 -0.8043 -2.2949  0.0012
   58DOPE   HN3 7357   6.081   7.638  13.465 -0.7147 -0.3109  0.8865
   58DOPE   C12 7358   6.167   7.504  13.344 -0.9254 -0.2304 -0.0036
   58DOPE  H12A 7359   6.227   7.597  13.330 -0.2240 -0.0983  3.1420
   58DOPE  H12B 7360   6.096   7.506  13.258  0.9227  1.8448 -1.6072
   58DOPE   C11 7361   6.256   7.382  13.352  0.1654 -0.4943  0.1573
   58DOPE  H11A 7362   6.337   7.393  13.428  0.0771 -0.1169  0.1976
   58DOPE  H11B 7363   6.314   7.374  13.257 -0.6060 -0.4283 -0.3294
   58DOPE     P 7364   6.211   7.147  13.458 -0.2796 -0.5381 -0.1477
   58DOPE   O13 7365   6.355   7.126  13.462 -0.2384  0.0539  0.2132
   58DOPE   O14 7366   6.129   7.035  13.429 -0.1182  0.8744 -0.1094
   58DOPE   O11 7367   6.154   7.205  13.589  0.1845 -0.2827  0.9530
   58DOPE   O12 7368   6.169   7.264  13.366 -0.2290  0.1765  0.0526
   58DOPE    C1 7369   6.172   7.154  13.721  0.5181  0.1997 -0.6268
   58DOPE    HA 7370   6.123   7.055  13.724  0.8585  0.0349 -0.3594
   58DOPE    HB 7371   6.136   7.219  13.804 -1.1751 -0.0482 -1.1296
   58DOPE    C2 7372   6.327   7.142  13.761 -0.4949  0.5590 -0.4601
   58DOPE    HS 7373   6.371   7.065  13.694  1.6245  0.9134  0.4440
   58DOPE   O21 7374   6.319   7.084  13.897 -0.1281  0.2472 -0.4775
   58DOPE   C21 7375   6.433   7.055  13.957 -0.0128  0.3430 -0.3690
   58DOPE   O22 7376   6.545   7.081  13.916 -0.3027 -0.1680  0.0622
   58DOPE   C22 7377   6.400   6.974  14.084  0.0810  0.2434  0.6325
   58DOPE   H2R 7378   6.449   6.875  14.081  0.3273  0.3809  0.0070
   58DOPE   H2S 7379   6.293   6.958  14.108 -0.1990 -0.0162 -0.7272
   58DOPE    C3 7380   6.404   7.274  13.747 -0.3655  0.0943  1.0209
   58DOPE    HX 7381   6.398   7.314  13.644  2.4956  0.0087  0.7422
   58DOPE    HY 7382   6.514   7.263  13.762 -0.5450 -1.2998  1.3889
   58DOPE   O31 7383   6.358   7.370  13.844  0.1365 -0.2061  0.1691
   58DOPE   C31 7384   6.286   7.474  13.805 -0.3870  0.5925 -0.2355
   58DOPE   O32 7385   6.230   7.485  13.696 -0.1760  0.3206 -0.4372
   58DOPE   C32 7386   6.284   7.569  13.919 -0.4337  0.8174 -0.0499
   58DOPE   H2X 7387   6.391   7.600  13.928 -0.0441 -0.4435 -0.1664
   58DOPE   H2Y 7388   6.231   7.661  13.887  2.4233  3.7338  2.8716
   58DOPE   C23 7389   6.452   7.043  14.211  0.9859 -0.6221 -0.1270
   58DOPE   H3R 7390   6.406   7.144  14.212 -2.0015 -1.8584 -1.3248
   58DOPE   H3S 7391   6.562   7.054  14.197  0.9642 -0.4829 -0.1869
   58DOPE   C24 7392   6.431   6.967  14.345 -0.6900 -0.2985  0.4561
   58DOPE   H4R 7393   6.323   6.945  14.363 -0.4195 -2.6633 -0.3603
   58DOPE   H4S 7394   6.462   7.039  14.423  0.9880 -0.2600 -0.2115
   58DOPE   C25 7395   6.509   6.839  14.349  0.0781  0.0177  0.1381
   58DOPE   H5R 7396   6.480   6.761  14.276 -2.4325  0.0959  0.9667
   58DOPE   H5S 7397   6.476   6.797  14.446 -1.8021  0.2394 -0.3562
   58DOPE   C26 7398   6.664   6.858  14.332 -0.0548  0.4643  0.5102
   58DOPE   H6R 7399   6.688   6.945  14.398 -0.3580  1.9226 -1.2092
   58DOPE   H6S 7400   6.675   6.869  14.222 -2.4664 -1.2744  0.0083
   58DOPE   C27 7401   6.739   6.729  14.375  0.7911 -0.7163 -0.0213
   58DOPE   H7R 7402   6.688   6.642  14.328 -1.2352  1.1934 -1.6054
   58DOPE   H7S 7403   6.736   6.725  14.486  1.7684 -1.5969 -0.0124
   58DOPE   C28 7404   6.889   6.732  14.321 -0.3446  0.1386 -0.2453
   58DOPE   H8R 7405   6.893   6.774  14.219  0.2285  0.3732 -0.1300
   58DOPE   H8S 7406   6.927   6.627  14.321 -1.0360 -0.1195 -0.9781
   58DOPE   C29 7407   6.984   6.828  14.394  0.7739  0.1920 -0.0877
   58DOPE   H9R 7408   6.987   6.932  14.357  2.7447  0.7023  1.3304
   58DOPE  C210 7409   7.047   6.808  14.513 -0.1531 -0.1795 -0.0411
   58DOPE  H10R 7410   7.109   6.885  14.562  1.1715 -0.9031 -0.5513
   58DOPE  C211 7411   7.043   6.680  14.593  0.3726  0.0781  0.3162
   58DOPE  H11R 7412   7.148   6.669  14.628 -0.0665  0.4077  1.7873
   58DOPE  H11S 7413   7.021   6.594  14.526  0.6766 -0.3339  0.7364
   58DOPE  C212 7414   6.944   6.681  14.707 -0.4004  0.5692 -0.5131
   58DOPE  H12R 7415   6.960   6.589  14.767  1.0631  1.4144  0.4624
   58DOPE  H12S 7416   6.840   6.685  14.668  0.2414  0.9580 -2.3067
   58DOPE  C213 7417   6.964   6.802  14.795 -0.0570 -0.2603 -0.2004
   58DOPE  H13R 7418   6.938   6.893  14.736  0.5663  0.5557  0.7357
   58DOPE  H13S 7419   7.066   6.812  14.837 -0.3600  1.2132  0.2681
   58DOPE  C214 7420   6.860   6.803  14.915  0.1672 -0.1926 -0.0725
   58DOPE  H14R 7421   6.884   6.892  14.976 -0.9978 -1.3547  2.2220
   58DOPE  H14S 7422   6.879   6.716  14.982  0.6859  1.3946  1.9456
   58DOPE  C215 7423   6.715   6.816  14.863  0.0977  0.2515 -0.6839
   58DOPE  H15R 7424   6.654   6.816  14.956  0.1818 -0.1419 -0.6289
   58DOPE  H15S 7425   6.693   6.724  14.805 -0.4373  0.6201 -1.0717
   58DOPE  C216 7426   6.675   6.943  14.781 -0.5924 -0.0029  0.0841
   58DOPE  H16R 7427   6.715   6.924  14.679  0.1821 -3.4896  0.8789
   58DOPE  H16S 7428   6.714   7.030  14.838 -1.5177 -0.2344  1.1260
   58DOPE  C217 7429   6.525   6.968  14.775 -0.3326 -0.0261 -0.3701
   58DOPE  H17R 7430   6.495   6.968  14.882 -1.0977 -2.3708 -0.5256
   58DOPE  H17S 7431   6.476   6.884  14.721  1.3022 -0.3238 -1.4855
   58DOPE  C218 7432   6.501   7.098  14.711 -0.2669 -0.4760 -0.2056
   58DOPE  H18R 7433   6.545   7.180  14.772 -2.0644 -0.7666  1.5953
   58DOPE  H18S 7434   6.393   7.121  14.699  0.0627  1.7993  0.6345
   58DOPE  H18T 7435   6.552   7.106  14.612 -2.1908 -1.5379 -1.3581
   58DOPE   C33 7436   6.248   7.502  14.055  0.5414  0.0456  0.3812
   58DOPE   H3X 7437   6.296   7.402  14.065  2.8776  0.8770 -1.6364
   58DOPE   H3Y 7438   6.139   7.481  14.063  0.6236  0.1926  2.1893
   58DOPE   C34 7439   6.274   7.599  14.175 -0.5870  0.3456  0.1200
   58DOPE   H4X 7440   6.250   7.561  14.277 -0.9642  1.1106  0.3265
   58DOPE   H4Y 7441   6.384   7.610  14.178 -0.6826  2.0450 -1.0937
   58DOPE   C35 7442   6.190   7.734  14.170  0.1913 -0.6690 -0.3532
   58DOPE   H5X 7443   6.083   7.721  14.142 -0.4346 -0.0939  1.5810
   58DOPE   H5Y 7444   6.229   7.801  14.091  0.8028 -1.1213 -0.4414
   58DOPE   C36 7445   6.163   7.799  14.308 -0.0832  0.3652 -0.3249
   58DOPE   H6X 7446   6.115   7.726  14.377 -0.5670  0.6787 -0.3258
   58DOPE   H6Y 7447   6.085   7.879  14.300 -0.2238  0.4083  1.1698
   58DOPE   C37 7448   6.275   7.877  14.375  0.5281 -0.0270  0.0149
   58DOPE   H7X 7449   6.356   7.806  14.402 -1.2453 -1.7192  1.1573
   58DOPE   H7Y 7450   6.310   7.954  14.303 -3.4356 -0.5662 -2.8073
   58DOPE   C38 7451   6.235   7.937  14.511  0.1399 -0.1746  0.0717
   58DOPE   H8X 7452   6.325   7.945  14.575 -0.9768  2.3550  1.5097
   58DOPE   H8Y 7453   6.161   7.861  14.545  0.7180 -1.6189 -1.7225
   58DOPE   C39 7454   6.178   8.080  14.520  0.0391  0.2069 -0.6131
   58DOPE   H9X 7455   6.242   8.148  14.461 -0.4934  1.2782  0.0198
   58DOPE  C310 7456   6.054   8.118  14.568 -0.2368 -0.5425  0.1569
   58DOPE  H10X 7457   6.040   8.226  14.582  0.2296 -0.6376  1.5102
   58DOPE  C311 7458   5.942   8.032  14.623 -0.1784 -0.0524 -0.4167
   58DOPE  H11X 7459   5.843   8.082  14.615  0.4279  1.2606  0.1154
   58DOPE  H11Y 7460   5.938   7.943  14.556 -1.0860  1.5508 -2.6187
   58DOPE  C312 7461   5.961   7.993  14.774 -0.4182 -0.5121  0.1836
   58DOPE  H12X 7462   5.987   8.089  14.825  2.8163 -1.3749  0.3194
   58DOPE  H12Y 7463   6.044   7.920  14.785  0.6029  0.4429 -0.9328
   58DOPE  C313 7464   5.838   7.925  14.828  0.0692  0.0119 -0.5219
   58DOPE  H13X 7465   5.745   7.985  14.818 -0.9954 -1.6956 -1.3088
   58DOPE  H13Y 7466   5.824   7.826  14.781  1.8294 -1.6051  2.0692
   58DOPE  C314 7467   5.870   7.887  14.976  0.0251  0.2203 -0.0384
   58DOPE  H14X 7468   5.888   7.984  15.027  1.3449 -1.0689  2.0287
   58DOPE  H14Y 7469   5.962   7.825  14.974  2.4391  3.5510 -0.0518
   58DOPE  C315 7470   5.749   7.821  15.036  0.4519  0.3449 -0.8913
   58DOPE  H15X 7471   5.726   7.722  14.991 -3.5916  1.0044 -0.6393
   58DOPE  H15Y 7472   5.659   7.883  15.016  0.0712  0.4747  1.0483
   58DOPE  C316 7473   5.757   7.806  15.187 -0.1042 -0.5859  0.4553
   58DOPE  H16X 7474   5.687   7.732  15.231  0.4616 -1.4900 -0.1362
   58DOPE  H16Y 7475   5.739   7.907  15.231 -0.5564 -0.5892  0.2780
   58DOPE  C317 7476   5.892   7.759  15.237  0.1181  0.3715 -0.4755
   58DOPE  H17X 7477   5.932   7.680  15.170 -1.8961 -0.2766 -0.9712
   58DOPE  H17Y 7478   5.954   7.852  15.233  1.4251 -0.4208  0.4698
   58DOPE  C318 7479   5.878   7.717  15.385 -0.5620 -0.9712  0.6695
   58DOPE  H18X 7480   5.980   7.690  15.421 -0.4102  0.0756  1.0807
   58DOPE  H18Y 7481   5.846   7.799  15.454 -0.8207 -0.2531 -0.2861
   58DOPE  H18Z 7482   5.800   7.639  15.390 -1.9529  0.2873 -0.5262
   59DOPE     N 7483   7.168   3.889  12.924 -0.1870 -0.1685  0.5901
   59DOPE   HN1 7484   7.260   3.868  12.878 -0.5631  2.1810 -1.4210
   59DOPE   HN2 7485   7.118   3.950  12.856  1.3163 -0.5847 -0.9574
   59DOPE   HN3 7486   7.193   3.935  13.014  0.4385 -0.0472  0.3590
   59DOPE   C12 7487   7.114   3.752  12.953  0.0722 -0.3523 -0.2719
   59DOPE  H12A 7488   7.117   3.684  12.865  1.8360 -0.3219 -0.2628
   59DOPE  H12B 7489   7.007   3.771  12.977 -0.3568 -2.2060 -0.5442
   59DOPE   C11 7490   7.188   3.694  13.075  0.0189  0.6880 -0.0276
   59DOPE  H11A 7491   7.160   3.587  13.092 -1.1788  0.8010 -1.1606
   59DOPE  H11B 7492   7.161   3.750  13.167  0.3064 -1.5831  1.5304
   59DOPE     P 7493   7.425   3.670  13.168  0.3655 -0.4816 -0.3582
   59DOPE   O13 7494   7.453   3.795  13.252  0.2081  0.1556  0.2720
   59DOPE   O14 7495   7.542   3.600  13.110  0.2352 -0.3656  0.4220
   59DOPE   O11 7496   7.343   3.569  13.255 -0.0664 -0.0985 -0.0434
   59DOPE   O12 7497   7.326   3.703  13.049  0.5852 -0.4261 -0.0704
   59DOPE    C1 7498   7.317   3.433  13.225  0.1725  0.5549 -0.9802
   59DOPE    HA 7499   7.335   3.411  13.118 -2.7728 -0.7173 -1.3047
   59DOPE    HB 7500   7.209   3.411  13.233  0.4087 -0.3511 -0.0768
   59DOPE    C2 7501   7.373   3.336  13.330  0.5664  1.0384  1.1104
   59DOPE    HS 7502   7.357   3.230  13.299  0.4861  2.3454 -4.2896
   59DOPE   O21 7503   7.320   3.363  13.460  0.1916  0.7717  0.1838
   59DOPE   C21 7504   7.280   3.253  13.524 -0.5548  0.0152 -0.0882
   59DOPE   O22 7505   7.296   3.138  13.484  0.5024  0.6798 -0.2840
   59DOPE   C22 7506   7.216   3.290  13.659 -0.6246 -0.1650  0.1117
   59DOPE   H2R 7507   7.105   3.284  13.648 -0.5130  0.1513 -1.4118
   59DOPE   H2S 7508   7.238   3.395  13.684 -0.4113  0.1294 -1.2432
   59DOPE    C3 7509   7.524   3.349  13.337 -0.5874  0.0756  0.4438
   59DOPE    HX 7510   7.524   3.452  13.378 -2.7944 -0.1695  1.1595
   59DOPE    HY 7511   7.566   3.348  13.234  0.8516 -1.5794  0.9857
   59DOPE   O31 7512   7.595   3.259  13.422 -0.5296  0.1251  0.3072
   59DOPE   C31 7513   7.674   3.168  13.376  0.8123  0.0750  0.4367
   59DOPE   O32 7514   7.696   3.151  13.255  0.1357  0.2644  0.1437
   59DOPE   C32 7515   7.734   3.076  13.486  0.3258 -0.0376  0.1104
   59DOPE   H2X 7516   7.797   2.997  13.441  0.1251  0.3402 -0.8537
   59DOPE   H2Y 7517   7.795   3.139  13.554 -1.0239  1.6857 -0.1960
   59DOPE   C23 7518   7.273   3.194  13.770 -0.2031  0.8754 -0.0267
   59DOPE   H3R 7519   7.384   3.197  13.774 -0.0924 -0.9511 -0.6715
   59DOPE   H3S 7520   7.243   3.090  13.747  1.3226  0.7939 -1.8631
   59DOPE   C24 7521   7.218   3.235  13.902  0.3504  0.5343  0.1601
   59DOPE   H4R 7522   7.108   3.250  13.895  0.1897 -0.9813 -1.3499
   59DOPE   H4S 7523   7.256   3.336  13.929 -0.1058  1.5200 -2.5600
   59DOPE   C25 7524   7.254   3.141  14.013  0.1445  0.3252 -0.2795
   59DOPE   H5R 7525   7.364   3.144  14.032  0.6920  1.0112 -3.0330
   59DOPE   H5S 7526   7.232   3.036  13.988  0.2357  0.5916 -1.5311
   59DOPE   C26 7527   7.186   3.176  14.151  0.8687  0.2232  0.0397
   59DOPE   H6R 7528   7.076   3.169  14.137  0.9866  1.6900 -2.0091
   59DOPE   H6S 7529   7.209   3.282  14.174 -4.5419  1.0235  3.5331
   59DOPE   C27 7530   7.217   3.086  14.273 -0.0958  0.6489  0.7442
   59DOPE   H7R 7531   7.326   3.085  14.297 -0.1706 -1.2504  1.1697
   59DOPE   H7S 7532   7.198   2.979  14.250  2.3508 -0.0425  1.5740
   59DOPE   C28 7533   7.163   3.128  14.416 -0.6717  0.0531  0.6066
   59DOPE   H8R 7534   7.223   3.219  14.438 -2.8197  1.7456 -0.1402
   59DOPE   H8S 7535   7.186   3.045  14.487 -1.8652 -1.1149 -0.3238
   59DOPE   C29 7536   7.020   3.172  14.418  0.5105 -0.0095  0.4612
   59DOPE   H9R 7537   6.992   3.259  14.356 -0.2059  2.0639  3.4866
   59DOPE  C210 7538   6.914   3.114  14.485  0.2298 -0.0881 -0.1765
   59DOPE  H10R 7539   6.809   3.136  14.460 -0.6707 -2.1710  1.4237
   59DOPE  C211 7540   6.922   2.999  14.580  0.6464  0.0697  0.0862
   59DOPE  H11R 7541   7.005   3.026  14.649  2.0621 -3.6557  0.0728
   59DOPE  H11S 7542   6.950   2.900  14.538 -0.0362 -1.3475  2.7721
   59DOPE  C212 7543   6.803   2.969  14.673 -0.1951 -0.6360 -0.5044
   59DOPE  H12R 7544   6.733   2.913  14.607 -0.2570 -0.7963 -0.3021
   59DOPE  H12S 7545   6.754   3.064  14.704  0.9629 -0.5094  1.0872
   59DOPE  C213 7546   6.839   2.883  14.793 -0.6082  0.6435 -0.0165
   59DOPE  H13R 7547   6.921   2.935  14.848 -0.0090 -0.5824  0.2936
   59DOPE  H13S 7548   6.867   2.782  14.755 -2.1570  1.2076 -2.9019
   59DOPE  C214 7549   6.729   2.856  14.897  0.7499 -0.4920 -0.0256
   59DOPE  H14R 7550   6.645   2.808  14.842 -1.3627  3.2231 -0.4055
   59DOPE  H14S 7551   6.684   2.953  14.928  1.5295  0.9059 -2.9389
   59DOPE  C215 7552   6.767   2.763  15.007 -0.6820 -0.0593 -0.3049
   59DOPE  H15R 7553   6.832   2.811  15.083  1.1335 -2.8761  0.0636
   59DOPE  H15S 7554   6.828   2.685  14.956 -0.8329  0.0914 -0.7170
   59DOPE  C216 7555   6.644   2.718  15.092 -0.6873 -0.0521 -0.1097
   59DOPE  H16R 7556   6.570   2.668  15.026 -0.4895 -0.7120  0.1610
   59DOPE  H16S 7557   6.589   2.810  15.124  1.1417  1.9227 -2.2610
   59DOPE  C217 7558   6.683   2.644  15.222 -0.5200 -0.0193 -0.3314
   59DOPE  H17R 7559   6.585   2.627  15.272 -0.9840  0.6829 -0.9792
   59DOPE  H17S 7560   6.749   2.715  15.275 -0.6772  0.1223 -0.3239
   59DOPE  C218 7561   6.750   2.510  15.196  0.1862 -0.7531 -0.1288
   59DOPE  H18R 7562   6.838   2.524  15.129 -0.2528  0.2578 -0.5145
   59DOPE  H18S 7563   6.675   2.448  15.144  2.0845 -0.4974 -3.4098
   59DOPE  H18T 7564   6.786   2.465  15.292  2.2354  2.5018  0.8322
   59DOPE   C33 7565   7.646   3.019  13.599  0.3358  0.4378  0.1815
   59DOPE   H3X 7566   7.552   3.078  13.610 -0.4696 -0.7489 -0.1342
   59DOPE   H3Y 7567   7.694   3.020  13.699  1.4676  0.5013 -0.3458
   59DOPE   C34 7568   7.619   2.874  13.571  0.0494  0.2856 -0.3874
   59DOPE   H4X 7569   7.559   2.870  13.478  0.0351  0.3716 -0.3825
   59DOPE   H4Y 7570   7.718   2.825  13.562  0.7238  1.3886  0.7620
   59DOPE   C35 7571   7.547   2.795  13.682 -0.7289 -0.7871  0.1459
   59DOPE   H5X 7572   7.440   2.797  13.651 -0.5135 -3.8066 -1.1686
   59DOPE   H5Y 7573   7.558   2.857  13.773  0.3678 -1.0056  0.1746
   59DOPE   C36 7574   7.592   2.651  13.699 -0.4365 -0.4993 -0.0331
   59DOPE   H6X 7575   7.703   2.659  13.707 -0.5399 -0.4980  1.8377
   59DOPE   H6Y 7576   7.572   2.591  13.608 -0.9976 -0.0547 -0.2107
   59DOPE   C37 7577   7.528   2.586  13.826 -0.0530  0.2727  0.0007
   59DOPE   H7X 7578   7.543   2.660  13.908  1.2235 -0.0093  0.0353
   59DOPE   H7Y 7579   7.417   2.578  13.821  0.1183 -1.7340 -1.8106
   59DOPE   C38 7580   7.595   2.447  13.851  0.2957  0.0569  0.1496
   59DOPE   H8X 7581   7.591   2.436  13.962 -0.4600 -1.5660  0.0038
   59DOPE   H8Y 7582   7.701   2.456  13.819 -0.1268 -0.8668 -1.6442
   59DOPE   C39 7583   7.524   2.335  13.783  0.4775 -0.1530 -0.5237
   59DOPE   H9X 7584   7.549   2.320  13.678  0.5999 -0.0404 -0.5107
   59DOPE  C310 7585   7.433   2.253  13.849 -0.2520  0.3945  0.2435
   59DOPE  H10X 7586   7.412   2.158  13.796  1.1395  0.0721  0.2032
   59DOPE  C311 7587   7.384   2.273  13.997  0.8586 -0.1833 -0.0760
   59DOPE  H11X 7588   7.455   2.324  14.065 -1.4971  0.2674  2.1788
   59DOPE  H11Y 7589   7.290   2.329  14.014 -0.4790 -2.5742  0.9526
   59DOPE  C312 7590   7.362   2.137  14.068 -0.1117  0.1085 -0.3636
   59DOPE  H12X 7591   7.465   2.100  14.086  0.0769  1.2934  1.1907
   59DOPE  H12Y 7592   7.315   2.065  13.997 -1.6010 -0.1818  0.8623
   59DOPE  C313 7593   7.256   2.135  14.181  0.2901  0.2275  0.2855
   59DOPE  H13X 7594   7.169   2.196  14.147  0.9525  1.2729  0.4376
   59DOPE  H13Y 7595   7.225   2.032  14.209  0.6161 -0.4224 -1.5973
   59DOPE  C314 7596   7.302   2.195  14.311 -0.4710 -0.8114 -0.8034
   59DOPE  H14X 7597   7.219   2.197  14.385 -0.0851 -0.1947 -0.3747
   59DOPE  H14Y 7598   7.334   2.300  14.295 -1.1133 -0.5783 -0.5600
   59DOPE  C315 7599   7.421   2.121  14.383 -0.0598 -0.1044  0.2604
   59DOPE  H15X 7600   7.512   2.162  14.334 -0.8426 -1.1110 -2.2271
   59DOPE  H15Y 7601   7.419   2.013  14.357  0.1847 -0.1166  0.2880
   59DOPE  C316 7602   7.437   2.148  14.532 -0.1192  0.6320  0.0184
   59DOPE  H16X 7603   7.503   2.073  14.581 -2.1607 -0.6961  0.8509
   59DOPE  H16Y 7604   7.338   2.135  14.580 -0.3246  0.0580 -0.5491
   59DOPE  C317 7605   7.474   2.295  14.577 -0.2651 -0.0483 -0.2797
   59DOPE  H17X 7606   7.578   2.314  14.545 -0.5844  0.6159 -0.9420
   59DOPE  H17Y 7607   7.408   2.363  14.518 -0.2106 -0.0616 -0.3552
   59DOPE  C318 7608   7.451   2.336  14.725 -0.1415 -0.4891 -0.5085
   59DOPE  H18X 7609   7.514   2.280  14.796 -2.7599 -2.5151  0.3761
   59DOPE  H18Y 7610   7.470   2.445  14.735  0.8646 -0.6874 -0.1124
   59DOPE  H18Z 7611   7.349   2.304  14.755 -0.9125 -0.2162 -2.6235
   60DOPE     N 7612   6.711   0.776  13.219 -0.8197  0.3712  0.6966
   60DOPE   HN1 7613   6.708   0.822  13.126  1.2457  0.2014  0.4883
   60DOPE   HN2 7614   6.661   0.833  13.290 -0.9378  0.2241  0.7334
   60DOPE   HN3 7615   6.812   0.787  13.244 -0.3547 -0.0202 -0.8859
   60DOPE   C12 7616   6.662   0.633  13.209 -0.2495 -0.1327 -0.9488
   60DOPE  H12A 7617   6.749   0.565  13.199 -1.4228 -2.2015  1.6109
   60DOPE  H12B 7618   6.609   0.631  13.111 -0.8621  0.3918 -0.6355
   60DOPE   C11 7619   6.576   0.584  13.332 -0.4849 -0.3150 -0.2597
   60DOPE  H11A 7620   6.646   0.581  13.418 -1.4652  1.5158  0.6526
   60DOPE  H11B 7621   6.544   0.481  13.308 -0.3301 -0.2400 -0.8185
   60DOPE     P 7622   6.374   0.676  13.491  0.4137  0.1346 -0.1625
   60DOPE   O13 7623   6.259   0.588  13.469 -0.5488 -0.2286  0.0835
   60DOPE   O14 7624   6.347   0.815  13.532  0.3434 -0.2183  0.4111
   60DOPE   O11 7625   6.465   0.609  13.605 -0.2066 -0.6543 -0.4581
   60DOPE   O12 7626   6.471   0.670  13.364  0.5342 -0.1479  0.8557
   60DOPE    C1 7627   6.452   0.472  13.644 -0.3018  0.2846 -0.2973
   60DOPE    HA 7628   6.529   0.416  13.588  0.3777  1.3014 -0.4065
   60DOPE    HB 7629   6.355   0.421  13.628 -0.4053  0.8528 -1.5647
   60DOPE    C2 7630   6.505   0.471  13.788  0.8200 -0.1713 -0.2674
   60DOPE    HS 7631   6.480   0.369  13.822 -0.3841  0.4228  0.6840
   60DOPE   O21 7632   6.444   0.570  13.881 -0.9165  0.0038  0.5413
   60DOPE   C21 7633   6.318   0.591  13.869  0.9613 -0.0859 -0.3665
   60DOPE   O22 7634   6.231   0.518  13.825 -0.2774  0.5906  0.2598
   60DOPE   C22 7635   6.276   0.704  13.956 -0.5775 -0.1443  0.3191
   60DOPE   H2R 7636   6.167   0.711  13.940 -0.6410  0.0531  0.8218
   60DOPE   H2S 7637   6.317   0.795  13.907  0.1298  0.7653  2.4449
   60DOPE    C3 7638   6.660   0.490  13.793 -0.2329  0.9997  0.1299
   60DOPE    HX 7639   6.682   0.594  13.760  1.5974  0.7624  0.5066
   60DOPE    HY 7640   6.715   0.426  13.721  2.5862  2.5010  0.8021
   60DOPE   O31 7641   6.712   0.460  13.927 -0.1100 -0.3755  0.0100
   60DOPE   C31 7642   6.763   0.564  13.989 -0.0664 -0.2349  0.0066
   60DOPE   O32 7643   6.764   0.682  13.949 -0.4359  0.3644  0.3384
   60DOPE   C32 7644   6.829   0.506  14.115  0.0322 -0.2459  0.3967
   60DOPE   H2X 7645   6.926   0.465  14.082 -0.3723  1.2213 -2.9901
   60DOPE   H2Y 7646   6.842   0.588  14.189  0.9621 -0.3657  0.3714
   60DOPE   C23 7647   6.309   0.694  14.108  0.5919 -0.1703 -0.3250
   60DOPE   H3R 7648   6.298   0.586  14.129  0.3854  0.2873  2.1519
   60DOPE   H3S 7649   6.232   0.755  14.159  0.1254 -0.9268 -0.1143
   60DOPE   C24 7650   6.449   0.751  14.146  0.3756  0.1407  0.5497
   60DOPE   H4R 7651   6.531   0.708  14.084  0.1029 -1.1935  1.0897
   60DOPE   H4S 7652   6.460   0.708  14.248  0.9741 -2.4690 -0.5296
   60DOPE   C25 7653   6.453   0.911  14.142  0.1059 -0.3446  0.1484
   60DOPE   H5R 7654   6.362   0.937  14.201  0.0038 -4.4897  2.1880
   60DOPE   H5S 7655   6.437   0.946  14.038  2.3445  0.8234  0.1539
   60DOPE   C26 7656   6.573   0.983  14.195 -0.4818 -0.0024  0.2568
   60DOPE   H6R 7657   6.543   1.089  14.212 -0.0540 -0.0278  1.2307
   60DOPE   H6S 7658   6.637   0.974  14.104 -1.9834 -0.4359 -0.7921
   60DOPE   C27 7659   6.650   0.915  14.306  0.0833  0.4326 -0.1553
   60DOPE   H7R 7660   6.700   0.828  14.259 -0.6090 -0.5259  0.8222
   60DOPE   H7S 7661   6.577   0.878  14.381 -1.1688  0.3433 -1.3754
   60DOPE   C28 7662   6.745   1.013  14.377  1.1416 -0.1009 -0.0558
   60DOPE   H8R 7663   6.688   1.086  14.439  1.2271 -0.2826  0.2389
   60DOPE   H8S 7664   6.791   1.070  14.294  1.4648 -1.0302 -0.5343
   60DOPE   C29 7665   6.852   0.953  14.464 -0.3454  0.1166 -0.1240
   60DOPE   H9R 7666   6.872   0.846  14.448 -0.0727  0.1107  0.2512
   60DOPE  C210 7667   6.902   1.022  14.571  0.2157  0.2183  0.0194
   60DOPE  H10R 7668   6.977   0.966  14.630  0.7478  0.1667 -0.6893
   60DOPE  C211 7669   6.898   1.166  14.600 -0.2444 -0.7872  0.3559
   60DOPE  H11R 7670   6.807   1.175  14.664 -0.7845 -1.4493 -0.3052
   60DOPE  H11S 7671   6.878   1.226  14.510 -2.8600 -1.1150  0.6402
   60DOPE  C212 7672   7.031   1.212  14.666 -0.4030 -0.4300  0.3914
   60DOPE  H12R 7673   7.123   1.169  14.620 -0.1957 -0.4386  0.8070
   60DOPE  H12S 7674   7.027   1.180  14.773  0.2769  1.7233  1.1131
   60DOPE  C213 7675   7.039   1.365  14.672 -0.2594  0.1438  0.2400
   60DOPE  H13R 7676   6.938   1.405  14.695 -0.2348  0.6643 -0.5498
   60DOPE  H13S 7677   7.071   1.389  14.569  1.8591 -0.8265  0.6088
   60DOPE  C214 7678   7.132   1.412  14.788  0.0350 -0.1439  0.2361
   60DOPE  H14R 7679   7.068   1.417  14.879 -0.3285 -2.4940  0.1636
   60DOPE  H14S 7680   7.175   1.514  14.773  0.2712 -0.2651  0.0783
   60DOPE  C215 7681   7.268   1.334  14.821 -0.1483  0.1182  0.7714
   60DOPE  H15R 7682   7.253   1.226  14.845 -1.6391 -0.4648 -2.2602
   60DOPE  H15S 7683   7.308   1.396  14.904  2.2049  0.1171 -0.2783
   60DOPE  C216 7684   7.360   1.349  14.692  0.5130  0.5074  0.3338
   60DOPE  H16R 7685   7.370   1.457  14.667 -1.2922  0.6650  0.2200
   60DOPE  H16S 7686   7.318   1.307  14.598  1.9077 -0.4087  0.0811
   60DOPE  C217 7687   7.503   1.295  14.716 -0.3973  0.0497  0.3520
   60DOPE  H17R 7688   7.497   1.187  14.741  0.5846 -0.4457 -1.3530
   60DOPE  H17S 7689   7.533   1.357  14.803 -1.2814  0.6176  0.2567
   60DOPE  C218 7690   7.608   1.309  14.594  0.4130  0.4592  0.2175
   60DOPE  H18R 7691   7.700   1.253  14.621  1.5766  1.4471 -1.4624
   60DOPE  H18S 7692   7.634   1.416  14.578 -0.5464  0.6148 -0.3929
   60DOPE  H18T 7693   7.555   1.264  14.507  0.9625 -0.8096  0.5259
   60DOPE   C33 7694   6.759   0.394  14.187  0.1834 -1.1741  0.1557
   60DOPE   H3X 7695   6.733   0.314  14.114  0.1229 -0.7902 -0.2502
   60DOPE   H3Y 7696   6.666   0.433  14.234 -0.3009  0.5556 -2.0722
   60DOPE   C34 7697   6.843   0.328  14.303  0.6848 -0.1846 -0.1211
   60DOPE   H4X 7698   6.930   0.267  14.268  0.4958 -0.6238  0.1595
   60DOPE   H4Y 7699   6.895   0.409  14.357 -0.6503  0.3891  0.3332
   60DOPE   C35 7700   6.759   0.250  14.407 -0.1286 -0.1966 -0.4610
   60DOPE   H5X 7701   6.699   0.169  14.360 -1.0236  0.0053  0.2988
   60DOPE   H5Y 7702   6.677   0.317  14.440 -0.2142 -0.4800 -0.0783
   60DOPE   C36 7703   6.851   0.200  14.523  0.0886 -0.3763  1.1680
   60DOPE   H6X 7704   6.886   0.280  14.592 -4.2913  1.1289  1.9452
   60DOPE   H6Y 7705   6.929   0.131  14.484  1.1862  0.6397  1.5112
   60DOPE   C37 7706   6.761   0.122  14.614 -0.0317  0.4111  0.2640
   60DOPE   H7X 7707   6.687   0.193  14.657 -0.7170  0.5501 -1.0760
   60DOPE   H7Y 7708   6.725   0.037  14.551 -0.8022  0.2954  0.8530
   60DOPE   C38 7709   6.832   0.060  14.734  0.1551 -0.2284 -0.6049
   60DOPE   H8X 7710   6.852   0.147  14.800 -1.1155  0.3842 -0.9874
   60DOPE   H8Y 7711   6.927   0.017  14.696 -0.8286 -1.5435 -1.6404
   60DOPE   C39 7712   6.738  -0.039  14.801  0.2012  0.0016 -0.4372
   60DOPE   H9X 7713   6.720  -0.129  14.741 -0.4320 -0.1492 -0.0429
   60DOPE  C310 7714   6.684  -0.028  14.927 -0.8588  0.6027 -0.0447
   60DOPE  H10X 7715   6.620  -0.106  14.970  0.5783  0.7584  2.5889
   60DOPE  C311 7716   6.713   0.086  15.023 -0.1970 -0.1014  0.0524
   60DOPE  H11X 7717   6.737   0.044  15.122  1.6622 -1.5178 -0.9289
   60DOPE  H11Y 7718   6.807   0.136  14.988  0.4441 -1.7812 -0.7149
   60DOPE  C312 7719   6.593   0.181  15.046  0.5402 -1.0791  0.1463
   60DOPE  H12X 7720   6.634   0.256  15.116 -0.5839 -1.5471  1.3549
   60DOPE  H12Y 7721   6.508   0.133  15.101  1.7240 -0.3805  2.7108
   60DOPE  C313 7722   6.561   0.252  14.909 -0.2190  0.0451 -0.8871
   60DOPE  H13X 7723   6.658   0.266  14.857  1.4895 -0.6225  1.8931
   60DOPE  H13Y 7724   6.514   0.171  14.850  0.1640 -2.4500  1.9542
   60DOPE  C314 7725   6.477   0.379  14.918 -0.0308 -0.5054  0.8592
   60DOPE  H14X 7726   6.426   0.401  14.821 -0.1427  0.5355  1.1462
   60DOPE  H14Y 7727   6.536   0.470  14.941  1.2201 -0.6276 -1.4942
   60DOPE  C315 7728   6.364   0.364  15.020  0.4624  0.0181  0.1927
   60DOPE  H15X 7729   6.394   0.400  15.121  0.0723  0.5530  0.1274
   60DOPE  H15Y 7730   6.364   0.254  15.033 -0.4017  0.0766  0.7949
   60DOPE  C316 7731   6.215   0.406  14.990 -0.4767  0.7190 -0.4761
   60DOPE  H16X 7732   6.200   0.511  14.957 -2.9361  0.9847  1.2083
   60DOPE  H16Y 7733   6.154   0.402  15.083  0.8630 -3.2210  0.4395
   60DOPE  C317 7734   6.140   0.311  14.897 -0.0671 -0.0300  0.1031
   60DOPE  H17X 7735   6.196   0.303  14.801  0.6795  3.0062  0.1873
   60DOPE  H17Y 7736   6.141   0.209  14.941  0.4647 -0.8613 -1.7341
   60DOPE  C318 7737   5.989   0.332  14.866 -0.2570 -0.3190 -0.3142
   60DOPE  H18X 7738   5.939   0.254  14.804 -3.1954  0.3591  1.0275
   60DOPE  H18Y 7739   5.926   0.372  14.948 -1.2088  3.7591 -2.6971
   60DOPE  H18Z 7740   5.977   0.419  14.797 -1.7957 -0.6540 -0.5041
   6123SM     N 7741   1.883   4.913  17.383  0.0934 -0.1184 -0.3357
   6123SM   C15 7742   1.740   4.880  17.416  0.3857 -1.3250 -0.6554
   6123SM  H15A 7743   1.681   4.890  17.325  1.4774  0.6738 -1.1932
   6123SM  H15B 7744   1.708   4.949  17.492  2.0077  0.7821 -1.7668
   6123SM  H15C 7745   1.734   4.779  17.454 -0.1573 -0.9056  0.4152
   6123SM   C14 7746   1.884   5.060  17.341 -0.6615 -0.3750  0.7294
   6123SM  H14A 7747   1.979   5.107  17.320 -0.1758 -1.4177  0.5391
   6123SM  H14B 7748   1.824   5.125  17.403 -3.3828 -0.9174 -1.1469
   6123SM  H14C 7749   1.836   5.068  17.244  1.0972 -0.4669 -0.2021
   6123SM   C13 7750   1.975   4.888  17.505 -0.3227  0.1870  0.4714
   6123SM  H13A 7751   1.937   4.951  17.584  0.1905  1.8732 -0.5456
   6123SM  H13B 7752   2.074   4.923  17.478 -1.3444  2.6574 -0.3766
   6123SM  H13C 7753   1.978   4.784  17.532 -0.1527 -0.4751 -1.8574
   6123SM   C12 7754   1.934   4.840  17.263 -0.0671  0.4713 -0.1262
   6123SM  H12A 7755   2.030   4.882  17.237  1.4413 -1.6083  1.6934
   6123SM  H12B 7756   1.867   4.863  17.182  0.5073 -1.7837 -1.3157
   6123SM   C11 7757   1.948   4.687  17.278  0.5953  0.7022  0.1190
   6123SM  H11A 7758   2.023   4.672  17.358 -1.4762 -0.4605  1.9686
   6123SM  H11B 7759   1.983   4.634  17.187  1.4504 -0.1453  0.9262
   6123SM     P 7760   1.764   4.510  17.241 -0.0540  0.1834  0.3229
   6123SM   O13 7761   1.850   4.392  17.252  0.6906 -0.0953  0.1977
   6123SM   O14 7762   1.622   4.498  17.263  0.4719 -0.0713  0.0516
   6123SM   O11 7763   1.781   4.572  17.096 -0.0219 -0.4851  0.1818
   6123SM   O12 7764   1.832   4.621  17.336  0.6340 -0.5051  0.0381
   6123SM   C1S 7765   1.765   4.502  16.981 -0.0389 -0.7302  0.0210
   6123SM   H1S 7766   1.694   4.419  17.001 -1.5634  0.4373 -0.3469
   6123SM   H1T 7767   1.863   4.451  16.964 -1.1082 -3.1260  0.5122
   6123SM    NF 7768   1.706   4.489  16.749  0.4970  0.4671  0.4823
   6123SM   HNF 7769   1.775   4.494  16.677  0.7565  0.5141  0.7306
   6123SM   C2S 7770   1.713   4.583  16.858 -0.0663 -0.1805  0.7768
   6123SM   H2S 7771   1.607   4.610  16.877 -0.2484 -1.1213  1.1719
   6123SM   C3S 7772   1.791   4.720  16.842  0.3733 -0.2150  0.2461
   6123SM   H3S 7773   1.899   4.696  16.830  0.5194  0.5249  0.0845
   6123SM    O3 7774   1.787   4.810  16.954  0.1401 -0.9093 -0.2957
   6123SM   HO3 7775   1.757   4.759  17.029 -2.2368  0.5117 -0.1773
   6123SM   C4S 7776   1.750   4.790  16.709 -0.5191  0.2985 -0.1189
   6123SM   H4S 7777   1.817   4.771  16.623 -0.5847 -0.2698 -0.0494
   6123SM   C5S 7778   1.642   4.869  16.682 -0.0412  0.6188 -0.5127
   6123SM   H5S 7779   1.568   4.887  16.761 -1.0782 -0.7036 -1.1526
   6123SM   C6S 7780   1.620   4.947  16.552  0.4550 -0.4504 -0.1721
   6123SM   H6S 7781   1.697   4.929  16.474 -0.1537  0.7190 -1.0588
   6123SM   H6T 7782   1.633   5.054  16.576 -0.9337 -0.0383 -1.1519
   6123SM   C7S 7783   1.476   4.943  16.487 -0.1216  0.6737  0.1588
   6123SM   H7S 7784   1.461   5.027  16.416 -0.2338  0.9967  0.5641
   6123SM   H7T 7785   1.409   4.963  16.573  1.2261 -1.6113  1.8765
   6123SM   C8S 7786   1.440   4.813  16.413 -0.2704 -0.2094  0.6811
   6123SM   H8S 7787   1.334   4.818  16.380  0.2291  2.7404 -0.8149
   6123SM   H8T 7788   1.457   4.725  16.478  0.7312 -0.3549  0.2420
   6123SM   C9S 7789   1.516   4.793  16.276 -0.2170 -0.5437 -0.4161
   6123SM   H9S 7790   1.626   4.795  16.292 -0.5583  0.3614  2.2864
   6123SM   H9T 7791   1.488   4.879  16.211 -0.7091 -0.5265 -0.1835
   6123SM  C10S 7792   1.486   4.662  16.205  0.1789 -0.9216 -0.4654
   6123SM  H10S 7793   1.517   4.663  16.098  2.5568  0.6974  0.1661
   6123SM  H10T 7794   1.378   4.645  16.189 -0.2549 -0.2446  1.5549
   6123SM  C11S 7795   1.547   4.539  16.279  0.3567  0.1965 -0.3974
   6123SM  H11S 7796   1.479   4.522  16.365 -0.0609  0.9637 -0.5671
   6123SM  H11T 7797   1.650   4.555  16.318 -0.1602  0.9262  0.7257
   6123SM  C12S 7798   1.539   4.420  16.180 -0.3984  1.2428  0.1831
   6123SM  H12S 7799   1.621   4.439  16.108 -0.8146  2.5696  0.0361
   6123SM  H12T 7800   1.440   4.435  16.133 -0.0679  1.6274 -0.4037
   6123SM  C13S 7801   1.544   4.281  16.253 -0.3874  0.6508  0.6015
   6123SM  H13S 7802   1.624   4.287  16.330  1.0083  1.6428 -0.8648
   6123SM  H13T 7803   1.580   4.209  16.176 -0.1824  0.4472  0.8799
   6123SM  C14S 7804   1.407   4.230  16.289  0.1688  0.2757 -0.4269
   6123SM  H14S 7805   1.364   4.309  16.355  0.8794 -1.1353  1.8549
   6123SM  H14T 7806   1.414   4.136  16.348 -0.2122  0.3453 -0.2701
   6123SM  C15S 7807   1.317   4.207  16.168  0.2655 -0.0016 -0.6175
   6123SM  H15S 7808   1.375   4.150  16.092 -0.4499 -0.3509 -0.9196
   6123SM  H15T 7809   1.281   4.304  16.128 -1.7764 -0.8990 -1.1223
   6123SM  C16S 7810   1.196   4.121  16.196 -0.2893 -0.4120  0.0695
   6123SM  H16S 7811   1.124   4.173  16.263  0.8879  0.7841  0.4513
   6123SM  H16T 7812   1.222   4.029  16.253  0.6064  0.5620  1.3128
   6123SM  C17S 7813   1.127   4.069  16.070 -0.2300  1.0804 -0.7104
   6123SM  H17S 7814   1.181   3.995  16.008 -1.6217  0.7986 -1.6401
   6123SM  H17T 7815   1.108   4.158  16.006  0.8017 -0.2359 -2.9693
   6123SM  C18S 7816   0.990   4.001  16.101 -0.7156 -0.3597  0.6706
   6123SM  H18S 7817   0.940   3.965  16.009  1.0441 -0.5187 -0.2652
   6123SM  H18T 7818   0.928   4.072  16.159  0.6331 -0.1447  1.9071
   6123SM  H18U 7819   1.009   3.912  16.165 -3.2639 -2.3707 -1.1874
   6123SM   C1F 7820   1.617   4.385  16.742 -0.1955  0.0632  0.4827
   6123SM    OF 7821   1.522   4.380  16.820  0.0279  0.4864  0.3993
   6123SM   C2F 7822   1.646   4.278  16.640  0.3105  0.1439 -0.9861
   6123SM   H2F 7823   1.694   4.329  16.553  0.0409 -0.4824 -1.5121
   6123SM   H2G 7824   1.554   4.225  16.608  1.1776 -0.7905 -2.0173
   6123SM   C3F 7825   1.742   4.175  16.705  0.3043  0.0998 -0.5788
   6123SM   H3F 7826   1.720   4.150  16.811 -3.3779  1.4946 -0.8772
   6123SM   H3G 7827   1.851   4.192  16.692  0.4423 -0.1277  0.2481
   6123SM   C4F 7828   1.710   4.036  16.640 -1.0562  0.2169 -0.0182
   6123SM   H4F 7829   1.601   4.019  16.649 -0.6478 -2.5980  0.6573
   6123SM   H4G 7830   1.760   3.949  16.689  0.5206 -0.0271 -1.9408
   6123SM   C5F 7831   1.756   4.022  16.493  0.4091  0.1294  0.7601
   6123SM   H5F 7832   1.866   4.036  16.490  0.4578  0.2797  2.5062
   6123SM   H5G 7833   1.713   4.096  16.422  1.6824  0.5758  0.4214
   6123SM   C6F 7834   1.711   3.887  16.434 -1.1288 -0.0148 -0.5469
   6123SM   H6F 7835   1.600   3.882  16.425 -1.1999  0.5353 -0.0529
   6123SM   H6G 7836   1.744   3.806  16.502 -2.8303 -1.3832 -1.2701
   6123SM   C7F 7837   1.791   3.866  16.304  0.0613 -0.4761 -0.2975
   6123SM   H7F 7838   1.806   3.757  16.291  3.2745 -0.4077  1.8165
   6123SM   H7G 7839   1.895   3.904  16.305 -0.2510  0.5262 -1.9465
   6123SM   C8F 7840   1.727   3.941  16.185 -0.4092 -0.1663 -0.3427
   6123SM   H8F 7841   1.758   4.047  16.183 -0.6167 -0.1154 -1.6225
   6123SM   H8G 7842   1.617   3.949  16.188 -0.4488 -0.2607 -1.2694
   6123SM   C9F 7843   1.762   3.871  16.053 -0.3851  0.3337  0.7465
   6123SM   H9F 7844   1.739   3.764  16.072  0.3349  0.3205  1.6183
   6123SM   H9G 7845   1.873   3.870  16.051 -0.3392  0.9208  2.2787
   6123SM  C10F 7846   1.695   3.903  15.920  0.0543 -0.0495 -0.6544
   6123SM  H10F 7847   1.725   4.008  15.897 -0.0774  0.5971  1.8731
   6123SM  H10G 7848   1.584   3.897  15.922  0.0937 -0.8564 -0.3693
   6123SM  C11F 7849   1.743   3.819  15.803  1.1161  0.3243  0.4181
   6123SM  H11F 7850   1.732   3.710  15.825  0.3888  0.9484  3.4846
   6123SM  H11G 7851   1.848   3.838  15.773  1.0595 -0.7802 -0.6063
   6123SM  C12F 7852   1.667   3.840  15.668 -0.5643  0.1233 -0.5460
   6123SM  H12F 7853   1.701   3.938  15.629  1.9041  0.3356  1.8593
   6123SM  H12G 7854   1.557   3.844  15.684 -0.6033  1.8263 -0.9758
   6123SM  C13F 7855   1.716   3.736  15.562  0.6743 -0.7563  0.1893
   6123SM  H13F 7856   1.682   3.636  15.595  0.0401 -0.7288 -0.3695
   6123SM  H13G 7857   1.827   3.739  15.559  0.7017  1.1672  1.3227
   6123SM  C14F 7858   1.665   3.768  15.422 -0.0215 -0.8159  0.3825
   6123SM  H14F 7859   1.710   3.694  15.352 -0.6963 -2.0790  1.2483
   6123SM  H14G 7860   1.700   3.867  15.386 -1.2466 -0.3796  0.3456
   6123SM  C15F 7861   1.513   3.780  15.396 -0.5017  0.2231 -0.0016
   6123SM  H15F 7862   1.455   3.827  15.479  0.6165  0.6914  0.5319
   6123SM  H15G 7863   1.477   3.675  15.389  1.4160 -0.8218  3.3451
   6123SM  C16F 7864   1.490   3.842  15.260 -0.2199  0.4461  0.5992
   6123SM  H16F 7865   1.561   3.788  15.194  0.8226  0.9812  1.2543
   6123SM  H16G 7866   1.530   3.945  15.254  1.2842 -0.2132 -1.7996
   6123SM  C17F 7867   1.344   3.836  15.210 -0.0793  0.4431  0.0015
   6123SM  H17F 7868   1.296   3.788  15.298  0.6886  0.9029  0.6879
   6123SM  H17G 7869   1.332   3.770  15.122 -2.9756  0.8942 -0.0315
   6123SM  C18F 7870   1.296   3.979  15.185  0.4591 -0.1555  0.2696
   6123SM  H18F 7871   1.357   4.023  15.103  0.9958 -2.1879 -0.4905
   6123SM  H18G 7872   1.312   4.042  15.275  3.9298 -0.3033 -0.1099
   6123SM  C19F 7873   1.150   3.984  15.162  1.3347 -0.7684  0.0424
   6123SM  H19F 7874   1.116   4.087  15.138  1.0076 -0.7476  0.5780
   6123SM  H19G 7875   1.090   3.952  15.250 -2.1241  0.1011 -1.8098
   6123SM  C20F 7876   1.092   3.918  15.034  0.2707 -0.2525 -0.1909
   6123SM  H20F 7877   1.123   3.812  15.023  1.6139  0.2121 -1.1061
   6123SM  H20G 7878   1.144   3.968  14.950 -0.0875 -1.1245 -0.9470
   6123SM  C21F 7879   0.941   3.949  15.014 -0.4184  0.3031 -0.4183
   6123SM  H21F 7880   0.941   4.051  14.972  1.9852  0.8584  0.7595
   6123SM  H21G 7881   0.891   3.952  15.114  0.4912  4.1923  0.0758
   6123SM  C22F 7882   0.873   3.850  14.916  0.9210 -0.1910 -0.2740
   6123SM  H22F 7883   0.880   3.747  14.957  0.9012 -0.1479 -0.1618
   6123SM  H22G 7884   0.933   3.855  14.823  0.2151  0.1285 -0.7208
   6123SM  C23F 7885   0.726   3.888  14.884  0.4728  0.1230 -0.2289
   6123SM  H23F 7886   0.672   3.895  14.981  1.4551  1.3826  0.2600
   6123SM  H23G 7887   0.678   3.813  14.818  0.2331 -1.6555  1.8325
   6123SM  H23H 7888   0.729   3.992  14.844  1.1127 -0.3037 -1.3221
   6223SM     N 7889   1.945   3.760  17.001 -0.5234  0.5339  0.1994
   6223SM   C15 7890   1.926   3.683  16.882  0.0877  0.4819  0.6043
   6223SM  H15A 7891   1.916   3.577  16.898 -0.3321  0.3798 -0.2482
   6223SM  H15B 7892   2.006   3.697  16.812 -1.4495  0.9391 -1.1496
   6223SM  H15C 7893   1.832   3.708  16.833  0.2974 -0.4228 -0.2911
   6223SM   C14 7894   1.841   3.715  17.102 -0.4420 -0.3440  0.1894
   6223SM  H14A 7895   1.744   3.715  17.055 -1.1900 -1.3296  1.6891
   6223SM  H14B 7896   1.838   3.782  17.186 -2.5875  2.1600 -1.6898
   6223SM  H14C 7897   1.862   3.616  17.138  1.2942 -0.2834 -0.5187
   6223SM   C13 7898   2.074   3.725  17.065 -0.3787  0.5033  0.0091
   6223SM  H13A 7899   2.084   3.618  17.065 -1.9171  0.3109 -1.6546
   6223SM  H13B 7900   2.087   3.753  17.169  4.7115 -0.4793 -0.1061
   6223SM  H13C 7901   2.158   3.762  17.009  1.2655 -0.1968  1.9096
   6223SM   C12 7902   1.929   3.906  16.980  0.1079 -0.9051  0.8036
   6223SM  H12A 7903   1.939   3.965  17.070  0.2223 -1.4948  1.1859
   6223SM  H12B 7904   1.830   3.929  16.942  0.8931 -1.1650 -1.5513
   6223SM   C11 7905   2.029   3.976  16.878 -0.1410  0.1031  0.5590
   6223SM  H11A 7906   2.000   4.081  16.859  2.5495  0.8526  0.2321
   6223SM  H11B 7907   2.031   3.928  16.777  0.0077 -2.1022  1.5473
   6223SM     P 7908   2.239   4.084  17.010 -0.2859  0.4247  0.3284
   6223SM   O13 7909   2.141   4.151  17.101  0.0402 -0.0325  0.0031
   6223SM   O14 7910   2.355   4.017  17.069  0.2456 -0.0910 -0.4009
   6223SM   O11 7911   2.275   4.191  16.899  0.5517  0.1862  0.7410
   6223SM   O12 7912   2.163   3.971  16.921  0.2243  0.6147 -0.2119
   6223SM   C1S 7913   2.392   4.183  16.819  0.5646  0.7992  0.5974
   6223SM   H1S 7914   2.450   4.092  16.844 -0.5347 -0.6212 -1.7118
   6223SM   H1T 7915   2.450   4.275  16.840 -1.7914  2.1847  1.4131
   6223SM    NF 7916   2.500   4.174  16.601  0.0690 -0.0067  0.5837
   6223SM   HNF 7917   2.509   4.251  16.539 -1.6286 -1.8575 -2.1653
   6223SM   C2S 7918   2.372   4.160  16.667 -0.7255  0.0704 -0.1163
   6223SM   H2S 7919   2.344   4.054  16.648  1.9485 -0.8092  0.4421
   6223SM   C3S 7920   2.252   4.248  16.614 -0.2826  0.3379 -0.2856
   6223SM   H3S 7921   2.271   4.357  16.621 -0.9201  0.6889 -2.8906
   6223SM    O3 7922   2.129   4.227  16.683 -0.6731 -0.4885 -0.6929
   6223SM   HO3 7923   2.162   4.179  16.760  1.0319  2.5681  0.6791
   6223SM   C4S 7924   2.220   4.212  16.474  0.1432  0.1372 -0.0826
   6223SM   H4S 7925   2.144   4.133  16.465 -0.0518  0.2532  0.5265
   6223SM   C5S 7926   2.232   4.280  16.361  0.0325 -0.3872 -0.0534
   6223SM   H5S 7927   2.266   4.383  16.374  1.3854 -0.8879  0.5763
   6223SM   C6S 7928   2.160   4.256  16.232  0.7571  0.0141 -0.3191
   6223SM   H6S 7929   2.206   4.166  16.186 -1.8472 -0.6267 -1.9030
   6223SM   H6T 7930   2.168   4.340  16.160 -1.0321  1.6791  1.2798
   6223SM   C7S 7931   2.008   4.226  16.232 -0.2881 -0.1289 -0.0457
   6223SM   H7S 7932   1.969   4.302  16.303  1.1688  1.9294 -1.3685
   6223SM   H7T 7933   2.004   4.125  16.278  1.1524  0.4423  1.4446
   6223SM   C8S 7934   1.940   4.265  16.098  0.0070 -0.1346 -0.5289
   6223SM   H8S 7935   1.958   4.374  16.091  1.0657 -0.2778 -0.2744
   6223SM   H8T 7936   1.830   4.254  16.107  0.1957 -0.7193  1.8013
   6223SM   C9S 7937   2.018   4.209  15.970 -0.1491  0.0808  0.7236
   6223SM   H9S 7938   2.012   4.099  15.962  1.1089  0.0670 -0.3993
   6223SM   H9T 7939   2.123   4.244  15.976 -1.0580  2.8604  2.1399
   6223SM  C10S 7940   1.960   4.263  15.835  0.6465 -0.1086 -0.4337
   6223SM  H10S 7941   1.943   4.372  15.826 -1.2086 -0.3537 -0.3042
   6223SM  H10T 7942   1.856   4.224  15.832 -0.1321  1.5265  2.1569
   6223SM  C11S 7943   2.039   4.218  15.715  0.2664 -0.4313 -0.1034
   6223SM  H11S 7944   2.069   4.111  15.721 -0.2515 -0.5259  1.1057
   6223SM  H11T 7945   2.132   4.277  15.727 -0.7690  0.9237  1.7160
   6223SM  C12S 7946   1.960   4.242  15.592  0.2731  0.1579  0.0797
   6223SM  H12S 7947   1.927   4.347  15.577  2.8398  0.8972 -1.0543
   6223SM  H12T 7948   1.876   4.170  15.599  0.0644  0.3190 -0.7267
   6223SM  C13S 7949   2.049   4.195  15.475 -0.6501 -0.5799  0.5396
   6223SM  H13S 7950   2.064   4.085  15.474  0.1861 -0.4968  1.7002
   6223SM  H13T 7951   2.147   4.243  15.500 -1.7474  1.0261  2.0147
   6223SM  C14S 7952   2.010   4.228  15.334  0.4037  0.4310  0.0266
   6223SM  H14S 7953   2.100   4.213  15.271 -0.1274  1.0336 -0.9139
   6223SM  H14T 7954   1.990   4.336  15.322  0.8023  0.4003 -1.0485
   6223SM  C15S 7955   1.892   4.143  15.293  0.3086  0.2723 -0.3378
   6223SM  H15S 7956   1.800   4.186  15.339  0.0508 -1.4337  0.8031
   6223SM  H15T 7957   1.908   4.039  15.329 -0.0814 -0.2363 -1.5512
   6223SM  C16S 7958   1.878   4.141  15.142 -0.4572 -0.0097 -0.7148
   6223SM  H16S 7959   1.971   4.115  15.089 -0.0531 -0.2758  0.1039
   6223SM  H16T 7960   1.849   4.246  15.123  0.8285  0.5413  0.2034
   6223SM  C17S 7961   1.777   4.037  15.092 -0.2502  0.2572 -0.4926
   6223SM  H17S 7962   1.683   4.046  15.150  1.2734 -0.5441  2.3246
   6223SM  H17T 7963   1.814   3.936  15.121  0.7477  0.7610  0.0605
   6223SM  C18S 7964   1.745   4.029  14.942 -0.2397  0.0838 -0.5172
   6223SM  H18S 7965   1.662   3.957  14.930 -1.5730  1.1793  1.5888
   6223SM  H18T 7966   1.834   4.014  14.876 -1.0666 -1.7823 -1.2573
   6223SM  H18U 7967   1.710   4.130  14.912 -1.6252 -0.6463 -1.4991
   6223SM   C1F 7968   2.605   4.090  16.617 -0.6232 -1.4545  1.5036
   6223SM    OF 7969   2.600   3.989  16.682  0.1608 -0.2068 -0.2311
   6223SM   C2F 7970   2.725   4.123  16.531  0.3941 -0.6870  0.6373
   6223SM   H2F 7971   2.811   4.132  16.601  0.4865 -0.7057  0.5268
   6223SM   H2G 7972   2.701   4.221  16.485 -0.8703 -1.0149  0.5659
   6223SM   C3F 7973   2.753   4.020  16.422 -0.4817  0.0493 -0.3309
   6223SM   H3F 7974   2.668   4.009  16.352 -0.7922  2.1995 -0.3442
   6223SM   H3G 7975   2.759   3.920  16.470 -0.4544 -0.4214 -1.2739
   6223SM   C4F 7976   2.879   4.053  16.340 -0.2618  0.5459  0.1924
   6223SM   H4F 7977   2.958   4.071  16.416  0.0167 -0.1208  0.0624
   6223SM   H4G 7978   2.873   4.151  16.288  0.7286  0.2175 -0.5586
   6223SM   C5F 7979   2.942   3.957  16.238 -0.4509 -0.2930  0.2918
   6223SM   H5F 7980   2.965   3.860  16.288 -0.0019  0.1456  0.9508
   6223SM   H5G 7981   3.033   4.004  16.194  0.3020 -0.3674  1.7156
   6223SM   C6F 7982   2.841   3.937  16.120 -0.5101  0.4554  0.4537
   6223SM   H6F 7983   2.743   3.898  16.155 -0.9317  2.4366  1.5811
   6223SM   H6G 7984   2.893   3.874  16.045  1.9263  1.6432  1.0372
   6223SM   C7F 7985   2.802   4.058  16.035  0.6500  0.1570 -0.1555
   6223SM   H7F 7986   2.760   4.140  16.097 -0.1722  0.9061 -1.6428
   6223SM   H7G 7987   2.718   4.030  15.968 -0.4074 -0.3849  1.3349
   6223SM   C8F 7988   2.921   4.118  15.952  0.2749 -0.0084 -0.1084
   6223SM   H8F 7989   2.943   4.041  15.875 -1.7981  0.9136 -1.6973
   6223SM   H8G 7990   3.016   4.141  16.006  0.8063  0.7585 -1.3432
   6223SM   C9F 7991   2.893   4.247  15.876  0.2773 -0.2556  0.6693
   6223SM   H9F 7992   2.885   4.334  15.945  1.4585 -1.3239  2.2250
   6223SM   H9G 7993   2.792   4.220  15.839 -0.2633  0.5627  1.5078
   6223SM  C10F 7994   2.987   4.275  15.755  0.0242 -0.2890 -0.0295
   6223SM  H10F 7995   3.090   4.247  15.788 -0.0409 -0.3648  0.1058
   6223SM  H10G 7996   2.979   4.383  15.732  0.9800 -0.5860 -1.9774
   6223SM  C11F 7997   2.958   4.200  15.625  0.5767  0.0131 -0.3934
   6223SM  H11F 7998   2.857   4.221  15.585  0.9356 -0.5828 -1.6479
   6223SM  H11G 7999   2.950   4.091  15.648 -0.4011 -0.1419 -1.3884
   6223SM  C12F 8000   3.058   4.232  15.508  0.9438  0.1611  0.0871
   6223SM  H12F 8001   3.158   4.193  15.538  0.9035  0.2906  0.3966
   6223SM  H12G 8002   3.061   4.343  15.494 -1.4798  0.2485 -0.2345
   6223SM  C13F 8003   3.027   4.160  15.369  0.2784 -0.5387 -0.2767
   6223SM  H13F 8004   3.082   4.203  15.283  1.5991 -0.5447  0.5318
   6223SM  H13G 8005   2.921   4.151  15.337  0.9326 -0.5010 -2.6034
   6223SM  C14F 8006   3.076   4.015  15.356  0.4297 -1.2336  0.1920
   6223SM  H14F 8007   3.029   3.955  15.436  0.6677  1.0605  2.1554
   6223SM  H14G 8008   3.183   4.006  15.385  0.6024  1.1011  0.4451
   6223SM  C15F 8009   3.049   3.954  15.214 -0.3290  0.5336 -0.0774
   6223SM  H15F 8010   3.085   4.026  15.138 -1.9472 -0.0899 -1.5053
   6223SM  H15G 8011   2.939   3.957  15.200 -0.1149  0.5508 -2.1651
   6223SM  C16F 8012   3.126   3.824  15.186  0.1241 -0.7478  0.0285
   6223SM  H16F 8013   3.228   3.836  15.228 -0.8810 -2.2225  3.1887
   6223SM  H16G 8014   3.145   3.817  15.077 -0.3191  0.2760 -0.1240
   6223SM  C17F 8015   3.063   3.696  15.235 -0.8653  0.3845  0.0681
   6223SM  H17F 8016   2.968   3.685  15.178 -0.7981 -0.0620  0.0375
   6223SM  H17G 8017   3.059   3.688  15.345  2.5364 -1.9405  0.1655
   6223SM  C18F 8018   3.153   3.576  15.184  0.1572 -0.6413 -0.8352
   6223SM  H18F 8019   3.173   3.495  15.256  1.0855  0.4740  0.2000
   6223SM  H18G 8020   3.255   3.614  15.160  0.6422 -1.4082 -0.0286
   6223SM  C19F 8021   3.110   3.515  15.053 -0.0091 -0.4760  0.4262
   6223SM  H19F 8022   3.103   3.598  14.979 -0.0433 -1.1130 -0.2950
   6223SM  H19G 8023   3.005   3.482  15.067 -0.9483  1.6271 -1.0943
   6223SM  C20F 8024   3.219   3.426  14.982 -0.5745  0.5298  0.4693
   6223SM  H20F 8025   3.225   3.327  15.033  3.5943  0.9061  1.0284
   6223SM  H20G 8026   3.313   3.481  15.002 -0.3437  0.5886 -0.6930
   6223SM  C21F 8027   3.177   3.415  14.833  0.1640  0.1071 -0.2076
   6223SM  H21F 8028   3.175   3.513  14.780 -2.2555 -0.3334 -1.0535
   6223SM  H21G 8029   3.081   3.361  14.816 -0.5913  1.0165  1.0118
   6223SM  C22F 8030   3.283   3.342  14.752  0.1246  0.9817 -0.2635
   6223SM  H22F 8031   3.305   3.241  14.793 -0.6256  2.0541  3.0879
   6223SM  H22G 8032   3.377   3.402  14.760 -0.1264  1.5651 -1.4577
   6223SM  C23F 8033   3.262   3.326  14.600  0.1449 -0.3928 -0.0322
   6223SM  H23F 8034   3.174   3.259  14.589  0.2119 -0.5766  0.5154
   6223SM  H23G 8035   3.352   3.292  14.545  0.8624 -2.3140  2.1514
   6223SM  H23H 8036   3.232   3.426  14.561  0.7569 -0.3245 -0.3310
   6323SM     N 8037   2.520   4.587  17.255  0.0038 -0.1393  0.5297
   6323SM   C15 8038   2.651   4.612  17.181 -0.6612 -0.5157 -0.2448
   6323SM  H15A 8039   2.676   4.709  17.140  0.8876 -0.0254  1.6724
   6323SM  H15B 8040   2.669   4.537  17.106  0.7985  0.2228 -0.6667
   6323SM  H15C 8041   2.734   4.585  17.244 -1.6286 -1.1051  0.8137
   6323SM   C14 8042   2.529   4.456  17.328  0.2681 -0.3911  0.6851
   6323SM  H14A 8043   2.524   4.375  17.257  0.7001  0.0009  0.2042
   6323SM  H14B 8044   2.446   4.441  17.395 -0.1920 -1.7340 -0.1438
   6323SM  H14C 8045   2.619   4.463  17.388  0.0523  1.2101  0.8508
   6323SM   C13 8046   2.488   4.698  17.344  0.1602 -0.0963  0.1669
   6323SM  H13A 8047   2.569   4.726  17.410 -1.0775  2.4379  0.7658
   6323SM  H13B 8048   2.394   4.690  17.397  0.3743  3.0264  1.2672
   6323SM  H13C 8049   2.479   4.798  17.304 -0.4647  2.0321  4.9495
   6323SM   C12 8050   2.412   4.575  17.143  0.5399 -0.4138 -0.1669
   6323SM  H12A 8051   2.406   4.673  17.099 -1.8373 -0.3550  0.1279
   6323SM  H12B 8052   2.317   4.552  17.189  0.7896  0.9227  1.1068
   6323SM   C11 8053   2.431   4.464  17.042  0.3440  0.0595 -0.1197
   6323SM  H11A 8054   2.334   4.438  16.995 -1.9271  2.1390  2.9656
   6323SM  H11B 8055   2.448   4.369  17.097  0.7492 -0.2786 -0.8116
   6323SM     P 8056   2.493   4.589  16.824 -0.1074  0.2811 -0.3597
   6323SM   O13 8057   2.561   4.538  16.705  0.4602 -0.0815  0.3652
   6323SM   O14 8058   2.346   4.615  16.810 -0.5620 -0.5328  0.1599
   6323SM   O11 8059   2.561   4.729  16.861  0.2010  0.0986  0.1058
   6323SM   O12 8060   2.534   4.489  16.945 -0.0271 -0.1797 -0.0930
   6323SM   C1S 8061   2.697   4.743  16.866  0.1777 -0.2983  0.1669
   6323SM   H1S 8062   2.756   4.649  16.858 -0.0551 -0.3947 -0.5379
   6323SM   H1T 8063   2.717   4.785  16.966 -3.0593  0.1669  0.7241
   6323SM    NF 8064   2.900   4.851  16.754 -0.0081  0.4700  0.1604
   6323SM   HNF 8065   2.943   4.928  16.799  1.0521  1.3038 -2.1361
   6323SM   C2S 8066   2.756   4.841  16.759 -0.0811 -0.3336 -0.2363
   6323SM   H2S 8067   2.719   4.803  16.661  1.9867  0.8165 -1.5521
   6323SM   C3S 8068   2.699   4.989  16.775 -0.7835  0.0888 -0.5348
   6323SM   H3S 8069   2.770   5.041  16.843  1.3215 -0.2963 -2.3272
   6323SM    O3 8070   2.575   4.991  16.836 -0.9581 -0.1980 -0.6027
   6323SM   HO3 8071   2.554   4.898  16.849 -0.1817 -0.5395 -1.6561
   6323SM   C4S 8072   2.694   5.067  16.648 -0.6596  0.2358 -0.4776
   6323SM   H4S 8073   2.639   5.016  16.567  1.7849 -0.6646 -1.6749
   6323SM   C5S 8074   2.748   5.188  16.623  0.7352 -0.5112 -0.4211
   6323SM   H5S 8075   2.797   5.238  16.707  0.5961 -2.0412  0.6265
   6323SM   C6S 8076   2.742   5.264  16.494 -0.5010 -0.2533  0.0051
   6323SM   H6S 8077   2.707   5.367  16.513  1.5652  0.7152 -1.1160
   6323SM   H6T 8078   2.667   5.221  16.424 -0.8577 -1.1979  0.9436
   6323SM   C7S 8079   2.875   5.270  16.428  1.2699  0.4955  0.4242
   6323SM   H7S 8080   2.892   5.171  16.381 -1.1496  0.4166 -0.4162
   6323SM   H7T 8081   2.955   5.296  16.501 -0.0770  1.5569  1.5565
   6323SM   C8S 8082   2.861   5.373  16.311 -0.2741 -1.0683  0.4609
   6323SM   H8S 8083   2.821   5.474  16.334 -0.9313 -0.1415 -3.8860
   6323SM   H8T 8084   2.779   5.334  16.246 -0.4195 -0.5461  0.3276
   6323SM   C9S 8085   2.984   5.382  16.224  0.2767  0.3445 -0.3280
   6323SM   H9S 8086   3.004   5.278  16.189 -1.6216 -0.0930 -0.2245
   6323SM   H9T 8087   3.077   5.408  16.280  1.7150 -1.0679 -1.9330
   6323SM  C10S 8088   2.979   5.472  16.097 -0.3166  0.9908  0.7470
   6323SM  H10S 8089   2.897   5.434  16.033  0.8488 -0.5399  0.0989
   6323SM  H10T 8090   3.073   5.454  16.040  0.0583 -3.8203  2.4213
   6323SM  C11S 8091   2.958   5.617  16.124 -0.4301 -0.0950  0.3433
   6323SM  H11S 8092   3.049   5.649  16.179  1.9483 -0.6215 -2.9271
   6323SM  H11T 8093   2.863   5.627  16.180 -2.3658  0.7150 -2.7895
   6323SM  C12S 8094   2.963   5.701  15.987 -0.8165  0.2341  0.2915
   6323SM  H12S 8095   2.907   5.647  15.907 -0.8457 -0.5147  0.8074
   6323SM  H12T 8096   3.068   5.703  15.951 -1.8025  2.8328 -2.9750
   6323SM  C13S 8097   2.925   5.848  16.000  0.1271  0.5872  0.3948
   6323SM  H13S 8098   2.840   5.857  16.072  1.7810 -0.5614  2.5907
   6323SM  H13T 8099   2.907   5.890  15.899 -0.7237 -0.0479  0.2714
   6323SM  C14S 8100   3.031   5.941  16.054  0.2212  0.9167 -0.7760
   6323SM  H14S 8101   3.117   5.935  15.983  0.7594 -1.0559 -0.0156
   6323SM  H14T 8102   3.073   5.903  16.149 -1.4584 -1.6975 -0.9893
   6323SM  C15S 8103   2.978   6.084  16.075 -0.1583  0.2012  0.0317
   6323SM  H15S 8104   2.904   6.089  16.158 -0.0400  3.4134  0.0842
   6323SM  H15T 8105   2.933   6.124  15.981  1.4721 -1.1833 -1.4213
   6323SM  C16S 8106   3.087   6.182  16.127  0.0973 -0.5323  0.5943
   6323SM  H16S 8107   3.126   6.119  16.211  0.1656  1.5991  2.2386
   6323SM  H16T 8108   3.035   6.265  16.179 -0.3412 -1.4731  1.7377
   6323SM  C17S 8109   3.177   6.225  16.008  1.1071 -0.2748 -0.2383
   6323SM  H17S 8110   3.106   6.258  15.929 -2.0650  0.4067  2.6548
   6323SM  H17T 8111   3.232   6.137  15.967 -0.9460 -1.8374  0.2112
   6323SM  C18S 8112   3.264   6.344  16.041  0.0563  0.6586 -0.6539
   6323SM  H18S 8113   3.202   6.437  16.036 -0.9473  0.4202  3.2910
   6323SM  H18T 8114   3.346   6.361  15.969  0.9869  0.7947  0.4129
   6323SM  H18U 8115   3.303   6.343  16.145  1.8663 -0.2128 -1.2979
   6323SM   C1F 8116   2.977   4.756  16.697  0.5653 -0.4654 -0.3042
   6323SM    OF 8117   2.924   4.665  16.638 -0.0259 -0.1272  0.0447
   6323SM   C2F 8118   3.126   4.758  16.726  0.3179 -0.2035  0.0964
   6323SM   H2F 8119   3.144   4.713  16.826 -1.3323 -0.3967  0.3261
   6323SM   H2G 8120   3.161   4.863  16.732 -0.8502  0.2839 -1.1454
   6323SM   C3F 8121   3.214   4.693  16.614  0.1844  0.2951  0.1134
   6323SM   H3F 8122   3.184   4.586  16.609  0.2563  0.3171 -1.1216
   6323SM   H3G 8123   3.321   4.699  16.643  0.0627  1.1943  0.4193
   6323SM   C4F 8124   3.193   4.750  16.469  0.4978 -0.5526  0.1749
   6323SM   H4F 8125   3.083   4.747  16.449  0.3141  1.8315  0.5594
   6323SM   H4G 8126   3.263   4.690  16.407  1.8701  0.2978  0.8620
   6323SM   C5F 8127   3.238   4.898  16.454  0.5821  0.0292  0.0106
   6323SM   H5F 8128   3.336   4.910  16.505  1.2943 -0.5107 -1.1964
   6323SM   H5G 8129   3.155   4.960  16.494  0.9246 -0.0741  0.9078
   6323SM   C6F 8130   3.274   4.935  16.320 -0.2018 -0.1111  0.4610
   6323SM   H6F 8131   3.192   4.921  16.246  1.9683  0.1515 -2.1917
   6323SM   H6G 8132   3.358   4.872  16.283  0.0473  1.1184 -1.2000
   6323SM   C7F 8133   3.325   5.083  16.317  0.4441  0.8471 -0.1872
   6323SM   H7F 8134   3.423   5.095  16.368  0.2242 -1.1475  0.7987
   6323SM   H7G 8135   3.251   5.135  16.381  1.1518  0.0868  1.2970
   6323SM   C8F 8136   3.327   5.134  16.176 -0.1832  0.0156  1.0295
   6323SM   H8F 8137   3.226   5.127  16.132  0.5495 -0.6929 -0.6550
   6323SM   H8G 8138   3.395   5.064  16.122 -1.5993 -1.5473  1.1995
   6323SM   C9F 8139   3.378   5.277  16.174  0.1851 -0.9393  0.4895
   6323SM   H9F 8140   3.464   5.294  16.243 -2.0597  0.3923  3.1406
   6323SM   H9G 8141   3.318   5.353  16.229  1.3750  0.4403 -0.0405
   6323SM  C10F 8142   3.405   5.337  16.035  0.5858 -0.0940  0.6301
   6323SM  H10F 8143   3.341   5.287  15.959 -3.6582  2.7516  1.9049
   6323SM  H10G 8144   3.504   5.313  15.992  1.2226  1.3676  1.2085
   6323SM  C11F 8145   3.374   5.490  16.041  0.3220 -0.5666 -0.1848
   6323SM  H11F 8146   3.434   5.548  16.115  0.1229 -0.2000 -0.3118
   6323SM  H11G 8147   3.266   5.495  16.066  0.5672  1.1237  0.6607
   6323SM  C12F 8148   3.405   5.565  15.911 -0.5358 -0.7450 -0.4876
   6323SM  H12F 8149   3.329   5.534  15.836 -0.3533  0.3560 -1.1363
   6323SM  H12G 8150   3.510   5.540  15.884  0.3993  0.8237  1.4566
   6323SM  C13F 8151   3.385   5.719  15.928  0.0337 -0.3357 -0.3099
   6323SM  H13F 8152   3.448   5.755  16.012 -1.5424  0.9538  0.3873
   6323SM  H13G 8153   3.277   5.734  15.951 -0.3542 -0.6176 -1.8203
   6323SM  C14F 8154   3.417   5.793  15.800  0.1858  0.5077  1.2713
   6323SM  H14F 8155   3.345   5.765  15.719  0.5689 -0.8276  1.3701
   6323SM  H14G 8156   3.526   5.778  15.786 -0.0635 -0.5606  0.2827
   6323SM  C15F 8157   3.411   5.946  15.823 -0.3976 -0.3657  0.7848
   6323SM  H15F 8158   3.473   5.981  15.908  0.7916  0.1252 -0.2564
   6323SM  H15G 8159   3.311   5.978  15.859 -0.3694 -0.3611  0.8583
   6323SM  C16F 8160   3.450   6.033  15.702  0.0386  0.1436 -0.2315
   6323SM  H16F 8161   3.412   5.975  15.615 -1.0141 -1.6789  1.3684
   6323SM  H16G 8162   3.560   6.031  15.691 -0.0073 -1.5638 -0.6364
   6323SM  C17F 8163   3.415   6.176  15.702  0.3853 -0.8532  0.3545
   6323SM  H17F 8164   3.456   6.218  15.796  0.7243  1.6706 -0.8159
   6323SM  H17G 8165   3.309   6.204  15.721  0.3919  0.2608 -1.0720
   6323SM  C18F 8166   3.468   6.269  15.586 -0.0595  0.1859  0.1053
   6323SM  H18F 8167   3.560   6.218  15.550  0.4498  0.3922  1.0676
   6323SM  H18G 8168   3.484   6.366  15.638 -0.9861  0.5762 -0.3208
   6323SM  C19F 8169   3.368   6.307  15.473  0.3518 -0.2353 -0.6662
   6323SM  H19F 8170   3.277   6.359  15.508  1.1686  2.1061 -1.8047
   6323SM  H19G 8171   3.338   6.208  15.431 -0.6524 -0.5356  0.7072
   6323SM  C20F 8172   3.423   6.383  15.353 -0.3233  0.6693  0.4320
   6323SM  H20F 8173   3.449   6.324  15.263 -0.1683  2.0836 -0.4961
   6323SM  H20G 8174   3.512   6.437  15.393  1.8222 -1.6956 -0.8380
   6323SM  C21F 8175   3.327   6.492  15.301  0.1847  0.1475 -0.2266
   6323SM  H21F 8176   3.329   6.574  15.376  3.4978 -0.5646  0.6706
   6323SM  H21G 8177   3.229   6.448  15.273  0.2542 -0.4699  0.4715
   6323SM  C22F 8178   3.388   6.569  15.182  0.0673  0.1917  0.1939
   6323SM  H22F 8179   3.403   6.493  15.102 -3.2094  0.5740 -0.9537
   6323SM  H22G 8180   3.491   6.598  15.211  0.2115  1.9378 -1.8169
   6323SM  C23F 8181   3.297   6.681  15.123 -1.0144  0.1275 -0.4545
   6323SM  H23F 8182   3.352   6.731  15.040  2.4324 -2.0180  0.3458
   6323SM  H23G 8183   3.277   6.753  15.205 -0.6666 -1.9912  1.6003
   6323SM  H23H 8184   3.198   6.650  15.084 -0.4978  2.0103 -3.6497
   6423SM     N 8185   5.313   5.318  17.408 -0.7833  0.3921  0.0995
   6423SM   C15 8186   5.207   5.232  17.472 -0.0081 -0.2616 -0.6456
   6423SM  H15A 8187   5.113   5.244  17.420  0.1532  1.1854 -0.6528
   6423SM  H15B 8188   5.203   5.259  17.577  0.1885  1.3059 -1.0165
   6423SM  H15C 8189   5.234   5.128  17.466 -1.0437 -0.7029  1.3663
   6423SM   C14 8190   5.268   5.460  17.412 -0.1356  0.1521  0.3430
   6423SM  H14A 8191   5.353   5.523  17.392 -0.5812  0.8664  0.6585
   6423SM  H14B 8192   5.225   5.480  17.509 -0.0303 -0.3982  0.5032
   6423SM  H14C 8193   5.196   5.479  17.334  1.8479  0.9007 -1.4023
   6423SM   C13 8194   5.442   5.303  17.480 -0.2233  0.1728  0.0838
   6423SM  H13A 8195   5.516   5.367  17.433  0.1940  0.1714  0.7379
   6423SM  H13B 8196   5.484   5.204  17.472  0.1854  0.4626 -1.9945
   6423SM  H13C 8197   5.435   5.337  17.582  1.2881 -1.0674  0.6392
   6423SM   C12 8198   5.329   5.273  17.262  0.3080 -0.3819 -0.1230
   6423SM  H12A 8199   5.363   5.171  17.260 -0.2798 -0.5885 -2.3431
   6423SM  H12B 8200   5.405   5.334  17.215 -0.5001  2.5656  2.0841
   6423SM   C11 8201   5.202   5.278  17.171 -0.1625 -0.2546  0.2628
   6423SM  H11A 8202   5.120   5.216  17.213  1.0562 -1.8585  0.3510
   6423SM  H11B 8203   5.238   5.231  17.077  0.7893  2.3158 -0.7405
   6423SM     P 8204   5.032   5.467  17.073 -0.3553 -0.3236  0.3740
   6423SM   O13 8205   4.913   5.437  17.158  0.1757  0.2339 -0.1082
   6423SM   O14 8206   5.061   5.610  17.038 -0.1219  0.6389  0.9676
   6423SM   O11 8207   5.022   5.373  16.949 -0.2036  0.2872  0.0218
   6423SM   O12 8208   5.160   5.415  17.154  0.1953  0.1488  0.7414
   6423SM   C1S 8209   5.129   5.373  16.851  0.3495  0.1540  0.2058
   6423SM   H1S 8210   5.208   5.300  16.879 -0.1527 -0.0690  1.0664
   6423SM   H1T 8211   5.181   5.471  16.843 -0.4010  0.6309  0.9704
   6423SM    NF 8212   5.170   5.364  16.602  0.1327 -0.4486 -0.2358
   6423SM   HNF 8213   5.142   5.441  16.545 -2.5572  0.1553  1.6924
   6423SM   C2S 8214   5.072   5.345  16.710 -0.0675  0.4860  0.2223
   6423SM   H2S 8215   5.068   5.234  16.708  4.7330  0.1201 -0.9330
   6423SM   C3S 8216   4.933   5.395  16.682  0.0221  0.0244 -0.2774
   6423SM   H3S 8217   4.914   5.499  16.716 -3.1452 -0.6781  0.5123
   6423SM    O3 8218   4.841   5.318  16.755  0.0595  0.0493 -0.3454
   6423SM   HO3 8219   4.886   5.295  16.836 -1.7811  0.7943  0.9585
   6423SM   C4S 8220   4.880   5.389  16.543 -0.0888 -0.1438  0.1961
   6423SM   H4S 8221   4.870   5.288  16.499 -1.9975  0.6412 -1.3338
   6423SM   C5S 8222   4.835   5.492  16.467  0.2511 -0.2288 -0.6449
   6423SM   H5S 8223   4.802   5.587  16.512 -2.8921 -2.1377  1.4767
   6423SM   C6S 8224   4.771   5.467  16.339  0.6331 -0.0045 -0.4519
   6423SM   H6S 8225   4.824   5.379  16.296  1.6347  0.0154  0.6996
   6423SM   H6T 8226   4.783   5.551  16.267 -1.3716  1.1176  0.4575
   6423SM   C7S 8227   4.623   5.425  16.347 -0.5741 -0.7178  0.4464
   6423SM   H7S 8228   4.570   5.495  16.415 -0.1831  1.1068 -1.0462
   6423SM   H7T 8229   4.624   5.331  16.407  0.4079 -0.1125  1.4345
   6423SM   C8S 8230   4.547   5.405  16.216 -0.1729 -0.3767 -0.0919
   6423SM   H8S 8231   4.547   5.502  16.161  0.1122  1.4245  2.8774
   6423SM   H8T 8232   4.440   5.386  16.237  0.0522 -0.3497  1.1467
   6423SM   C9S 8233   4.600   5.285  16.137 -0.0411  0.6507 -1.0763
   6423SM   H9S 8234   4.630   5.207  16.211  1.6972  1.2645 -1.1021
   6423SM   H9T 8235   4.698   5.307  16.089  0.8637  0.9587  0.8153
   6423SM  C10S 8236   4.494   5.217  16.048  0.5055  0.4678 -0.2243
   6423SM  H10S 8237   4.401   5.269  16.078  0.7680  0.5045  0.5359
   6423SM  H10T 8238   4.492   5.107  16.065 -2.1524  0.7100  1.7666
   6423SM  C11S 8239   4.520   5.231  15.900 -0.1951 -0.7910  0.4781
   6423SM  H11S 8240   4.625   5.207  15.875  0.2842 -0.0223  1.6728
   6423SM  H11T 8241   4.508   5.338  15.873 -1.2826 -0.3832  2.4110
   6423SM  C12S 8242   4.425   5.135  15.819 -0.2178 -0.0220  0.1806
   6423SM  H12S 8243   4.325   5.182  15.832  0.6274  2.7689 -2.1911
   6423SM  H12T 8244   4.423   5.028  15.849 -0.5466 -1.0737 -3.1697
   6423SM  C13S 8245   4.471   5.128  15.674 -0.3850  1.0813 -0.3955
   6423SM  H13S 8246   4.559   5.059  15.673 -1.5461 -0.4801  0.6695
   6423SM  H13T 8247   4.517   5.225  15.646 -0.2127  1.0033 -0.3882
   6423SM  C14S 8248   4.366   5.076  15.576 -0.6681 -0.1249  0.5911
   6423SM  H14S 8249   4.270   5.124  15.605  1.1810  3.6331  1.0728
   6423SM  H14T 8250   4.345   4.968  15.561  1.5144 -0.7662  1.8148
   6423SM  C15S 8251   4.396   5.128  15.426  0.6076  0.1268 -0.7109
   6423SM  H15S 8252   4.379   5.238  15.425 -0.2236  0.0314  0.5054
   6423SM  H15T 8253   4.311   5.086  15.368 -0.2417  0.0411  0.5643
   6423SM  C16S 8254   4.535   5.095  15.373 -0.6787 -0.0135  0.1580
   6423SM  H16S 8255   4.564   4.994  15.410  0.4964  0.2103 -0.1105
   6423SM  H16T 8256   4.617   5.162  15.405 -0.6023  0.7343 -1.4832
   6423SM  C17S 8257   4.539   5.096  15.224 -0.3071  0.6674  0.3210
   6423SM  H17S 8258   4.442   5.052  15.194 -2.2243  2.2290  3.7455
   6423SM  H17T 8259   4.621   5.028  15.192 -0.9562  0.5007 -1.0574
   6423SM  C18S 8260   4.551   5.237  15.152  0.0149  0.3275  0.4498
   6423SM  H18S 8261   4.650   5.275  15.184  0.1642  0.3785 -0.0739
   6423SM  H18T 8262   4.470   5.312  15.165  0.5005  1.1905 -1.2628
   6423SM  H18U 8263   4.549   5.222  15.042  0.2216  1.7263  0.2393
   6423SM   C1F 8264   5.287   5.293  16.591  0.0597  0.0844  0.1257
   6423SM    OF 8265   5.324   5.211  16.680 -0.2015 -0.0342  0.0487
   6423SM   C2F 8266   5.378   5.311  16.470  0.0688 -0.3743  0.3268
   6423SM   H2F 8267   5.436   5.403  16.491  0.2510 -0.6298  0.9574
   6423SM   H2G 8268   5.310   5.335  16.385  0.9346  2.2954  0.2736
   6423SM   C3F 8269   5.488   5.201  16.444 -0.4493  0.4968 -0.0381
   6423SM   H3F 8270   5.440   5.102  16.429  0.6951  0.0573 -1.0037
   6423SM   H3G 8271   5.558   5.201  16.531  0.3689 -2.7423 -0.5609
   6423SM   C4F 8272   5.574   5.219  16.320 -0.1397  0.7598  0.0116
   6423SM   H4F 8273   5.630   5.124  16.312 -0.9844  0.0876  1.5063
   6423SM   H4G 8274   5.643   5.306  16.326 -0.5911  1.0730  0.9348
   6423SM   C5F 8275   5.489   5.242  16.196 -0.2392  0.0883  0.3646
   6423SM   H5F 8276   5.451   5.347  16.201  0.2512  0.2274  2.2641
   6423SM   H5G 8277   5.399   5.177  16.201 -0.2561 -0.0647 -1.5101
   6423SM   C6F 8278   5.555   5.211  16.061 -0.3861  0.2602  0.6014
   6423SM   H6F 8279   5.481   5.228  15.979  0.7999 -1.1676 -0.8289
   6423SM   H6G 8280   5.576   5.102  16.061 -1.2380  0.0809  0.2113
   6423SM   C7F 8281   5.669   5.302  16.029 -0.0217 -0.1913  0.2700
   6423SM   H7F 8282   5.754   5.285  16.098  0.1038  1.0432  0.4439
   6423SM   H7G 8283   5.642   5.409  16.046  0.1152 -0.0497 -0.3514
   6423SM   C8F 8284   5.720   5.286  15.889 -0.0657  0.0193  0.8025
   6423SM   H8F 8285   5.631   5.289  15.823  1.3658 -0.1519 -1.2183
   6423SM   H8G 8286   5.774   5.190  15.871  0.3456  0.6833 -1.8874
   6423SM   C9F 8287   5.822   5.398  15.842  0.1346  0.0627 -0.6281
   6423SM   H9F 8288   5.908   5.386  15.911 -1.1837 -0.1223  1.0484
   6423SM   H9G 8289   5.779   5.496  15.874 -1.8289 -1.5482  2.1664
   6423SM  C10F 8290   5.880   5.395  15.699 -0.1004  0.7152 -0.4467
   6423SM  H10F 8291   5.793   5.392  15.629  0.5730 -1.2644 -1.2657
   6423SM  H10G 8292   5.925   5.294  15.688  2.5919  2.0125 -2.3660
   6423SM  C11F 8293   5.986   5.501  15.672 -0.1008 -0.5390 -0.2407
   6423SM  H11F 8294   6.069   5.494  15.745  2.1611 -2.2620 -2.7741
   6423SM  H11G 8295   5.932   5.598  15.663 -2.7013 -1.6906  1.4889
   6423SM  C12F 8296   6.064   5.467  15.548 -0.0682 -0.6487 -0.1612
   6423SM  H12F 8297   5.988   5.483  15.469  1.5403  1.8226 -1.3743
   6423SM  H12G 8298   6.083   5.358  15.541 -4.1607 -1.4754 -0.8954
   6423SM  C13F 8299   6.176   5.564  15.515  0.1370  0.1592 -0.6210
   6423SM  H13F 8300   6.258   5.525  15.580 -0.2239 -0.6822 -0.6537
   6423SM  H13G 8301   6.136   5.664  15.541 -1.1263  0.1369 -2.3377
   6423SM  C14F 8302   6.227   5.572  15.378 -0.6465  0.3483  1.3109
   6423SM  H14F 8303   6.277   5.476  15.354 -0.1100  0.8879  0.1737
   6423SM  H14G 8304   6.307   5.649  15.379 -1.4222  1.4839 -2.9486
   6423SM  C15F 8305   6.125   5.599  15.276  0.3531  0.4139  0.3154
   6423SM  H15F 8306   6.063   5.686  15.309  1.3150  1.7650 -1.2954
   6423SM  H15G 8307   6.063   5.507  15.268  0.2681  0.5435 -0.6179
   6423SM  C16F 8308   6.195   5.631  15.138 -0.0837  0.3965  0.0992
   6423SM  H16F 8309   6.271   5.552  15.120  0.7474  1.5203 -1.5479
   6423SM  H16G 8310   6.251   5.726  15.154  2.1179 -0.2563 -2.8280
   6423SM  C17F 8311   6.089   5.650  15.027  0.0607  0.8265  0.1543
   6423SM  H17F 8312   6.019   5.731  15.056  2.1070  2.0709  1.9253
   6423SM  H17G 8313   6.027   5.559  15.011  0.0012  1.0330 -0.8321
   6423SM  C18F 8314   6.162   5.687  14.899 -0.1917  0.0108  0.0249
   6423SM  H18F 8315   6.184   5.588  14.855  0.2692 -0.2334  0.7776
   6423SM  H18G 8316   6.255   5.736  14.934  0.0642 -1.4391  1.4961
   6423SM  C19F 8317   6.063   5.771  14.809  0.0454  0.1844 -0.2645
   6423SM  H19F 8318   6.040   5.859  14.872  1.3460  0.7692 -0.5651
   6423SM  H19G 8319   5.964   5.725  14.792 -0.9328  0.5437  3.5745
   6423SM  C20F 8320   6.128   5.825  14.683  0.0974 -0.4632  0.2466
   6423SM  H20F 8321   6.215   5.892  14.698  1.3545 -1.9710 -0.0136
   6423SM  H20G 8322   6.062   5.893  14.626 -1.1811  0.3148  2.5551
   6423SM  C21F 8323   6.174   5.720  14.583  0.3868 -0.0473  0.5165
   6423SM  H21F 8324   6.080   5.665  14.562  0.0746  0.6580 -0.0075
   6423SM  H21G 8325   6.242   5.653  14.640 -0.1557  0.1762  1.4545
   6423SM  C22F 8326   6.230   5.785  14.459  1.1382  0.4854 -0.4638
   6423SM  H22F 8327   6.305   5.857  14.499 -1.1897  1.6208  2.2897
   6423SM  H22G 8328   6.157   5.862  14.424 -0.2375 -0.3443  0.4704
   6423SM  C23F 8329   6.296   5.698  14.349  0.7723 -0.1566 -0.2575
   6423SM  H23F 8330   6.222   5.624  14.311 -1.9472  2.7654 -1.1093
   6423SM  H23G 8331   6.387   5.643  14.379  0.5922 -0.0709  0.4631
   6423SM  H23H 8332   6.314   5.760  14.258 -0.8784  0.0360 -0.4898
   6523SM     N 8333   4.292   6.754  17.054  0.4352 -0.1484 -1.2482
   6523SM   C15 8334   4.181   6.733  16.958  0.3558  0.2668 -0.0632
   6523SM  H15A 8335   4.112   6.814  16.945 -0.2254  0.0354  1.3468
   6523SM  H15B 8336   4.115   6.654  16.990 -0.1762  1.7038  2.6295
   6523SM  H15C 8337   4.224   6.712  16.861 -0.4487  1.3356 -0.6685
   6523SM   C14 8338   4.220   6.791  17.184 -0.2307  0.0271  0.6023
   6523SM  H14A 8339   4.165   6.883  17.174 -0.1377 -0.0646 -0.9375
   6523SM  H14B 8340   4.288   6.802  17.267  1.6760  1.2964 -1.0610
   6523SM  H14C 8341   4.144   6.718  17.209 -0.1691  0.2473  1.4654
   6523SM   C13 8342   4.357   6.619  17.070  0.1678  0.3028  0.2437
   6523SM  H13A 8343   4.396   6.577  16.979  1.6222 -0.4291  1.1770
   6523SM  H13B 8344   4.284   6.551  17.111  0.7294 -0.5736 -0.1844
   6523SM  H13C 8345   4.439   6.640  17.136  0.2006 -0.6031  0.5011
   6523SM   C12 8346   4.398   6.860  17.014  0.1145 -0.0592 -0.0316
   6523SM  H12A 8347   4.335   6.935  16.968 -0.3191 -1.3992 -1.7227
   6523SM  H12B 8348   4.462   6.827  16.933 -1.8824  1.8621 -2.5431
   6523SM   C11 8349   4.475   6.919  17.132  0.3106  0.4625  0.0223
   6523SM  H11A 8350   4.403   6.964  17.204  1.7624  0.3471  1.5944
   6523SM  H11B 8351   4.532   7.007  17.098  2.1597  0.0766  1.9546
   6523SM     P 8352   4.726   6.844  17.191  0.3685  0.1471 -0.2737
   6523SM   O13 8353   4.764   6.951  17.283 -0.2910  0.2341  0.0656
   6523SM   O14 8354   4.780   6.709  17.216 -0.2377 -0.3331  0.7842
   6523SM   O11 8355   4.759   6.901  17.041 -0.3160  0.3434 -0.2017
   6523SM   O12 8356   4.562   6.828  17.200 -0.1121  0.0785 -0.5189
   6523SM   C1S 8357   4.809   6.814  16.939 -0.5820  0.2671 -0.2351
   6523SM   H1S 8358   4.738   6.730  16.929 -0.0042 -0.2917  0.2790
   6523SM   H1T 8359   4.904   6.772  16.978 -0.8545 -1.4117 -1.2953
   6523SM    NF 8360   4.878   6.777  16.707  0.8724 -0.4044  0.7105
   6523SM   HNF 8361   4.973   6.758  16.685  0.8579 -0.0574  0.3378
   6523SM   C2S 8362   4.849   6.882  16.808  0.5317  0.6211 -0.1207
   6523SM   H2S 8363   4.766   6.945  16.769  0.2177  1.0626  1.1763
   6523SM   C3S 8364   4.965   6.978  16.837  0.1265  0.4161  0.1891
   6523SM   H3S 8365   5.054   6.915  16.860 -0.2923 -1.0497 -2.0125
   6523SM    O3 8366   4.957   7.062  16.954 -0.4290  0.9137  0.2025
   6523SM   HO3 8367   4.879   7.024  16.994  0.6916 -3.7845 -1.4266
   6523SM   C4S 8368   5.000   7.055  16.714  0.1259  0.3276  0.2083
   6523SM   H4S 8369   5.056   6.999  16.638 -0.5460  0.0147 -0.0616
   6523SM   C5S 8370   4.958   7.186  16.684  0.8617 -0.6949  0.2587
   6523SM   H5S 8371   4.894   7.254  16.742  2.1251  0.5793  0.2218
   6523SM   C6S 8372   4.983   7.243  16.549  0.1528  0.4467 -0.2920
   6523SM   H6S 8373   5.017   7.348  16.562 -0.0077  0.5190 -0.4454
   6523SM   H6T 8374   4.890   7.238  16.489 -0.1219  2.8208 -0.1382
   6523SM   C7S 8375   5.097   7.176  16.463  0.4993  0.1412 -0.0790
   6523SM   H7S 8376   5.057   7.075  16.440 -0.1657  0.6011 -0.9979
   6523SM   H7T 8377   5.183   7.164  16.533 -0.1107 -1.1960  0.4603
   6523SM   C8S 8378   5.134   7.251  16.338  0.4149 -0.1971 -0.0206
   6523SM   H8S 8379   5.149   7.357  16.366 -1.3891 -0.3308  1.6314
   6523SM   H8T 8380   5.049   7.242  16.267  0.5900 -1.6512 -0.0744
   6523SM   C9S 8381   5.259   7.183  16.280  0.1448 -0.1965 -0.0168
   6523SM   H9S 8382   5.346   7.188  16.349 -0.3491  1.9241  0.5343
   6523SM   H9T 8383   5.292   7.245  16.194 -0.8089 -0.4118 -0.5524
   6523SM  C10S 8384   5.252   7.042  16.225 -0.5414 -0.4529  0.0168
   6523SM  H10S 8385   5.201   6.972  16.295 -0.2260 -2.0939 -1.3312
   6523SM  H10T 8386   5.356   7.003  16.223  0.2252  1.2217  2.6274
   6523SM  C11S 8387   5.165   7.030  16.097  0.2225  0.6330 -0.3574
   6523SM  H11S 8388   5.071   7.083  16.123  0.0839 -0.4567  1.5061
   6523SM  H11T 8389   5.132   6.925  16.080 -3.4479  1.5429  0.3759
   6523SM  C12S 8390   5.238   7.083  15.975  0.3199  0.1663  0.0327
   6523SM  H12S 8391   5.347   7.071  15.991  0.4802 -0.9724 -1.6342
   6523SM  H12T 8392   5.216   7.191  15.962 -0.7727 -0.0742 -0.2725
   6523SM  C13S 8393   5.202   7.011  15.848  0.2017  0.3940  0.7320
   6523SM  H13S 8394   5.173   6.907  15.871 -2.0148  0.8935  0.4214
   6523SM  H13T 8395   5.301   6.999  15.798 -0.3062  1.9551 -0.7806
   6523SM  C14S 8396   5.089   7.075  15.768 -0.2242  0.2250 -0.3799
   6523SM  H14S 8397   5.098   7.185  15.757 -0.9750  0.3469  0.1589
   6523SM  H14T 8398   4.992   7.069  15.820 -0.4182 -0.8945 -0.8457
   6523SM  C15S 8399   5.070   7.017  15.627  0.1327  0.3738  0.2676
   6523SM  H15S 8400   4.969   7.049  15.595 -0.0730 -1.9643 -1.7510
   6523SM  H15T 8401   5.058   6.907  15.638  1.7263  0.3220  1.9543
   6523SM  C16S 8402   5.176   7.063  15.526 -0.8564  0.5654 -0.2908
   6523SM  H16S 8403   5.277   7.027  15.554 -1.5328 -0.7496  0.5625
   6523SM  H16T 8404   5.186   7.173  15.512  0.2538  0.3568 -1.2340
   6523SM  C17S 8405   5.131   7.020  15.388 -0.3442  0.7921  0.8650
   6523SM  H17S 8406   5.022   7.037  15.376 -0.3593 -0.2702 -0.9224
   6523SM  H17T 8407   5.138   6.910  15.371 -1.0819  0.8849 -0.1918
   6523SM  C18S 8408   5.208   7.095  15.275  0.0405  0.3933  0.1042
   6523SM  H18S 8409   5.186   7.203  15.269 -1.4498  0.0574 -1.0792
   6523SM  H18T 8410   5.176   7.065  15.173 -2.2420 -1.9032  1.3439
   6523SM  H18U 8411   5.318   7.080  15.279  0.0404  0.5877  1.3747
   6523SM   C1F 8412   4.781   6.698  16.652  0.2197 -0.2619  0.5877
   6523SM    OF 8413   4.661   6.719  16.663  0.0115 -0.4883 -0.1484
   6523SM   C2F 8414   4.821   6.577  16.586  0.2693 -0.3076 -0.0313
   6523SM   H2F 8415   4.924   6.551  16.619  0.5626 -2.7469 -2.4900
   6523SM   H2G 8416   4.816   6.584  16.476 -0.5043 -0.1649  0.0063
   6523SM   C3F 8417   4.732   6.461  16.631 -0.9115 -0.1291  0.1866
   6523SM   H3F 8418   4.626   6.478  16.603 -0.4040  0.7096 -1.3705
   6523SM   H3G 8419   4.738   6.449  16.741  0.2458  2.4603  0.4956
   6523SM   C4F 8420   4.769   6.328  16.565  0.0514  0.6059  0.3193
   6523SM   H4F 8421   4.864   6.292  16.611 -0.1834  0.5455  0.7632
   6523SM   H4G 8422   4.800   6.344  16.459 -1.7210  0.1542 -0.3001
   6523SM   C5F 8423   4.674   6.211  16.577 -0.2135 -0.0952 -0.3795
   6523SM   H5F 8424   4.578   6.226  16.524 -0.5815 -0.4305  0.1800
   6523SM   H5G 8425   4.651   6.195  16.685 -1.4614 -0.1907 -0.6473
   6523SM   C6F 8426   4.732   6.082  16.516  0.1213  0.3513  0.4413
   6523SM   H6F 8427   4.685   5.993  16.562 -1.2648 -0.2948 -2.0492
   6523SM   H6G 8428   4.837   6.080  16.553 -0.1114  3.2032  1.4373
   6523SM   C7F 8429   4.721   6.070  16.368 -0.1429  0.4815  0.1706
   6523SM   H7F 8430   4.798   6.134  16.319 -0.0283  0.1789 -0.0502
   6523SM   H7G 8431   4.627   6.115  16.328 -0.2646 -1.4127 -1.8698
   6523SM   C8F 8432   4.730   5.934  16.311 -0.0747  0.5184 -0.3596
   6523SM   H8F 8433   4.646   5.870  16.345 -2.6516  2.6841 -2.2599
   6523SM   H8G 8434   4.826   5.886  16.343 -1.3122 -2.3631 -0.6691
   6523SM   C9F 8435   4.745   5.939  16.155 -0.2162 -0.4674  0.3257
   6523SM   H9F 8436   4.773   5.838  16.120  2.2028  0.1586  0.2461
   6523SM   H9G 8437   4.838   5.990  16.120 -0.4371 -0.8281 -0.8315
   6523SM  C10F 8438   4.625   5.989  16.077 -0.3457  0.0091 -0.4112
   6523SM  H10F 8439   4.590   6.092  16.098  0.4043  0.7759 -2.6169
   6523SM  H10G 8440   4.534   5.926  16.092 -0.4599  0.7918  2.7358
   6523SM  C11F 8441   4.661   5.991  15.926 -0.1803 -0.6035  0.3369
   6523SM  H11F 8442   4.697   5.892  15.892  1.8981  0.2942 -0.2286
   6523SM  H11G 8443   4.744   6.064  15.916  0.0757 -0.9881 -0.3971
   6523SM  C12F 8444   4.541   6.032  15.838  0.3405 -0.0239 -0.1370
   6523SM  H12F 8445   4.500   6.129  15.871 -0.6753 -0.0466 -1.2693
   6523SM  H12G 8446   4.461   5.956  15.856 -0.8317  1.1208 -0.3919
   6523SM  C13F 8447   4.575   6.044  15.687  0.7637  0.1487  0.0225
   6523SM  H13F 8448   4.625   5.946  15.666 -1.0608 -0.6412 -0.8884
   6523SM  H13G 8449   4.649   6.126  15.676 -0.5203  1.4374  0.6372
   6523SM  C14F 8450   4.451   6.066  15.602  0.7638 -0.5621  0.5797
   6523SM  H14F 8451   4.409   6.165  15.629  1.0873 -0.0554 -0.6828
   6523SM  H14G 8452   4.380   5.989  15.637  1.4122 -1.0360  0.8766
   6523SM  C15F 8453   4.473   6.054  15.444 -0.1013  0.1190 -0.4659
   6523SM  H15F 8454   4.378   6.071  15.387  0.4277 -1.9452 -2.0900
   6523SM  H15G 8455   4.508   5.951  15.421  0.8159  0.2720  0.1916
   6523SM  C16F 8456   4.568   6.154  15.379 -0.5906 -0.4197  0.7329
   6523SM  H16F 8457   4.546   6.132  15.272 -4.2728 -0.8300  1.4475
   6523SM  H16G 8458   4.669   6.136  15.420  0.3475 -1.7846 -1.9798
   6523SM  C17F 8459   4.521   6.302  15.390  0.6152 -0.1260  0.0719
   6523SM  H17F 8460   4.529   6.347  15.491 -1.0564  0.8299 -0.1895
   6523SM  H17G 8461   4.413   6.301  15.365  0.1133 -2.1784  1.9796
   6523SM  C18F 8462   4.588   6.408  15.298 -0.5765 -0.2949  0.0161
   6523SM  H18F 8463   4.585   6.389  15.189  1.0710 -0.9121  0.0457
   6523SM  H18G 8464   4.695   6.413  15.326 -0.1005  0.8268 -1.8565
   6523SM  C19F 8465   4.517   6.547  15.321 -0.2847  0.9861  0.1825
   6523SM  H19F 8466   4.536   6.585  15.424  1.1579  2.1919 -0.4915
   6523SM  H19G 8467   4.407   6.537  15.309 -0.1463  0.6025 -0.8290
   6523SM  C20F 8468   4.574   6.670  15.242  0.0701  0.8944  0.4034
   6523SM  H20F 8469   4.683   6.687  15.249  0.6379 -2.0012  0.0066
   6523SM  H20G 8470   4.524   6.766  15.266 -2.8636  0.4806 -3.1073
   6523SM  C21F 8471   4.541   6.656  15.093 -0.2038  0.4297  0.1269
   6523SM  H21F 8472   4.442   6.609  15.079  0.6943 -1.3170 -0.6385
   6523SM  H21G 8473   4.620   6.593  15.047  0.0463  0.7114  0.1653
   6523SM  C22F 8474   4.514   6.790  15.022  0.1999  0.5940 -0.5029
   6523SM  H22F 8475   4.605   6.853  15.026  0.2511  0.4741  1.3085
   6523SM  H22G 8476   4.444   6.855  15.080  2.1541  0.5513  2.0676
   6523SM  C23F 8477   4.467   6.772  14.876  0.5429  0.4118 -0.3422
   6523SM  H23F 8478   4.356   6.773  14.882  0.3029 -2.1904 -2.4213
   6523SM  H23G 8479   4.497   6.673  14.835 -1.8951 -0.1059 -1.0430
   6523SM  H23H 8480   4.488   6.859  14.810  0.4342 -0.0839 -1.0494
   6623SM     N 8481   2.571   1.582  17.334  0.3797  0.1866 -0.2368
   6623SM   C15 8482   2.444   1.502  17.309  0.2264  0.2918 -0.2541
   6623SM  H15A 8483   2.360   1.535  17.369 -1.0274 -1.3788 -1.0040
   6623SM  H15B 8484   2.463   1.397  17.321 -0.1668  0.2784  0.2960
   6623SM  H15C 8485   2.415   1.521  17.206 -2.4813  0.8187  0.5158
   6623SM   C14 8486   2.524   1.706  17.400 -0.3811 -0.4114 -0.5332
   6623SM  H14A 8487   2.608   1.765  17.435 -0.5259 -0.1910 -0.5505
   6623SM  H14B 8488   2.459   1.678  17.481 -1.1821 -1.1454 -1.4089
   6623SM  H14C 8489   2.477   1.780  17.337  0.6287 -0.1247 -0.9685
   6623SM   C13 8490   2.649   1.509  17.436  0.8035  0.2892  0.0185
   6623SM  H13A 8491   2.588   1.494  17.524 -0.9385 -0.3658 -1.2486
   6623SM  H13B 8492   2.737   1.563  17.469 -0.3531  0.9636  2.1382
   6623SM  H13C 8493   2.674   1.410  17.402 -0.5784 -0.5567  1.3446
   6623SM   C12 8494   2.649   1.609  17.210 -0.8323 -0.0441 -0.2771
   6623SM  H12A 8495   2.682   1.518  17.164  0.4463  0.7630 -1.0215
   6623SM  H12B 8496   2.742   1.657  17.236  0.2719 -2.8996  1.4931
   6623SM   C11 8497   2.579   1.680  17.099  0.6921 -0.3340  0.7539
   6623SM  H11A 8498   2.481   1.631  17.079 -0.3242  2.0700 -0.6366
   6623SM  H11B 8499   2.625   1.688  16.998 -1.6626  1.4211 -0.2976
   6623SM     P 8500   2.661   1.926  17.146 -0.4733 -0.0907 -0.1092
   6623SM   O13 8501   2.604   2.026  17.234  0.3893 -0.2420 -0.9786
   6623SM   O14 8502   2.789   1.868  17.188 -0.2225 -0.0996 -0.3651
   6623SM   O11 8503   2.685   1.984  16.995 -0.6229 -0.1241 -0.6773
   6623SM   O12 8504   2.558   1.814  17.132  0.0451 -0.1493 -0.1087
   6623SM   C1S 8505   2.565   2.040  16.939 -0.3216  0.4026 -0.1585
   6623SM   H1S 8506   2.553   2.146  16.969 -0.7035  0.5317 -0.7414
   6623SM   H1T 8507   2.473   1.981  16.959  0.6642 -0.9161  0.6538
   6623SM    NF 8508   2.444   2.100  16.726  0.3717 -0.7936 -0.2883
   6623SM   HNF 8509   2.375   2.055  16.670 -1.1989  0.5816  0.4325
   6623SM   C2S 8510   2.563   2.037  16.782  0.5184 -0.6629  0.0702
   6623SM   H2S 8511   2.651   2.098  16.756 -0.6049  1.0877  0.2229
   6623SM   C3S 8512   2.574   1.893  16.722  0.3830 -0.6732 -0.0017
   6623SM   H3S 8513   2.476   1.848  16.751 -0.5908  1.1151 -0.3683
   6623SM    O3 8514   2.669   1.805  16.781 -0.4474  0.1237 -0.2374
   6623SM   HO3 8515   2.697   1.859  16.856 -0.8363 -0.5390  0.3922
   6623SM   C4S 8516   2.583   1.892  16.573 -0.9270  0.6052  0.0759
   6623SM   H4S 8517   2.486   1.883  16.522 -0.8346  0.4069 -0.0653
   6623SM   C5S 8518   2.699   1.905  16.507  0.1246 -0.0887 -0.7491
   6623SM   H5S 8519   2.793   1.927  16.558  0.6749  1.5615 -2.3512
   6623SM   C6S 8520   2.705   1.894  16.353 -0.1871 -0.0630  0.6298
   6623SM   H6S 8521   2.740   1.991  16.310  1.1135  0.8111  3.4292
   6623SM   H6T 8522   2.602   1.877  16.315 -0.8566  3.0981  0.7529
   6623SM   C7S 8523   2.803   1.788  16.297 -0.5264 -0.6615  0.3942
   6623SM   H7S 8524   2.788   1.687  16.340  2.1610 -2.1790 -1.9215
   6623SM   H7T 8525   2.908   1.818  16.319  1.2092 -2.8146 -3.7434
   6623SM   C8S 8526   2.797   1.795  16.145 -0.4395  0.3515 -0.0927
   6623SM   H8S 8527   2.888   1.747  16.103  1.2117  2.8772  0.4108
   6623SM   H8T 8528   2.798   1.901  16.112 -2.2404  0.8228  1.2316
   6623SM   C9S 8529   2.681   1.722  16.073 -0.4420 -0.0725  0.4321
   6623SM   H9S 8530   2.585   1.755  16.118  0.0115 -1.1336  2.3136
   6623SM   H9T 8531   2.700   1.615  16.096 -0.9735 -0.4352 -0.7448
   6623SM  C10S 8532   2.671   1.752  15.920 -0.2063  0.1023 -0.3377
   6623SM  H10S 8533   2.775   1.772  15.886  0.4183  2.6408  2.5965
   6623SM  H10T 8534   2.615   1.847  15.906  0.5339  0.9252  1.8104
   6623SM  C11S 8535   2.604   1.633  15.849  0.8393 -0.3308 -0.0467
   6623SM  H11S 8536   2.496   1.618  15.868  1.2074  0.4434  3.1746
   6623SM  H11T 8537   2.645   1.538  15.889  1.5219  0.6017  1.5813
   6623SM  C12S 8538   2.637   1.635  15.699  0.7692 -0.0526 -0.0716
   6623SM  H12S 8539   2.739   1.680  15.689  0.4007  1.7006  2.9641
   6623SM  H12T 8540   2.578   1.715  15.650 -0.4732 -1.4673 -0.9696
   6623SM  C13S 8541   2.604   1.507  15.626  0.6880 -0.0455 -0.3233
   6623SM  H13S 8542   2.620   1.532  15.519  0.1408  1.4830 -0.0658
   6623SM  H13T 8543   2.496   1.486  15.638  0.4258  1.5926  0.5589
   6623SM  C14S 8544   2.688   1.384  15.660  0.2165  0.0939  0.3117
   6623SM  H14S 8545   2.643   1.331  15.746 -1.4492  1.1407  0.1220
   6623SM  H14T 8546   2.795   1.401  15.682  0.2012 -1.2976  1.6667
   6623SM  C15S 8547   2.694   1.275  15.545  0.3898  0.4602 -0.0992
   6623SM  H15S 8548   2.727   1.314  15.447  1.3060 -2.7086 -1.1836
   6623SM  H15T 8549   2.595   1.229  15.525  0.6580  0.7210 -2.3039
   6623SM  C16S 8550   2.802   1.167  15.586 -0.5396 -0.2032  0.5761
   6623SM  H16S 8551   2.767   1.128  15.684 -0.8850 -3.0994 -0.6059
   6623SM  H16T 8552   2.902   1.212  15.601 -0.3430  0.5777 -2.4285
   6623SM  C17S 8553   2.812   1.051  15.486 -0.2173 -0.1344  0.2278
   6623SM  H17S 8554   2.711   1.023  15.450  0.7423 -0.6743 -2.2501
   6623SM  H17T 8555   2.857   0.963  15.536 -2.5150 -3.2934 -2.7874
   6623SM  C18S 8556   2.873   1.084  15.352  0.3098 -0.4591  0.5943
   6623SM  H18S 8557   2.978   1.121  15.350  0.8429 -1.8259  1.5209
   6623SM  H18T 8558   2.815   1.160  15.296  2.0016 -0.5595 -1.4339
   6623SM  H18U 8559   2.876   0.987  15.297  2.4632 -1.6554  2.6281
   6623SM   C1F 8560   2.422   2.228  16.755 -0.1488 -0.0886  0.4841
   6623SM    OF 8561   2.517   2.304  16.790  0.2444 -0.1210  0.0811
   6623SM   C2F 8562   2.293   2.280  16.719  0.0363 -0.9548 -0.1943
   6623SM   H2F 8563   2.233   2.262  16.810 -1.3184 -0.3989 -0.9439
   6623SM   H2G 8564   2.255   2.225  16.630 -0.0839  0.3026 -0.9548
   6623SM   C3F 8565   2.301   2.432  16.679 -0.0274  0.2634  0.2827
   6623SM   H3F 8566   2.351   2.438  16.580  0.7402  0.4102  0.6699
   6623SM   H3G 8567   2.363   2.486  16.754  1.6109  0.4100 -1.1205
   6623SM   C4F 8568   2.166   2.499  16.662  0.3457 -0.0443  0.7791
   6623SM   H4F 8569   2.155   2.607  16.687  1.4277  0.1629  0.4283
   6623SM   H4G 8570   2.101   2.453  16.739 -0.7572 -0.0422 -0.1169
   6623SM   C5F 8571   2.112   2.471  16.521 -0.0881  0.4057 -0.1197
   6623SM   H5F 8572   2.100   2.362  16.504 -1.8117  0.8136 -1.9934
   6623SM   H5G 8573   2.185   2.500  16.442  0.3257 -1.5335 -0.4941
   6623SM   C6F 8574   1.987   2.547  16.482 -0.1556  0.1849  0.6743
   6623SM   H6F 8575   2.011   2.652  16.510 -0.4627  0.5531 -0.4236
   6623SM   H6G 8576   1.910   2.502  16.548 -0.1659 -0.8965 -0.0470
   6623SM   C7F 8577   1.949   2.529  16.335 -0.4682 -0.4333  0.1642
   6623SM   H7F 8578   1.926   2.423  16.310  2.9700 -1.8997  2.3584
   6623SM   H7G 8579   2.042   2.550  16.277 -0.5542  1.2528  0.5770
   6623SM   C8F 8580   1.840   2.626  16.291 -0.3273  0.2393 -0.0541
   6623SM   H8F 8581   1.871   2.729  16.320  1.1586 -0.7272  1.9979
   6623SM   H8G 8582   1.742   2.589  16.326 -0.9673 -1.5252 -3.3004
   6623SM   C9F 8583   1.831   2.619  16.139  0.1781 -0.2741  0.1320
   6623SM   H9F 8584   1.771   2.532  16.106 -1.1945  1.1138 -1.2123
   6623SM   H9G 8585   1.934   2.618  16.097  0.8206  1.3925  1.5119
   6623SM  C10F 8586   1.765   2.747  16.082  0.0272  0.0177 -0.6559
   6623SM  H10F 8587   1.825   2.840  16.095 -3.1497  2.2595 -0.8707
   6623SM  H10G 8588   1.686   2.764  16.158  0.5895  1.0806 -0.2856
   6623SM  C11F 8589   1.708   2.728  15.943 -0.2276 -0.7327 -0.2766
   6623SM  H11F 8590   1.630   2.649  15.953 -0.7678  0.1069  3.7017
   6623SM  H11G 8591   1.793   2.692  15.881 -0.6859 -0.7617 -0.9048
   6623SM  C12F 8592   1.643   2.856  15.886 -0.3825 -0.5886  0.3636
   6623SM  H12F 8593   1.725   2.907  15.830  0.1514 -1.3712  0.4159
   6623SM  H12G 8594   1.603   2.919  15.968 -1.2264 -0.3443 -0.2197
   6623SM  C13F 8595   1.533   2.830  15.781  0.1785  0.1022 -0.9288
   6623SM  H13F 8596   1.452   2.768  15.825  0.5769  0.1412 -0.1091
   6623SM  H13G 8597   1.581   2.751  15.719 -1.7598 -1.9376  0.0338
   6623SM  C14F 8598   1.491   2.951  15.698  0.4273  0.8107 -0.1047
   6623SM  H14F 8599   1.573   2.996  15.639  0.6114  0.1152 -0.3958
   6623SM  H14G 8600   1.459   3.028  15.772  0.8834 -1.5684  2.7400
   6623SM  C15F 8601   1.381   2.916  15.592 -0.2148 -0.3180  0.3544
   6623SM  H15F 8602   1.309   2.852  15.647 -1.1926 -1.7720 -2.4688
   6623SM  H15G 8603   1.424   2.852  15.512 -2.3527 -1.4460  0.0419
   6623SM  C16F 8604   1.314   3.033  15.522 -0.0024  0.5113  0.1418
   6623SM  H16F 8605   1.394   3.088  15.469  2.0801 -2.5833 -0.1747
   6623SM  H16G 8606   1.260   3.098  15.595 -0.4118  1.9020 -1.3436
   6623SM  C17F 8607   1.196   2.977  15.432  0.1884  0.1677 -0.3043
   6623SM  H17F 8608   1.118   2.929  15.495 -0.7535  0.2612 -1.3556
   6623SM  H17G 8609   1.238   2.907  15.356 -0.1701  1.7704 -2.0806
   6623SM  C18F 8610   1.116   3.080  15.355  0.2849 -0.3049  0.7988
   6623SM  H18F 8611   1.175   3.123  15.271  1.4305  0.3808  1.9041
   6623SM  H18G 8612   1.075   3.160  15.421  0.8671 -0.1505  0.9770
   6623SM  C19F 8613   1.000   3.013  15.282  0.8340 -0.6329  0.3033
   6623SM  H19F 8614   0.925   2.972  15.353 -1.4958 -0.1344 -1.7398
   6623SM  H19G 8615   1.032   2.922  15.226 -2.7145 -2.6686  1.2026
   6623SM  C20F 8616   0.920   3.095  15.186  0.6188  0.2890  0.2225
   6623SM  H20F 8617   0.981   3.148  15.110  2.5074 -2.1164 -0.0436
   6623SM  H20G 8618   0.865   3.177  15.239  0.8767  0.8142 -0.3061
   6623SM  C21F 8619   0.815   3.022  15.101 -0.0075  1.1535  0.6157
   6623SM  H21F 8620   0.752   2.969  15.176  0.1835  0.2979  0.1782
   6623SM  H21G 8621   0.855   2.944  15.034 -2.6218 -0.9551  1.3385
   6623SM  C22F 8622   0.720   3.107  15.011  0.4781  0.1475  0.4306
   6623SM  H22F 8623   0.690   3.197  15.068  0.9823  0.2755  0.4997
   6623SM  H22G 8624   0.629   3.046  14.993 -0.2710  1.5288 -0.5821
   6623SM  C23F 8625   0.787   3.136  14.879 -0.2507 -0.2394 -0.2168
   6623SM  H23F 8626   0.824   3.040  14.837  0.3863 -0.3212  0.5002
   6623SM  H23G 8627   0.875   3.201  14.900 -0.5501  0.3766 -0.8273
   6623SM  H23H 8628   0.723   3.191  14.808  2.3124  0.8914 -1.8099
   6723SM     N 8629   1.657   6.502  16.916  1.0144  0.3976  0.3073
   6723SM   C15 8630   1.800   6.472  16.953 -0.1063 -0.0321 -0.2998
   6723SM  H15A 8631   1.811   6.365  16.953  0.6235 -0.0276 -3.0238
   6723SM  H15B 8632   1.839   6.528  17.037 -2.3891  2.8528 -0.9812
   6723SM  H15C 8633   1.866   6.498  16.871  0.3681 -1.9974 -0.5967
   6723SM   C14 8634   1.621   6.443  16.774  0.4184  0.3914 -0.4221
   6723SM  H14A 8635   1.615   6.335  16.778  1.0150  0.3757  0.5398
   6723SM  H14B 8636   1.696   6.471  16.701  1.4335 -2.5183 -0.6309
   6723SM  H14C 8637   1.522   6.475  16.744 -0.0298 -1.3106 -0.8535
   6723SM   C13 8638   1.565   6.437  17.009 -0.3574  0.3061 -0.1889
   6723SM  H13A 8639   1.600   6.339  17.039 -1.4284  0.0030  0.0912
   6723SM  H13B 8640   1.465   6.422  16.972 -0.4649 -1.0597  0.5841
   6723SM  H13C 8641   1.572   6.505  17.093 -2.1003 -0.0602  0.2965
   6723SM   C12 8642   1.637   6.646  16.930  0.1449 -0.7491  0.2317
   6723SM  H12A 8643   1.689   6.675  17.020  2.6717  0.1906 -1.4358
   6723SM  H12B 8644   1.531   6.661  16.944  0.1408  1.9232 -1.9945
   6723SM   C11 8645   1.669   6.734  16.799  0.2119  0.2841 -0.2468
   6723SM  H11A 8646   1.764   6.694  16.759  1.3441  1.6174  0.9875
   6723SM  H11B 8647   1.679   6.844  16.815  0.0254  0.1911  0.5391
   6723SM     P 8648   1.422   6.780  16.708  0.2605  0.1556  0.0516
   6723SM   O13 8649   1.341   6.742  16.592 -0.6448  0.1127  0.2473
   6723SM   O14 8650   1.358   6.747  16.833  0.6474  0.3986 -0.6359
   6723SM   O11 8651   1.444   6.935  16.703 -0.0635 -0.2709  0.0928
   6723SM   O12 8652   1.563   6.712  16.703  0.1593 -0.2827 -0.4038
   6723SM   C1S 8653   1.552   7.000  16.631  0.3908 -0.2864  0.3784
   6723SM   H1S 8654   1.641   6.934  16.622  0.1566 -0.3656 -1.8065
   6723SM   H1T 8655   1.577   7.090  16.691 -1.3783  0.8061 -0.4400
   6723SM    NF 8656   1.634   7.101  16.421 -0.2895  0.1379 -0.7324
   6723SM   HNF 8657   1.658   7.198  16.422  1.1853 -0.1954  0.6347
   6723SM   C2S 8658   1.516   7.061  16.495 -0.1596  0.1976  0.3921
   6723SM   H2S 8659   1.462   6.985  16.435  2.0293 -0.3440 -0.9645
   6723SM   C3S 8660   1.416   7.177  16.524 -0.5350 -0.0282 -0.0145
   6723SM   H3S 8661   1.475   7.246  16.587  1.4397 -1.4568 -0.2131
   6723SM    O3 8662   1.298   7.142  16.594  0.1384 -0.3592  0.4583
   6723SM   HO3 8663   1.316   7.052  16.622  1.7993 -0.2043 -0.0366
   6723SM   C4S 8664   1.381   7.252  16.392 -0.3351  0.3645  0.7397
   6723SM   H4S 8665   1.331   7.190  16.316  1.1205  0.2168 -0.1380
   6723SM   C5S 8666   1.417   7.374  16.355 -0.4048  0.4585 -0.4788
   6723SM   H5S 8667   1.472   7.436  16.428 -1.5110  0.9892 -0.0577
   6723SM   C6S 8668   1.373   7.443  16.227 -0.4810 -0.0692 -0.3901
   6723SM   H6S 8669   1.436   7.529  16.198 -0.4210 -0.1069 -0.3711
   6723SM   H6T 8670   1.273   7.491  16.238 -0.8609 -0.7296 -0.8347
   6723SM   C7S 8671   1.373   7.354  16.102 -0.8836 -0.4334  0.5364
   6723SM   H7S 8672   1.303   7.269  16.119 -2.0374  0.7471  2.0073
   6723SM   H7T 8673   1.475   7.312  16.090 -0.6492  0.2957 -0.0650
   6723SM   C8S 8674   1.322   7.438  15.982 -0.3758 -0.0614  0.3865
   6723SM   H8S 8675   1.392   7.522  15.965 -1.6599  0.4539 -3.1219
   6723SM   H8T 8676   1.227   7.490  16.005 -1.1808 -0.7506 -1.2392
   6723SM   C9S 8677   1.315   7.369  15.845 -0.2765  0.2261 -0.8780
   6723SM   H9S 8678   1.295   7.445  15.765 -1.6346  1.3486  0.4655
   6723SM   H9T 8679   1.246   7.282  15.844 -0.0213  0.0233 -0.7028
   6723SM  C10S 8680   1.443   7.293  15.818 -0.7909  0.4119 -0.4121
   6723SM  H10S 8681   1.460   7.214  15.895 -1.2792 -1.7030 -2.3565
   6723SM  H10T 8682   1.511   7.380  15.823 -0.3624  0.0596 -0.0804
   6723SM  C11S 8683   1.457   7.223  15.681  0.1376 -0.4158 -0.7805
   6723SM  H11S 8684   1.554   7.168  15.679  0.6517  0.3530  1.0130
   6723SM  H11T 8685   1.461   7.303  15.604 -2.1526 -0.6123 -1.1775
   6723SM  C12S 8686   1.327   7.152  15.642  0.2439  0.5356 -0.5233
   6723SM  H12S 8687   1.243   7.223  15.626 -0.6392  0.0031  1.4856
   6723SM  H12T 8688   1.291   7.081  15.719 -2.2355  4.0640  1.8762
   6723SM  C13S 8689   1.342   7.058  15.514 -0.0655 -0.1615 -0.2108
   6723SM  H13S 8690   1.390   6.965  15.553  0.7795  0.4010  0.1219
   6723SM  H13T 8691   1.399   7.114  15.437 -1.7463 -1.4338 -2.4840
   6723SM  C14S 8692   1.217   7.030  15.435  0.1111  0.4364  0.0581
   6723SM  H14S 8693   1.138   7.005  15.508  1.1156  0.2516  1.1114
   6723SM  H14T 8694   1.249   6.943  15.374  0.8880 -1.9006  3.4874
   6723SM  C15S 8695   1.180   7.127  15.326  0.7093  0.4599 -0.0696
   6723SM  H15S 8696   1.277   7.143  15.274  1.7035 -0.6723  1.3570
   6723SM  H15T 8697   1.151   7.223  15.375 -0.4878 -0.1628  0.4933
   6723SM  C16S 8698   1.061   7.085  15.235 -0.0690  0.4168  0.1650
   6723SM  H16S 8699   0.965   7.087  15.292  0.2289  2.2451  0.6581
   6723SM  H16T 8700   1.081   6.979  15.207  0.5008 -0.0079  2.0348
   6723SM  C17S 8701   1.042   7.160  15.102  0.3487  0.6787 -0.7114
   6723SM  H17S 8702   1.119   7.152  15.023  0.1329  1.3191 -0.9950
   6723SM  H17T 8703   1.021   7.267  15.127  0.8560  0.7391 -0.5388
   6723SM  C18S 8704   0.912   7.109  15.037  0.0959 -0.3806 -0.3384
   6723SM  H18S 8705   0.834   7.083  15.112  1.5740 -2.6802  0.5185
   6723SM  H18T 8706   0.922   7.010  14.986  0.1093 -0.8349  0.5220
   6723SM  H18U 8707   0.877   7.179  14.958  1.9348  0.5241 -0.3954
   6723SM   C1F 8708   1.724   7.006  16.381 -0.5728 -0.7305  0.0806
   6723SM    OF 8709   1.694   6.885  16.385  0.1544  0.2406 -0.0126
   6723SM   C2F 8710   1.853   7.048  16.319 -0.2302  0.3650  0.0874
   6723SM   H2F 8711   1.875   7.153  16.345  1.2917  0.5175 -1.6154
   6723SM   H2G 8712   1.845   7.037  16.209  1.5229  0.5263 -0.0771
   6723SM   C3F 8713   1.969   6.963  16.371 -0.5322 -0.6791 -0.5412
   6723SM   H3F 8714   1.943   6.858  16.348 -2.9946  0.1969 -2.3180
   6723SM   H3G 8715   1.982   6.971  16.481  0.1613 -2.1467 -0.5006
   6723SM   C4F 8716   2.107   6.987  16.304  0.0863 -0.3818  0.4624
   6723SM   H4F 8717   2.124   7.096  16.296 -2.0349 -0.0523 -0.1744
   6723SM   H4G 8718   2.120   6.932  16.208  0.3826  0.2272  0.1514
   6723SM   C5F 8719   2.220   6.942  16.406 -0.2319  0.0858  0.7474
   6723SM   H5F 8720   2.216   6.835  16.434  0.8011  0.0104  0.6462
   6723SM   H5G 8721   2.214   7.002  16.500  1.9010  1.2701  0.1946
   6723SM   C6F 8722   2.362   6.979  16.364  0.0106 -0.1074 -0.0514
   6723SM   H6F 8723   2.365   7.088  16.345 -1.5199 -0.0615 -0.1370
   6723SM   H6G 8724   2.390   6.937  16.265  1.1800 -1.1752  0.7053
   6723SM   C7F 8725   2.459   6.956  16.484 -0.5539  0.0314 -0.0292
   6723SM   H7F 8726   2.458   6.850  16.518 -2.0759  1.4154  5.0828
   6723SM   H7G 8727   2.430   7.018  16.571  0.4772  1.2085 -0.4956
   6723SM   C8F 8728   2.608   6.979  16.449  0.0394  0.1497 -0.2326
   6723SM   H8F 8729   2.645   6.917  16.365  0.1893 -0.7032  0.4482
   6723SM   H8G 8730   2.674   6.948  16.533 -0.9057  0.6095  0.7051
   6723SM   C9F 8731   2.634   7.127  16.422  0.0524  0.3250  0.1629
   6723SM   H9F 8732   2.639   7.181  16.518 -0.6490 -1.6425  1.3504
   6723SM   H9G 8733   2.554   7.177  16.362 -0.3054 -0.9931 -0.4982
   6723SM  C10F 8734   2.774   7.158  16.363  0.0607  0.1460 -0.1958
   6723SM  H10F 8735   2.846   7.091  16.416 -0.8599  1.1666  2.4828
   6723SM  H10G 8736   2.810   7.260  16.388  0.3636  0.1346 -0.5669
   6723SM  C11F 8737   2.779   7.133  16.211 -0.2488 -1.0235 -0.1426
   6723SM  H11F 8738   2.718   7.043  16.188  2.5522 -2.9099 -0.5776
   6723SM  H11G 8739   2.882   7.124  16.172 -0.3453  1.0611 -1.0386
   6723SM  C12F 8740   2.705   7.248  16.130 -0.2469  0.7278 -0.0435
   6723SM  H12F 8741   2.751   7.347  16.150  3.6301 -0.6957 -1.0094
   6723SM  H12G 8742   2.604   7.253  16.177  0.3571 -2.3329  1.8897
   6723SM  C13F 8743   2.708   7.212  15.983 -0.3936 -0.0404 -0.2730
   6723SM  H13F 8744   2.674   7.106  15.979 -0.3214 -0.2055  2.0915
   6723SM  H13G 8745   2.814   7.221  15.951 -0.6266  1.3079 -0.7316
   6723SM  C14F 8746   2.608   7.294  15.903 -0.0715 -0.5946 -0.2091
   6723SM  H14F 8747   2.645   7.397  15.923 -0.7792 -0.6335  1.4453
   6723SM  H14G 8748   2.507   7.290  15.949 -0.0736 -0.6865 -0.2226
   6723SM  C15F 8749   2.603   7.257  15.759 -0.3357  0.2874 -0.3826
   6723SM  H15F 8750   2.546   7.163  15.745  0.2474 -0.1318  0.0273
   6723SM  H15G 8751   2.704   7.225  15.728 -0.5164  1.9573 -3.0347
   6723SM  C16F 8752   2.557   7.371  15.667  0.6278 -0.5637 -0.1573
   6723SM  H16F 8753   2.606   7.466  15.699 -0.9811  0.4906 -0.6988
   6723SM  H16G 8754   2.447   7.382  15.683  0.7436 -1.3985  1.4009
   6723SM  C17F 8755   2.582   7.358  15.511  0.0824  0.0006  0.1086
   6723SM  H17F 8756   2.691   7.348  15.495  0.2009  0.3151  0.6728
   6723SM  H17G 8757   2.543   7.452  15.466  0.1327  0.1816  0.4370
   6723SM  C18F 8758   2.505   7.235  15.450  0.2331 -0.8871 -0.8524
   6723SM  H18F 8759   2.407   7.224  15.501 -1.6862  0.1648 -4.0708
   6723SM  H18G 8760   2.553   7.139  15.478  1.4266 -0.1173 -0.1227
   6723SM  C19F 8761   2.468   7.247  15.299 -0.1009 -0.1567  0.8152
   6723SM  H19F 8762   2.388   7.318  15.269  1.3914  0.6907 -1.3789
   6723SM  H19G 8763   2.409   7.156  15.274 -0.0962  0.2913 -0.9116
   6723SM  C20F 8764   2.586   7.272  15.207 -0.3232 -0.1661 -0.7341
   6723SM  H20F 8765   2.666   7.199  15.228 -1.2162 -0.8082  0.5067
   6723SM  H20G 8766   2.628   7.370  15.240  0.0751  0.1944 -2.1984
   6723SM  C21F 8767   2.541   7.277  15.062 -0.4868  0.0126  0.3243
   6723SM  H21F 8768   2.514   7.383  15.039 -1.5893 -0.7650 -2.2884
   6723SM  H21G 8769   2.455   7.212  15.038 -0.8119  0.7263 -0.5106
   6723SM  C22F 8770   2.649   7.242  14.950 -0.4585  0.6915  0.7314
   6723SM  H22F 8771   2.690   7.142  14.975 -2.2137 -0.1515  0.3479
   6723SM  H22G 8772   2.737   7.311  14.953  1.3533 -1.5223  0.7553
   6723SM  C23F 8773   2.606   7.245  14.801  0.3466  0.3141  0.0506
   6723SM  H23F 8774   2.590   7.352  14.776 -2.1566 -0.7767 -3.8214
   6723SM  H23G 8775   2.505   7.201  14.799 -0.7369  2.4638  2.4817
   6723SM  H23H 8776   2.687   7.197  14.742 -1.1024 -0.9544 -0.9912
   6823SM     N 8777   2.334   0.689  17.584  0.7270  0.6737  0.3711
   6823SM   C15 8778   2.363   0.752  17.715  0.1479  0.9565 -0.1598
   6823SM  H15A 8779   2.343   0.687  17.798  1.7582 -0.0896 -0.5487
   6823SM  H15B 8780   2.297   0.836  17.731 -0.0442  0.8282 -0.2752
   6823SM  H15C 8781   2.461   0.795  17.726  0.0706  0.7117  1.7728
   6823SM   C14 8782   2.438   0.577  17.566  0.7072  0.0019  0.1699
   6823SM  H14A 8783   2.421   0.501  17.641 -0.6867 -0.7980 -0.9212
   6823SM  H14B 8784   2.534   0.626  17.560  0.2678  0.8875  0.2857
   6823SM  H14C 8785   2.411   0.535  17.470  0.2711  3.0335 -1.1359
   6823SM   C13 8786   2.197   0.629  17.593 -0.1348 -0.1220 -0.2010
   6823SM  H13A 8787   2.201   0.557  17.674  3.3160  0.5764  0.4029
   6823SM  H13B 8788   2.175   0.592  17.494  1.0410  0.7074 -0.7874
   6823SM  H13C 8789   2.129   0.708  17.623 -1.2694 -0.2207 -2.3643
   6823SM   C12 8790   2.341   0.800  17.485 -0.3476  0.1908  0.6988
   6823SM  H12A 8791   2.442   0.836  17.487  0.1940 -1.2503  0.5025
   6823SM  H12B 8792   2.284   0.884  17.522  1.7428  0.9353  2.3711
   6823SM   C11 8793   2.295   0.777  17.336 -0.0700  0.2329  0.7787
   6823SM  H11A 8794   2.331   0.673  17.320 -0.0651  0.4439 -0.7814
   6823SM  H11B 8795   2.344   0.850  17.268 -1.1644  0.3678  0.1250
   6823SM     P 8796   2.079   0.758  17.185 -0.5361 -0.0948 -0.2420
   6823SM   O13 8797   2.104   0.627  17.119  0.0773  0.0138 -1.0404
   6823SM   O14 8798   1.931   0.777  17.200  0.0060  0.0719 -0.3679
   6823SM   O11 8799   2.137   0.876  17.099  0.1763 -0.2880  0.2351
   6823SM   O12 8800   2.153   0.782  17.321 -0.1865 -0.4583 -0.1415
   6823SM   C1S 8801   2.242   0.867  17.006  0.3146 -0.7261  0.3054
   6823SM   H1S 8802   2.293   0.768  16.998  1.3135 -0.1543 -0.7147
   6823SM   H1T 8803   2.316   0.941  17.043  0.4922 -1.2910  1.1194
   6823SM    NF 8804   2.318   0.909  16.764  0.0269  0.0577 -0.2044
   6823SM   HNF 8805   2.360   0.996  16.741 -0.2943  0.6469  1.3466
   6823SM   C2S 8806   2.208   0.922  16.863 -0.2496 -0.7712 -0.4379
   6823SM   H2S 8807   2.124   0.860  16.826 -0.0632 -1.1774 -0.1910
   6823SM   C3S 8808   2.141   1.066  16.871 -0.4569 -0.1144 -0.1910
   6823SM   H3S 8809   2.212   1.138  16.916 -0.7033  0.3665 -0.5655
   6823SM    O3 8810   2.030   1.077  16.966 -0.6938 -0.1719  0.1363
   6823SM   HO3 8811   2.056   1.011  17.030  0.1014 -0.4963 -0.5040
   6823SM   C4S 8812   2.111   1.122  16.732 -0.8543 -0.2451  0.0628
   6823SM   H4S 8813   2.206   1.148  16.683 -0.1368 -1.5050  0.7352
   6823SM   C5S 8814   1.993   1.147  16.674 -0.0929 -0.9975 -0.1928
   6823SM   H5S 8815   1.895   1.144  16.725 -0.2318  0.7907 -0.2940
   6823SM   C6S 8816   1.996   1.208  16.532  0.3672  0.2681  0.0103
   6823SM   H6S 8817   2.090   1.170  16.488  0.5654  0.1293  0.5439
   6823SM   H6T 8818   2.010   1.318  16.540  1.3708  0.1531  0.0361
   6823SM   C7S 8819   1.882   1.161  16.446 -1.0153  0.6455  0.0564
   6823SM   H7S 8820   1.783   1.205  16.470 -1.7559  0.1806 -1.9436
   6823SM   H7T 8821   1.879   1.051  16.459 -0.1674  0.5514 -0.4186
   6823SM   C8S 8822   1.905   1.178  16.293  0.0816 -0.1930  0.1589
   6823SM   H8S 8823   2.010   1.142  16.278  0.4613  0.4736  1.1015
   6823SM   H8T 8824   1.903   1.287  16.268  0.1980  0.0360  1.1262
   6823SM   C9S 8825   1.800   1.102  16.205 -0.3972 -0.1392  0.1383
   6823SM   H9S 8826   1.703   1.138  16.246 -0.6538  0.8274 -1.2418
   6823SM   H9T 8827   1.813   0.994  16.226  3.8639  0.3300  0.8779
   6823SM  C10S 8828   1.829   1.119  16.057  0.1347  0.0214 -0.0025
   6823SM  H10S 8829   1.939   1.105  16.049  0.1628  0.0521  0.3091
   6823SM  H10T 8830   1.812   1.224  16.025 -2.0196 -0.1861  0.3053
   6823SM  C11S 8831   1.748   1.023  15.969 -0.3282  0.0026  0.5780
   6823SM  H11S 8832   1.733   0.927  16.023 -2.3523 -0.0533  0.0098
   6823SM  H11T 8833   1.816   0.999  15.884  0.3188 -3.9817  1.9851
   6823SM  C12S 8834   1.604   1.062  15.913  0.1410  0.0928  0.6923
   6823SM  H12S 8835   1.535   1.070  16.000 -2.0318  0.9481 -1.0225
   6823SM  H12T 8836   1.579   0.987  15.835  0.3208  0.3499  0.3860
   6823SM  C13S 8837   1.608   1.199  15.847  0.5312 -0.6159  0.8325
   6823SM  H13S 8838   1.689   1.207  15.771  0.1236  0.6426  0.5105
   6823SM  H13T 8839   1.615   1.287  15.915  0.7534  1.4479 -1.7100
   6823SM  C14S 8840   1.480   1.222  15.761  0.3827  0.0454  0.1775
   6823SM  H14S 8841   1.496   1.324  15.718 -0.1398  0.2278  0.4109
   6823SM  H14T 8842   1.386   1.225  15.820 -0.5816 -0.2499 -1.2938
   6823SM  C15S 8843   1.469   1.125  15.644 -0.0992 -0.8966  0.5096
   6823SM  H15S 8844   1.362   1.137  15.614  0.0601  1.0892  0.6106
   6823SM  H15T 8845   1.476   1.015  15.663  0.3675 -1.1199 -0.8722
   6823SM  C16S 8846   1.548   1.166  15.520  0.2991 -0.0053 -0.1958
   6823SM  H16S 8847   1.553   1.275  15.498  0.7935  0.2325  1.0557
   6823SM  H16T 8848   1.477   1.120  15.447  0.2889  1.4090 -1.1173
   6823SM  C17S 8849   1.687   1.103  15.499 -0.1302  0.0469  0.3393
   6823SM  H17S 8850   1.671   0.993  15.494  0.1676  0.0426 -1.3016
   6823SM  H17T 8851   1.752   1.139  15.581  0.3632 -0.9356  0.4057
   6823SM  C18S 8852   1.750   1.136  15.358 -0.9409  0.3087 -0.4900
   6823SM  H18S 8853   1.673   1.119  15.279 -0.7357  0.1430 -0.6565
   6823SM  H18T 8854   1.844   1.079  15.345 -0.4501  0.4038  2.1820
   6823SM  H18U 8855   1.786   1.241  15.351 -0.4175  0.2515  0.9227
   6823SM   C1F 8856   2.358   0.799  16.718  0.9060  0.3598  0.1723
   6823SM    OF 8857   2.304   0.694  16.746 -0.2070 -0.2087  0.1009
   6823SM   C2F 8858   2.479   0.804  16.635 -0.5798  0.1197  0.3673
   6823SM   H2F 8859   2.554   0.874  16.677  0.1412  0.9324 -2.1001
   6823SM   H2G 8860   2.446   0.839  16.535 -0.6271 -0.2717  0.2464
   6823SM   C3F 8861   2.547   0.663  16.623 -0.0390  0.2904 -0.2998
   6823SM   H3F 8862   2.489   0.610  16.544  0.0255  0.4043 -0.4261
   6823SM   H3G 8863   2.540   0.603  16.716 -1.5709  0.9685  0.0615
   6823SM   C4F 8864   2.683   0.670  16.558  1.0111 -0.6046 -0.3828
   6823SM   H4F 8865   2.732   0.571  16.552  1.7979 -0.3083  0.8592
   6823SM   H4G 8866   2.756   0.726  16.620  0.5164 -1.5999  1.1514
   6823SM   C5F 8867   2.682   0.723  16.410  0.0494 -0.1829 -0.7217
   6823SM   H5F 8868   2.649   0.826  16.437  0.0755 -1.0401  3.0814
   6823SM   H5G 8869   2.619   0.660  16.344 -1.5141 -2.2881  2.5127
   6823SM   C6F 8870   2.811   0.751  16.345 -0.2595 -0.3267  0.3251
   6823SM   H6F 8871   2.864   0.653  16.338  0.1096 -0.1345  0.3812
   6823SM   H6G 8872   2.887   0.811  16.400  0.0067 -2.5543  2.6012
   6823SM   C7F 8873   2.801   0.817  16.203 -0.4245 -0.1349  0.0631
   6823SM   H7F 8874   2.906   0.828  16.168 -0.5817 -2.2468 -1.2797
   6823SM   H7G 8875   2.753   0.916  16.215  2.5930  1.5815 -0.8452
   6823SM   C8F 8876   2.731   0.710  16.109  0.3903 -0.3064 -0.1697
   6823SM   H8F 8877   2.620   0.719  16.104  0.3068 -1.7460 -1.4754
   6823SM   H8G 8878   2.739   0.611  16.157 -2.3006 -0.2105  0.6788
   6823SM   C9F 8879   2.770   0.709  15.955  0.1667  0.1716 -0.0470
   6823SM   H9F 8880   2.709   0.633  15.901  0.6443 -0.0465 -0.2802
   6823SM   H9G 8881   2.879   0.693  15.944 -0.2407 -2.9303 -0.4343
   6823SM  C10F 8882   2.730   0.843  15.875 -0.5040  0.3239 -0.4186
   6823SM  H10F 8883   2.740   0.814  15.769 -0.5694 -1.2233 -0.0202
   6823SM  H10G 8884   2.801   0.928  15.881 -0.4764  0.2504  0.4481
   6823SM  C11F 8885   2.587   0.890  15.906  0.1003  0.3877 -0.0567
   6823SM  H11F 8886   2.565   0.905  16.014  1.2922  1.8271  0.0212
   6823SM  H11G 8887   2.514   0.814  15.869  0.0783 -0.4515  1.6238
   6823SM  C12F 8888   2.545   1.019  15.837 -0.0459 -1.3921  0.6273
   6823SM  H12F 8889   2.596   1.043  15.741 -0.0256 -0.0231  0.9545
   6823SM  H12G 8890   2.564   1.103  15.907 -0.3644 -0.7113 -0.0868
   6823SM  C13F 8891   2.394   1.023  15.800  0.5776 -0.6404 -0.0129
   6823SM  H13F 8892   2.320   1.028  15.882 -2.0301  0.2749 -2.2508
   6823SM  H13G 8893   2.367   0.927  15.750 -2.9580  1.1400 -1.8365
   6823SM  C14F 8894   2.359   1.142  15.704 -1.0371  0.6730 -0.7895
   6823SM  H14F 8895   2.414   1.126  15.609  0.2927  0.1954  0.0325
   6823SM  H14G 8896   2.403   1.240  15.735  0.5334  0.2911 -1.6959
   6823SM  C15F 8897   2.213   1.162  15.675  0.2388  0.5483 -0.1199
   6823SM  H15F 8898   2.153   1.159  15.769  1.8367 -1.2250  0.9218
   6823SM  H15G 8899   2.190   1.071  15.615 -1.1172 -0.4208  1.7526
   6823SM  C16F 8900   2.176   1.283  15.600 -0.3133 -0.6697  0.5369
   6823SM  H16F 8901   2.220   1.288  15.498  1.5820  1.4009  1.3706
   6823SM  H16G 8902   2.220   1.370  15.653  1.1286 -1.0927  0.0661
   6823SM  C17F 8903   2.024   1.289  15.578  0.2566 -0.1386  0.8488
   6823SM  H17F 8904   1.959   1.271  15.666 -0.4751  1.6118  0.7254
   6823SM  H17G 8905   2.007   1.211  15.501  0.4565  1.2168 -0.6436
   6823SM  C18F 8906   1.974   1.429  15.520  0.3455 -0.4064 -0.2041
   6823SM  H18F 8907   1.865   1.430  15.500  0.2936  1.2731  0.0350
   6823SM  H18G 8908   2.031   1.447  15.427 -1.4746  0.9049 -1.1356
   6823SM  C19F 8909   2.012   1.549  15.611  0.2459 -0.6777  0.3230
   6823SM  H19F 8910   2.122   1.557  15.604  0.0904  1.8406 -0.1154
   6823SM  H19G 8911   1.975   1.543  15.716 -0.2375 -0.1223  0.1957
   6823SM  C20F 8912   1.947   1.679  15.554 -0.5130  0.4236 -0.4209
   6823SM  H20F 8913   1.915   1.667  15.448 -3.0477  0.5468  0.2545
   6823SM  H20G 8914   2.033   1.749  15.558 -0.1099 -0.0972  2.3841
   6823SM  C21F 8915   1.829   1.731  15.633 -1.0127 -0.1224 -0.2442
   6823SM  H21F 8916   1.863   1.736  15.738 -0.0032 -0.5625 -0.5401
   6823SM  H21G 8917   1.748   1.655  15.634 -0.8260 -0.3263 -0.4443
   6823SM  C22F 8918   1.777   1.869  15.584 -0.2958  0.0215 -0.5472
   6823SM  H22F 8919   1.739   1.859  15.480 -0.0108  1.3415 -0.7978
   6823SM  H22G 8920   1.864   1.937  15.596  0.6755 -1.4660  1.5464
   6823SM  C23F 8921   1.657   1.917  15.663 -0.2231  0.6807  0.4883
   6823SM  H23F 8922   1.609   1.829  15.710 -0.1585 -0.4759 -1.4580
   6823SM  H23G 8923   1.597   1.959  15.580 -0.9209 -1.2897 -0.0725
   6823SM  H23H 8924   1.692   1.988  15.740 -0.0910  0.7910  0.3278
   6923SM     N 8925   3.374   3.481  17.403 -0.8299  0.5368  0.7631
   6923SM   C15 8926   3.427   3.591  17.483  0.4876 -0.0185  0.1154
   6923SM  H15A 8927   3.360   3.671  17.514  0.8244  0.2476  0.1610
   6923SM  H15B 8928   3.502   3.646  17.428  0.1302  0.3665  0.0013
   6923SM  H15C 8929   3.485   3.554  17.566  1.0178  1.9272  0.6769
   6923SM   C14 8930   3.490   3.383  17.370  0.9601 -1.0591 -0.2756
   6923SM  H14A 8931   3.528   3.338  17.461 -1.1095 -2.7937 -0.1926
   6923SM  H14B 8932   3.569   3.439  17.322 -1.4107  1.5847 -1.3231
   6923SM  H14C 8933   3.456   3.310  17.298 -0.2443  0.7902 -1.6675
   6923SM   C13 8934   3.261   3.410  17.466 -0.1540  1.0934 -0.2434
   6923SM  H13A 8935   3.202   3.354  17.396  0.5306  2.4229 -1.9401
   6923SM  H13B 8936   3.195   3.486  17.506 -0.3046  0.5229  0.6117
   6923SM  H13C 8937   3.268   3.346  17.553 -1.1959  2.0882  0.6131
   6923SM   C12 8938   3.328   3.529  17.261  0.3258 -0.3861 -0.5524
   6923SM  H12A 8939   3.288   3.444  17.207 -2.3115 -0.2783  1.0679
   6923SM  H12B 8940   3.421   3.551  17.210  2.3492 -0.4114  2.8305
   6923SM   C11 8941   3.232   3.646  17.251  0.2919 -0.2085 -0.5028
   6923SM  H11A 8942   3.273   3.734  17.306  0.6631  0.2519 -1.4798
   6923SM  H11B 8943   3.131   3.627  17.292  0.4336 -0.8220 -0.4393
   6923SM     P 8944   3.121   3.587  17.027 -0.1388 -0.0119  0.3946
   6923SM   O13 8945   3.187   3.456  17.008  0.1081 -0.1900  0.4745
   6923SM   O14 8946   2.987   3.590  17.083  0.7497 -0.3918 -0.3209
   6923SM   O11 8947   3.112   3.655  16.884  0.1034 -0.3982  0.1994
   6923SM   O12 8948   3.215   3.686  17.112  0.0728 -0.4344 -0.2303
   6923SM   C1S 8949   3.231   3.665  16.795  0.3179  0.0063 -0.2571
   6923SM   H1S 8950   3.318   3.684  16.861 -1.6783 -1.2246  2.9934
   6923SM   H1T 8951   3.219   3.751  16.725 -2.9577 -0.0718  0.0422
   6923SM    NF 8952   3.363   3.575  16.622 -0.0544  0.1096  0.5726
   6923SM   HNF 8953   3.352   3.620  16.534  2.2066  1.2907  0.8345
   6923SM   C2S 8954   3.245   3.548  16.698  0.4117 -0.6498 -0.6734
   6923SM   H2S 8955   3.265   3.461  16.764 -0.1407 -1.1598 -1.1750
   6923SM   C3S 8956   3.119   3.521  16.615 -0.2941 -0.6053  0.0154
   6923SM   H3S 8957   3.094   3.618  16.567 -3.1122 -0.6566  1.1422
   6923SM    O3 8958   2.998   3.506  16.693 -0.7782  0.0617 -0.1096
   6923SM   HO3 8959   3.028   3.548  16.774 -1.2788  1.3663 -0.5827
   6923SM   C4S 8960   3.121   3.421  16.499  0.0009  0.1216 -0.0108
   6923SM   H4S 8961   3.179   3.465  16.418 -0.0244  2.4979  1.1877
   6923SM   C5S 8962   3.071   3.295  16.504  0.3311  0.2814  1.0472
   6923SM   H5S 8963   3.008   3.263  16.588 -3.3183  0.5016 -1.3221
   6923SM   C6S 8964   3.083   3.195  16.391 -0.1687  0.5662 -0.1506
   6923SM   H6S 8965   3.139   3.109  16.434  0.1395  1.8080  2.0664
   6923SM   H6T 8966   3.135   3.222  16.298 -1.0793 -1.3123 -1.2714
   6923SM   C7S 8967   2.949   3.142  16.347  0.0043 -0.3151 -0.1623
   6923SM   H7S 8968   2.908   3.215  16.275  0.0351  0.5042  0.6334
   6923SM   H7T 8969   2.869   3.133  16.424  0.4948  1.3363  0.5911
   6923SM   C8S 8970   2.965   3.006  16.264  0.1378 -0.6710  0.0718
   6923SM   H8S 8971   2.984   2.917  16.329  0.2919 -0.5275  0.2245
   6923SM   H8T 8972   3.051   3.018  16.195 -0.7004  1.6503 -0.6738
   6923SM   C9S 8973   2.851   2.978  16.177 -0.1121 -0.2980 -0.5326
   6923SM   H9S 8974   2.844   3.027  16.077  0.6894 -0.7896 -0.8360
   6923SM   H9T 8975   2.754   2.996  16.228 -0.5380 -3.1541 -0.1922
   6923SM  C10S 8976   2.845   2.829  16.138 -0.6377 -0.3508 -0.1952
   6923SM  H10S 8977   2.761   2.818  16.065  0.8281  1.3866 -2.2859
   6923SM  H10T 8978   2.839   2.771  16.233 -0.4973  0.9513  0.6263
   6923SM  C11S 8979   2.967   2.758  16.075  0.1085 -0.3346 -0.5898
   6923SM  H11S 8980   2.938   2.653  16.053  0.6816 -0.5487 -0.3434
   6923SM  H11T 8981   3.045   2.747  16.153  2.4472 -1.1990 -2.9091
   6923SM  C12S 8982   3.020   2.827  15.948 -0.5451  0.2642 -0.2825
   6923SM  H12S 8983   3.121   2.793  15.917 -1.0474 -0.0869 -1.5915
   6923SM  H12T 8984   3.031   2.936  15.961  0.8313  0.3543 -1.9543
   6923SM  C13S 8985   2.933   2.798  15.829  0.7832 -0.0808 -0.0551
   6923SM  H13S 8986   2.946   2.879  15.753 -3.4593  0.1433 -0.8145
   6923SM  H13T 8987   2.826   2.815  15.856  1.4304  0.3710  2.4757
   6923SM  C14S 8988   2.953   2.662  15.761  0.3036  0.2550  0.0091
   6923SM  H14S 8989   2.919   2.584  15.832 -3.1780  1.1748 -0.4752
   6923SM  H14T 8990   3.058   2.630  15.745  0.2553  0.4227 -0.6980
   6923SM  C15S 8991   2.877   2.655  15.631  0.0198  0.1821 -1.0027
   6923SM  H15S 8992   2.905   2.736  15.560 -0.4798  0.6752 -0.6492
   6923SM  H15T 8993   2.771   2.674  15.656  0.6470  0.8951  1.3018
   6923SM  C16S 8994   2.899   2.523  15.552  0.0786 -0.5807 -0.5696
   6923SM  H16S 8995   2.883   2.443  15.626 -0.1586  0.5777  0.6632
   6923SM  H16T 8996   3.008   2.527  15.529  0.2535 -1.8595 -0.0416
   6923SM  C17S 8997   2.826   2.514  15.420  0.1143 -0.1834 -0.7566
   6923SM  H17S 8998   2.872   2.436  15.356  1.2229 -0.3069  0.1579
   6923SM  H17T 8999   2.834   2.617  15.379  0.7379  0.3586  0.6774
   6923SM  C18S 9000   2.671   2.486  15.423 -0.8203  0.7140 -0.1908
   6923SM  H18S 9001   2.619   2.569  15.474  1.0253  1.8000  0.0206
   6923SM  H18T 9002   2.651   2.392  15.479  1.8782  1.2332  1.8659
   6923SM  H18U 9003   2.632   2.480  15.320 -1.3440  1.0985 -0.0191
   6923SM   C1F 9004   3.488   3.566  16.665  0.6655  0.6525 -0.6563
   6923SM    OF 9005   3.516   3.537  16.786  0.4115 -0.4204  0.1881
   6923SM   C2F 9006   3.593   3.608  16.576  0.2138  0.6350 -0.2939
   6923SM   H2F 9007   3.653   3.675  16.641  1.1032 -0.0386 -0.4163
   6923SM   H2G 9008   3.557   3.677  16.495  1.1892  0.8647 -0.5443
   6923SM   C3F 9009   3.689   3.506  16.520  0.3858  0.5267  0.5758
   6923SM   H3F 9010   3.707   3.436  16.605  2.0599  0.1308 -0.0616
   6923SM   H3G 9011   3.786   3.550  16.488 -0.0588  0.0532 -1.5423
   6923SM   C4F 9012   3.624   3.425  16.401 -0.5956  0.1784  0.2537
   6923SM   H4F 9013   3.524   3.383  16.423 -0.2530 -0.7151  0.1857
   6923SM   H4G 9014   3.688   3.336  16.378 -0.4697  0.4633 -0.5551
   6923SM   C5F 9015   3.621   3.521  16.284  0.3629 -0.0978 -0.1462
   6923SM   H5F 9016   3.724   3.561  16.275  0.5472 -0.3418  0.7898
   6923SM   H5G 9017   3.555   3.608  16.305  0.6302 -0.3814  2.0484
   6923SM   C6F 9018   3.557   3.453  16.158 -0.1490  0.0007 -0.4048
   6923SM   H6F 9019   3.631   3.372  16.139 -0.2742 -0.4106  0.7972
   6923SM   H6G 9020   3.567   3.521  16.070  1.6058 -0.7732 -0.8586
   6923SM   C7F 9021   3.414   3.405  16.169 -0.0975 -0.2818  0.4096
   6923SM   H7F 9022   3.347   3.478  16.219  1.1878 -0.3456  2.3504
   6923SM   H7G 9023   3.420   3.321  16.241  0.2263  0.1977  0.9534
   6923SM   C8F 9024   3.358   3.362  16.036  0.5696 -0.1541 -0.7369
   6923SM   H8F 9025   3.426   3.400  15.957  1.0837 -0.9805 -0.7068
   6923SM   H8G 9026   3.261   3.413  16.017 -1.1836 -2.4649  1.3166
   6923SM   C9F 9027   3.343   3.208  16.017 -0.3496  0.2810 -0.1447
   6923SM   H9F 9028   3.272   3.157  16.085  0.1491  0.2281  0.3461
   6923SM   H9G 9029   3.443   3.163  16.034 -1.1559 -0.8629  1.9086
   6923SM  C10F 9030   3.314   3.172  15.870 -1.0698  0.1407  0.5624
   6923SM  H10F 9031   3.379   3.233  15.804  0.4500  1.3095  3.0051
   6923SM  H10G 9032   3.207   3.196  15.851 -0.5427  2.4631  0.2467
   6923SM  C11F 9033   3.342   3.022  15.850 -0.0526 -0.2524 -0.2444
   6923SM  H11F 9034   3.289   2.963  15.928  0.6531 -0.5586  0.0052
   6923SM  H11G 9035   3.453   3.022  15.857 -0.1295  0.7983  1.7805
   6923SM  C12F 9036   3.286   2.971  15.721 -0.2807 -0.1720 -0.1317
   6923SM  H12F 9037   3.339   3.030  15.643 -0.0847  0.7702  0.6931
   6923SM  H12G 9038   3.176   2.983  15.711 -0.1248 -0.6190 -3.5371
   6923SM  C13F 9039   3.316   2.818  15.701  0.3297  0.0193  0.4811
   6923SM  H13F 9040   3.248   2.770  15.774  0.8214 -0.8601  0.3754
   6923SM  H13G 9041   3.420   2.793  15.732  1.1705  0.4790 -1.7930
   6923SM  C14F 9042   3.305   2.756  15.557 -0.2028  0.0442 -0.0451
   6923SM  H14F 9043   3.197   2.774  15.536  0.1302  0.2025 -1.7992
   6923SM  H14G 9044   3.319   2.645  15.560 -1.2171 -0.0786  0.6480
   6923SM  C15F 9045   3.409   2.806  15.449 -0.6729 -0.6342 -0.4086
   6923SM  H15F 9046   3.398   2.913  15.424 -1.0277 -0.2692  1.1639
   6923SM  H15G 9047   3.388   2.748  15.357 -1.1650  1.3339 -1.5768
   6923SM  C16F 9048   3.553   2.793  15.491 -0.2407  0.4094  0.7347
   6923SM  H16F 9049   3.568   2.683  15.503 -0.5965  0.2300 -0.3196
   6923SM  H16G 9050   3.586   2.849  15.581  0.3407  2.1686 -0.5140
   6923SM  C17F 9051   3.650   2.840  15.387 -0.0639 -0.2415  0.3018
   6923SM  H17F 9052   3.751   2.818  15.428 -0.4383 -1.0612  0.8275
   6923SM  H17G 9053   3.652   2.950  15.375 -0.2450 -0.2994 -0.2635
   6923SM  C18F 9054   3.651   2.774  15.251  0.5230  0.8807 -0.1561
   6923SM  H18F 9055   3.559   2.774  15.189  0.7150 -3.2420 -0.7291
   6923SM  H18G 9056   3.666   2.664  15.263  0.3268  0.6971 -1.4323
   6923SM  C19F 9057   3.758   2.826  15.163 -0.6217 -0.5568 -0.0888
   6923SM  H19F 9058   3.850   2.807  15.222  0.5024 -1.1153 -1.9192
   6923SM  H19G 9059   3.741   2.932  15.135 -0.1371 -1.0213 -2.3607
   6923SM  C20F 9060   3.788   2.748  15.032 -0.0593  0.2612 -0.8629
   6923SM  H20F 9061   3.827   2.804  14.944  1.8424 -1.0934 -0.9538
   6923SM  H20G 9062   3.693   2.706  14.991 -1.4598  0.1733  2.2240
   6923SM  C21F 9063   3.876   2.622  15.051  0.3960 -0.3338 -0.0269
   6923SM  H21F 9064   3.832   2.566  15.136 -0.4478  2.6079  1.6361
   6923SM  H21G 9065   3.983   2.641  15.072  0.6081  0.7250 -1.8761
   6923SM  C22F 9066   3.872   2.543  14.918  0.1756  0.1689 -0.1930
   6923SM  H22F 9067   3.927   2.613  14.853 -0.4029  1.5256  0.7087
   6923SM  H22G 9068   3.770   2.524  14.878  1.5632 -2.4960 -2.7898
   6923SM  C23F 9069   3.929   2.403  14.920  0.1253  0.9081 -0.7178
   6923SM  H23F 9070   3.894   2.355  14.826 -0.9961 -1.0302  0.6052
   6923SM  H23G 9071   3.887   2.330  14.993  0.4867 -0.0219 -1.4340
   6923SM  H23H 9072   4.038   2.398  14.937 -0.2378 -2.5026  1.4840
   7023SM     N 9073   4.028   1.969  17.183  0.2326 -0.1502  0.0049
   7023SM   C15 9074   3.996   2.057  17.303  0.1218 -0.3190 -0.0287
   7023SM  H15A 9075   4.088   2.087  17.352  0.3504  0.8613 -1.1218
   7023SM  H15B 9076   3.949   2.004  17.385 -0.1809  1.1419  0.7855
   7023SM  H15C 9077   3.937   2.141  17.268  0.2898  0.2631  1.0351
   7023SM   C14 9078   4.093   2.048  17.075 -0.2022 -0.4238  0.0052
   7023SM  H14A 9079   4.178   2.101  17.115 -1.8872  0.3577  2.7886
   7023SM  H14B 9080   4.021   2.123  17.044 -2.0209 -2.0172  0.1905
   7023SM  H14C 9081   4.126   1.980  16.997  0.7804  0.4093 -0.3338
   7023SM   C13 9082   4.118   1.864  17.235  0.1726  0.1899 -0.1905
   7023SM  H13A 9083   4.215   1.908  17.255  0.6926 -1.1648  0.3992
   7023SM  H13B 9084   4.143   1.788  17.162 -0.4401 -0.8034  0.6045
   7023SM  H13C 9085   4.078   1.811  17.321  0.1203  0.5341 -0.0007
   7023SM   C12 9086   3.901   1.903  17.137 -0.5306 -0.3118 -0.6689
   7023SM  H12A 9087   3.876   1.828  17.211  0.5864  0.7672  0.8782
   7023SM  H12B 9088   3.926   1.857  17.042 -0.7147  0.6666 -1.2031
   7023SM   C11 9089   3.772   1.988  17.110 -0.3928 -0.2397 -0.2581
   7023SM  H11A 9090   3.741   2.040  17.203 -0.8427 -0.2858 -0.3822
   7023SM  H11B 9091   3.693   1.918  17.078 -1.5400  0.4125  1.0632
   7023SM     P 9092   3.783   2.239  17.023 -0.0261 -0.2733  0.4169
   7023SM   O13 9093   3.640   2.268  17.065 -0.1108 -0.2167 -0.5308
   7023SM   O14 9094   3.885   2.291  17.115  0.0327  0.6482  0.3860
   7023SM   O11 9095   3.817   2.297  16.882  0.1534  0.1967 -0.3303
   7023SM   O12 9096   3.796   2.086  17.006  0.4330 -0.2171 -0.6262
   7023SM   C1S 9097   3.888   2.237  16.768 -0.0530 -0.0057  0.1318
   7023SM   H1S 9098   3.936   2.140  16.789 -0.5069  0.1535  2.1420
   7023SM   H1T 9099   3.971   2.303  16.736  0.4549 -0.7642 -0.1358
   7023SM    NF 9100   3.893   2.195  16.526  0.2704  0.1410  0.1793
   7023SM   HNF 9101   3.965   2.250  16.483  2.3580 -2.6508 -0.2008
   7023SM   C2S 9102   3.813   2.249  16.637 -0.6804  0.2854 -0.2561
   7023SM   H2S 9103   3.720   2.190  16.651 -0.5961  0.4242  1.0026
   7023SM   C3S 9104   3.764   2.393  16.603 -0.0709 -0.7894  0.0249
   7023SM   H3S 9105   3.851   2.462  16.599 -1.1000  0.5475 -0.5655
   7023SM    O3 9106   3.697   2.452  16.708  0.7142 -0.5312  0.1983
   7023SM   HO3 9107   3.733   2.403  16.782 -1.8996 -0.5215  1.5862
   7023SM   C4S 9108   3.678   2.411  16.487 -0.0141 -0.3087  0.7444
   7023SM   H4S 9109   3.574   2.377  16.501  0.2430 -3.9004 -3.6618
   7023SM   C5S 9110   3.725   2.458  16.371 -0.0464  0.4199  0.0622
   7023SM   H5S 9111   3.834   2.470  16.365  0.1155 -0.0851  1.5302
   7023SM   C6S 9112   3.640   2.459  16.243  0.1450  0.1172 -0.1535
   7023SM   H6S 9113   3.691   2.391  16.171 -1.0206 -2.1410  1.0440
   7023SM   H6T 9114   3.645   2.556  16.191 -0.7024  0.9258  1.2143
   7023SM   C7S 9115   3.498   2.406  16.237  0.1157  0.7066 -0.3567
   7023SM   H7S 9116   3.442   2.467  16.311  0.4145 -1.2684  1.6115
   7023SM   H7T 9117   3.489   2.307  16.286  1.0509  0.7332 -0.1138
   7023SM   C8S 9118   3.434   2.402  16.097 -0.5971 -0.6464 -0.8452
   7023SM   H8S 9119   3.458   2.311  16.037  1.3392 -1.2467  0.7563
   7023SM   H8T 9120   3.497   2.475  16.041 -0.2782 -2.0859 -2.4707
   7023SM   C9S 9121   3.285   2.431  16.096 -0.4075 -0.5444  0.0389
   7023SM   H9S 9122   3.251   2.495  16.012 -2.2803 -1.3665  0.1254
   7023SM   H9T 9123   3.257   2.479  16.193  0.2778 -0.8885  0.4181
   7023SM  C10S 9124   3.205   2.298  16.100  0.7383  0.1949 -0.0264
   7023SM  H10S 9125   3.224   2.244  16.195 -1.1708  0.3246  0.4853
   7023SM  H10T 9126   3.242   2.229  16.022  1.6349  2.2287 -1.4764
   7023SM  C11S 9127   3.056   2.309  16.073  1.2070 -0.2928  0.2500
   7023SM  H11S 9128   3.047   2.349  15.969  1.3431  2.3598  1.1822
   7023SM  H11T 9129   3.001   2.377  16.142 -0.2605 -1.3333  0.1670
   7023SM  C12S 9130   2.984   2.177  16.088  0.6596 -0.0600  0.5905
   7023SM  H12S 9131   2.991   2.132  16.190  1.7340 -0.1736  0.4785
   7023SM  H12T 9132   3.025   2.099  16.021 -0.8140 -1.4088  1.1728
   7023SM  C13S 9133   2.831   2.197  16.050 -0.1883  0.3893  0.4129
   7023SM  H13S 9134   2.793   2.290  16.097 -1.1301  0.8713 -1.2203
   7023SM  H13T 9135   2.775   2.121  16.108 -0.3092  0.1519 -0.0112
   7023SM  C14S 9136   2.798   2.196  15.899  0.7056 -0.0026  0.4871
   7023SM  H14S 9137   2.788   2.089  15.869  1.5343  0.5231 -1.8886
   7023SM  H14T 9138   2.880   2.236  15.836 -1.1685  0.4292 -1.8329
   7023SM  C15S 9139   2.659   2.266  15.866 -0.4132  0.7569 -0.3460
   7023SM  H15S 9140   2.570   2.224  15.918  0.0783  0.5430  0.3401
   7023SM  H15T 9141   2.637   2.222  15.767 -2.2596 -0.1156  0.3980
   7023SM  C16S 9142   2.651   2.420  15.871  0.2310 -0.9067 -0.2011
   7023SM  H16S 9143   2.743   2.462  15.825 -0.6071  0.6921 -0.4541
   7023SM  H16T 9144   2.642   2.448  15.978 -1.3386  0.7807 -0.7329
   7023SM  C17S 9145   2.522   2.474  15.813  0.1482  0.4143  0.1963
   7023SM  H17S 9146   2.534   2.441  15.707  0.8795 -0.5484  0.5700
   7023SM  H17T 9147   2.516   2.584  15.826 -1.8001  0.2391  1.0756
   7023SM  C18S 9148   2.394   2.413  15.873  0.4290  0.6784 -0.3183
   7023SM  H18S 9149   2.409   2.406  15.983 -1.5217  0.0238 -0.0458
   7023SM  H18T 9150   2.375   2.312  15.830  0.7421 -0.9827  3.1045
   7023SM  H18U 9151   2.310   2.480  15.845  0.2713  0.8619  0.5758
   7023SM   C1F 9152   3.929   2.068  16.508  0.4621  0.2955  0.4914
   7023SM    OF 9153   3.903   1.983  16.595 -0.1072 -0.5741  0.4862
   7023SM   C2F 9154   4.012   2.048  16.386  0.1185 -0.5997  0.4847
   7023SM   H2F 9155   4.120   2.059  16.411  0.0717  2.4575 -0.2574
   7023SM   H2G 9156   3.992   2.132  16.316 -1.7737 -0.7067  0.8437
   7023SM   C3F 9157   3.972   1.919  16.315 -0.0978 -0.5323  0.3178
   7023SM   H3F 9158   3.989   1.825  16.372 -0.8626 -1.0545 -0.2992
   7023SM   H3G 9159   4.030   1.905  16.221  0.2989 -0.0013  0.4778
   7023SM   C4F 9160   3.821   1.913  16.282 -0.9774 -0.5446  0.3788
   7023SM   H4F 9161   3.787   2.001  16.223  0.2218  0.3752  1.0282
   7023SM   H4G 9162   3.757   1.922  16.372 -1.3121 -0.1422  0.1059
   7023SM   C5F 9163   3.774   1.777  16.221 -0.2992  0.4860  0.3158
   7023SM   H5F 9164   3.664   1.776  16.206 -0.5544 -0.1535  2.0235
   7023SM   H5G 9165   3.794   1.697  16.296  0.3442  1.1300  0.8456
   7023SM   C6F 9166   3.850   1.744  16.094  0.1872  0.0929  0.0010
   7023SM   H6F 9167   3.826   1.638  16.069  0.4391 -0.5691  2.3209
   7023SM   H6G 9168   3.961   1.749  16.102  0.2703  0.6249 -1.3215
   7023SM   C7F 9169   3.810   1.839  15.978  0.4759  0.0426  0.0067
   7023SM   H7F 9170   3.812   1.939  16.026  1.4730 -0.7968  1.8113
   7023SM   H7G 9171   3.703   1.814  15.963  0.3068  0.6481  0.1440
   7023SM   C8F 9172   3.893   1.840  15.851  0.5838 -0.5328 -0.8930
   7023SM   H8F 9173   3.888   1.736  15.813 -0.1373 -1.8405  2.4576
   7023SM   H8G 9174   3.996   1.874  15.874 -0.1514  1.2068  0.0522
   7023SM   C9F 9175   3.822   1.935  15.758 -0.3470 -0.0886 -0.2365
   7023SM   H9F 9176   3.785   2.027  15.808  1.5771  0.9450 -0.6294
   7023SM   H9G 9177   3.739   1.870  15.723  0.3998 -0.5121 -1.2788
   7023SM  C10F 9178   3.896   1.981  15.634 -0.0772 -0.1286  0.2274
   7023SM  H10F 9179   3.917   1.896  15.566  3.1495  1.3216 -0.7513
   7023SM  H10G 9180   3.996   2.022  15.657 -0.3576  0.3625  0.5926
   7023SM  C11F 9181   3.824   2.088  15.554 -0.4998  0.7192  0.4990
   7023SM  H11F 9182   3.835   2.184  15.608 -1.0983 -0.3667  2.6873
   7023SM  H11G 9183   3.717   2.059  15.551 -0.6110  1.1856 -0.0601
   7023SM  C12F 9184   3.875   2.108  15.410 -0.3965 -0.1384  0.1537
   7023SM  H12F 9185   3.882   2.015  15.350  3.4791 -0.8840  1.4724
   7023SM  H12G 9186   3.979   2.143  15.425 -0.5223  0.2727  0.0764
   7023SM  C13F 9187   3.809   2.223  15.325 -0.2576  0.3455 -0.1137
   7023SM  H13F 9188   3.866   2.244  15.231 -1.1251  0.0988 -0.7016
   7023SM  H13G 9189   3.820   2.317  15.383 -0.8141 -0.8066  1.9486
   7023SM  C14F 9190   3.662   2.200  15.293  0.6208  0.2760  0.7518
   7023SM  H14F 9191   3.599   2.181  15.383  2.0126  0.5328  1.8075
   7023SM  H14G 9192   3.644   2.122  15.215 -2.4296  0.9384  0.6488
   7023SM  C15F 9193   3.597   2.319  15.227  0.0004  0.3771  0.2810
   7023SM  H15F 9194   3.666   2.358  15.149  2.5392 -2.7473  0.7401
   7023SM  H15G 9195   3.568   2.400  15.297 -1.5458  0.1886 -0.1208
   7023SM  C16F 9196   3.468   2.268  15.163 -0.4083  0.5934 -0.0596
   7023SM  H16F 9197   3.405   2.225  15.245 -0.7668  0.7466 -0.2549
   7023SM  H16G 9198   3.498   2.192  15.088  0.7685  0.2241  0.7496
   7023SM  C17F 9199   3.382   2.382  15.098 -0.5842 -0.3674 -0.1965
   7023SM  H17F 9200   3.322   2.346  15.013  0.2228 -0.1370 -0.8788
   7023SM  H17G 9201   3.455   2.456  15.058 -1.2972 -1.3984 -3.7437
   7023SM  C18F 9202   3.296   2.454  15.199  0.8227 -0.5473 -0.4810
   7023SM  H18F 9203   3.345   2.494  15.290 -0.3057 -0.3696  0.0725
   7023SM  H18G 9204   3.211   2.391  15.232  0.3735  1.4165  2.5377
   7023SM  C19F 9205   3.241   2.592  15.144 -0.1076 -1.5042 -0.1916
   7023SM  H19F 9206   3.322   2.666  15.123 -0.8955 -0.0081  1.6688
   7023SM  H19G 9207   3.177   2.644  15.219 -0.9943 -0.0711 -1.8702
   7023SM  C20F 9208   3.149   2.576  15.019 -0.5776 -0.2033 -0.5501
   7023SM  H20F 9209   3.217   2.511  14.958 -0.6456 -0.7194 -0.0773
   7023SM  H20G 9210   3.137   2.674  14.968  0.6134  1.4452  2.1040
   7023SM  C21F 9211   3.015   2.514  15.040  0.1863 -0.2550 -0.4439
   7023SM  H21F 9212   2.980   2.551  15.139  0.5362  1.5539 -0.9649
   7023SM  H21G 9213   3.012   2.403  15.038 -0.2864 -0.2522 -2.8507
   7023SM  C22F 9214   2.907   2.566  14.953  0.7975  0.7619  0.9402
   7023SM  H22F 9215   2.889   2.675  14.960 -0.1782  0.5380  2.1773
   7023SM  H22G 9216   2.806   2.527  14.976  1.2943 -0.2361  1.4576
   7023SM  C23F 9217   2.932   2.529  14.811  0.0047  0.2579  0.1946
   7023SM  H23F 9218   3.024   2.575  14.769  0.7348 -0.2686  1.1983
   7023SM  H23G 9219   2.845   2.552  14.745  0.4076  1.5346  0.0891
   7023SM  H23H 9220   2.956   2.422  14.796 -0.5773 -0.0101  1.1372
   7123SM     N 9221   4.251   7.999  17.212 -0.2004 -0.2444  0.6279
   7123SM   C15 9222   4.174   8.090  17.124 -0.0892 -0.3574 -0.9533
   7123SM  H15A 9223   4.164   8.185  17.175  1.0253 -0.7183 -0.0337
   7123SM  H15B 9224   4.078   8.047  17.099 -0.3663 -0.6956  0.5694
   7123SM  H15C 9225   4.223   8.108  17.029  0.1231  0.3027 -0.7237
   7123SM   C14 9226   4.174   8.000  17.340  0.4485  0.2057  0.6788
   7123SM  H14A 9227   4.222   7.944  17.420 -1.0137 -0.8108  0.8880
   7123SM  H14B 9228   4.075   7.963  17.317  0.9671 -0.3250 -0.8239
   7123SM  H14C 9229   4.158   8.104  17.365 -1.3908  0.0162  0.4340
   7123SM   C13 9230   4.255   7.857  17.153 -0.4920 -0.7866 -0.0778
   7123SM  H13A 9231   4.273   7.787  17.234  1.2614 -1.0878 -0.6928
   7123SM  H13B 9232   4.323   7.842  17.071 -1.5817 -1.2476 -0.9327
   7123SM  H13C 9233   4.158   7.830  17.113 -0.7417 -1.1832  0.7648
   7123SM   C12 9234   4.387   8.061  17.237 -0.0222  0.2045  0.2982
   7123SM  H12A 9235   4.440   7.993  17.301  1.0364 -0.7060 -1.4489
   7123SM  H12B 9236   4.388   8.155  17.291  0.2508  1.1204 -1.2190
   7123SM   C11 9237   4.482   8.088  17.122  0.1061 -0.2583  0.2555
   7123SM  H11A 9238   4.574   8.139  17.158 -0.4951 -0.1306  1.6875
   7123SM  H11B 9239   4.434   8.168  17.062 -0.3714 -0.6123  0.1572
   7123SM     P 9240   4.611   7.993  16.926  0.2017  0.2745 -0.2530
   7123SM   O13 9241   4.660   8.134  16.924 -0.5051 -0.3849  0.5810
   7123SM   O14 9242   4.717   7.889  16.936 -0.5729  0.2883 -0.5102
   7123SM   O11 9243   4.505   7.966  16.809 -0.0012  0.2836 -0.3111
   7123SM   O12 9244   4.516   7.970  17.047 -0.5104  0.1089 -0.6063
   7123SM   C1S 9245   4.388   7.889  16.826 -0.5843  0.2078  0.5416
   7123SM   H1S 9246   4.313   7.948  16.883 -1.1957 -0.5832  0.5839
   7123SM   H1T 9247   4.412   7.803  16.893 -1.9374  0.2744  1.1701
   7123SM    NF 9248   4.219   7.750  16.701 -0.4334 -0.0736  0.1209
   7123SM   HNF 9249   4.232   7.652  16.716  0.8648 -0.1966 -1.5291
   7123SM   C2S 9250   4.346   7.824  16.689 -0.2007  1.4455  0.3679
   7123SM   H2S 9251   4.330   7.913  16.624 -0.6973  1.7947  0.9618
   7123SM   C3S 9252   4.465   7.733  16.637  0.8105  0.2097  0.5703
   7123SM   H3S 9253   4.474   7.641  16.697 -0.2261  0.0479  0.4947
   7123SM    O3 9254   4.592   7.802  16.631  0.2780  0.2003  0.0166
   7123SM   HO3 9255   4.590   7.871  16.697 -1.0992 -0.7136  0.9943
   7123SM   C4S 9256   4.428   7.675  16.499 -0.2548 -0.7782  0.0933
   7123SM   H4S 9257   4.356   7.592  16.504 -1.1358 -0.0526 -0.1922
   7123SM   C5S 9258   4.467   7.724  16.379 -0.6410  0.7923 -0.0060
   7123SM   H5S 9259   4.552   7.793  16.376 -0.9118  1.2149 -4.3024
   7123SM   C6S 9260   4.431   7.674  16.240  0.5023 -0.4118 -0.7188
   7123SM   H6S 9261   4.515   7.636  16.178  0.5794 -0.8084 -0.3753
   7123SM   H6T 9262   4.395   7.769  16.195 -0.0022 -0.0196  0.4744
   7123SM   C7S 9263   4.308   7.585  16.231 -0.0574  0.6017  1.0518
   7123SM   H7S 9264   4.221   7.638  16.276 -0.5002  0.1682  0.7167
   7123SM   H7T 9265   4.325   7.489  16.284 -0.0162  0.4030  0.6854
   7123SM   C8S 9266   4.285   7.554  16.082  0.1119 -0.0273  0.1165
   7123SM   H8S 9267   4.380   7.516  16.040  0.0010 -0.7532  0.5204
   7123SM   H8T 9268   4.268   7.657  16.042 -0.4897  0.2979  1.1869
   7123SM   C9S 9269   4.155   7.478  16.041 -0.1483  0.5272 -0.2312
   7123SM   H9S 9270   4.080   7.515  16.114 -0.1387 -1.2058  0.7042
   7123SM   H9T 9271   4.170   7.370  16.062  2.2706  0.9235  0.3345
   7123SM  C10S 9272   4.097   7.509  15.901 -0.4008 -0.0240 -0.5043
   7123SM  H10S 9273   4.081   7.618  15.886  0.8295  0.1632 -0.5522
   7123SM  H10T 9274   4.001   7.456  15.881 -1.3983  1.5449 -0.0754
   7123SM  C11S 9275   4.197   7.475  15.780 -0.2320  0.0628  0.3838
   7123SM  H11S 9276   4.215   7.365  15.790  1.5155  0.4735  2.7641
   7123SM  H11T 9277   4.291   7.534  15.790 -1.0393  1.6146 -0.7567
   7123SM  C12S 9278   4.132   7.491  15.640 -0.1656 -0.1287  0.0922
   7123SM  H12S 9279   4.104   7.596  15.616 -0.3456 -0.3189 -0.5604
   7123SM  H12T 9280   4.039   7.432  15.651 -0.4384 -0.0041 -1.2637
   7123SM  C13S 9281   4.213   7.442  15.519 -0.2013 -0.5832  0.5903
   7123SM  H13S 9282   4.130   7.416  15.451  0.0355 -2.0343  0.8059
   7123SM  H13T 9283   4.266   7.345  15.535 -0.8312 -0.6701  2.4346
   7123SM  C14S 9284   4.307   7.551  15.466 -0.0182 -0.1962  0.2503
   7123SM  H14S 9285   4.409   7.544  15.508 -0.4416 -1.1099  1.1746
   7123SM  H14T 9286   4.259   7.649  15.486 -2.3030 -0.3906 -3.3014
   7123SM  C15S 9287   4.320   7.539  15.311 -0.2708 -0.5022 -0.1790
   7123SM  H15S 9288   4.216   7.519  15.277 -0.6194 -1.3554  1.2890
   7123SM  H15T 9289   4.386   7.453  15.288  3.3541  1.9804  0.2261
   7123SM  C16S 9290   4.380   7.664  15.243  0.1500 -0.3437 -0.0667
   7123SM  H16S 9291   4.489   7.667  15.264  0.1785 -1.9011  0.1111
   7123SM  H16T 9292   4.332   7.751  15.292  0.3255 -1.3060  1.9176
   7123SM  C17S 9293   4.371   7.680  15.087  0.0384  0.0239  0.1417
   7123SM  H17S 9294   4.267   7.665  15.050 -0.0942 -1.0583  0.9263
   7123SM  H17T 9295   4.435   7.600  15.043 -1.0184 -0.4882 -0.5217
   7123SM  C18S 9296   4.437   7.806  15.036  0.3641  0.8043  0.3851
   7123SM  H18S 9297   4.370   7.895  15.047 -2.7763 -1.2126 -0.9763
   7123SM  H18T 9298   4.459   7.803  14.928  1.9754  3.0965  0.5706
   7123SM  H18U 9299   4.524   7.820  15.103  0.1322 -0.4023  0.9582
   7123SM   C1F 9300   4.101   7.807  16.702 -0.4490 -0.6517 -0.2280
   7123SM    OF 9301   4.097   7.927  16.719  0.0389 -0.1421 -0.3210
   7123SM   C2F 9302   3.980   7.724  16.689  0.0164 -0.4796 -0.1497
   7123SM   H2F 9303   3.894   7.792  16.707  0.0934  0.0131 -1.5848
   7123SM   H2G 9304   3.982   7.651  16.773  0.5573  0.7679  0.9581
   7123SM   C3F 9305   3.968   7.647  16.556 -0.1560 -0.0116  0.3738
   7123SM   H3F 9306   4.065   7.596  16.536  0.1473  0.9307 -0.6495
   7123SM   H3G 9307   3.962   7.727  16.479 -0.9251  0.8536  1.3111
   7123SM   C4F 9308   3.857   7.546  16.543  0.6809  0.4024 -0.5642
   7123SM   H4F 9309   3.763   7.605  16.548 -0.4551 -1.4505  1.1213
   7123SM   H4G 9310   3.853   7.485  16.635  0.6156 -0.0337 -0.8555
   7123SM   C5F 9311   3.857   7.468  16.414  0.1350  0.5582  0.5581
   7123SM   H5F 9312   3.946   7.402  16.424  1.3363  1.9049 -0.8149
   7123SM   H5G 9313   3.876   7.539  16.331  1.7890  0.5364  0.8928
   7123SM   C6F 9314   3.725   7.396  16.393  0.0006 -0.2360  0.5736
   7123SM   H6F 9315   3.640   7.465  16.378  0.4475  0.2934  0.4498
   7123SM   H6G 9316   3.682   7.325  16.467 -3.1743  1.8563  0.9226
   7123SM   C7F 9317   3.732   7.321  16.264 -0.4052  0.0987 -0.0115
   7123SM   H7F 9318   3.756   7.397  16.187 -0.5401 -0.6168 -0.7802
   7123SM   H7G 9319   3.635   7.270  16.243 -0.4456 -1.2514  2.9587
   7123SM   C8F 9320   3.832   7.211  16.275  0.1618  0.4046 -0.5465
   7123SM   H8F 9321   3.827   7.152  16.369  0.0038  2.4321  0.7720
   7123SM   H8G 9322   3.930   7.264  16.274  1.0355 -1.1412 -1.5082
   7123SM   C9F 9323   3.831   7.119  16.158  0.4093  0.5542 -0.3462
   7123SM   H9F 9324   3.728   7.085  16.135 -0.3266  2.4134  0.0701
   7123SM   H9G 9325   3.887   7.030  16.196 -0.6510  1.2155  3.0427
   7123SM  C10F 9326   3.893   7.165  16.027 -0.4322 -0.0636 -0.6295
   7123SM  H10F 9327   4.003   7.161  16.038 -0.1532  4.6867  0.1348
   7123SM  H10G 9328   3.868   7.272  16.012 -0.1824 -0.0561 -1.0051
   7123SM  C11F 9329   3.853   7.086  15.908  0.0570 -0.1059  0.3067
   7123SM  H11F 9330   3.744   7.064  15.905  0.3754 -2.0498  1.2730
   7123SM  H11G 9331   3.905   6.987  15.911 -1.2263 -0.7766  1.5324
   7123SM  C12F 9332   3.892   7.144  15.772 -0.2573 -0.1409 -0.1925
   7123SM  H12F 9333   4.002   7.155  15.766 -0.2768 -0.2845 -1.0982
   7123SM  H12G 9334   3.845   7.244  15.776  0.4311  0.1541  0.6882
   7123SM  C13F 9335   3.856   7.050  15.656  0.1348 -0.5984  0.5578
   7123SM  H13F 9336   3.747   7.030  15.658 -0.1136  0.7370  0.9584
   7123SM  H13G 9337   3.905   6.951  15.672 -1.6644 -1.4688  0.9198
   7123SM  C14F 9338   3.900   7.106  15.521 -0.0283 -0.6288  0.6251
   7123SM  H14F 9339   3.900   7.024  15.446  1.2625  0.1929 -0.3217
   7123SM  H14G 9340   4.008   7.134  15.524 -0.3523  1.4239 -2.0792
   7123SM  C15F 9341   3.823   7.228  15.472 -0.3052 -0.1487 -0.3352
   7123SM  H15F 9342   3.831   7.307  15.549 -0.6988  0.3780 -0.8275
   7123SM  H15G 9343   3.713   7.218  15.457 -0.1832 -0.8344 -0.8609
   7123SM  C16F 9344   3.882   7.278  15.340  0.3919  0.1568  0.2895
   7123SM  H16F 9345   3.844   7.219  15.254  1.6360 -0.2409 -0.0148
   7123SM  H16G 9346   3.991   7.258  15.332  0.1411 -0.4593 -2.5239
   7123SM  C17F 9347   3.860   7.432  15.312  0.2442  0.1490  0.2515
   7123SM  H17F 9348   3.899   7.493  15.396 -1.4562  1.1407  0.3856
   7123SM  H17G 9349   3.749   7.438  15.305  0.0665 -1.2619  1.3783
   7123SM  C18F 9350   3.918   7.473  15.179 -0.0605 -0.1458 -0.1191
   7123SM  H18F 9351   3.849   7.427  15.106 -1.6873  0.0046  1.2704
   7123SM  H18G 9352   4.026   7.445  15.183  0.2060  0.8465 -0.1490
   7123SM  C19F 9353   3.917   7.622  15.161 -0.3822 -0.0095 -0.4265
   7123SM  H19F 9354   3.971   7.649  15.254 -0.3623 -2.7517  0.4573
   7123SM  H19G 9355   3.815   7.665  15.159  0.0641  1.0573 -1.0957
   7123SM  C20F 9356   3.975   7.667  15.026 -0.4483  0.2985  0.2091
   7123SM  H20F 9357   3.900   7.640  14.949 -0.4455 -0.8939  0.6003
   7123SM  H20G 9358   4.069   7.613  15.002 -0.5321  0.8118 -1.3670
   7123SM  C21F 9359   4.006   7.812  15.032  0.1273 -0.3562 -0.1888
   7123SM  H21F 9360   4.073   7.841  15.115 -0.8406  1.1284  0.1225
   7123SM  H21G 9361   3.913   7.869  15.054  0.6077  0.6717 -0.7327
   7123SM  C22F 9362   4.057   7.857  14.895 -0.7524  0.2701 -0.0974
   7123SM  H22F 9363   4.140   7.795  14.855 -2.2396 -1.9722  0.1304
   7123SM  H22G 9364   4.102   7.957  14.916  1.2384 -0.8268  1.2382
   7123SM  C23F 9365   3.951   7.857  14.779  0.4240 -0.6332 -0.5877
   7123SM  H23F 9366   3.863   7.914  14.815 -0.2523 -1.5089 -0.8131
   7123SM  H23G 9367   3.927   7.752  14.750 -1.4173 -0.3335 -0.2907
   7123SM  H23H 9368   4.001   7.913  14.697 -1.3380  0.2592 -1.0903
   7223SM     N 9369   5.249   3.603  17.182 -0.6631 -0.3456  0.4015
   7223SM   C15 9370   5.348   3.617  17.298 -0.2023 -0.0559  0.5619
   7223SM  H15A 9371   5.443   3.570  17.276 -0.2828  0.6155 -1.4249
   7223SM  H15B 9372   5.304   3.578  17.389 -1.0930  0.6983  0.4767
   7223SM  H15C 9373   5.368   3.722  17.315 -0.3881  0.0635  0.0591
   7223SM   C14 9374   5.207   3.462  17.160  0.1748  0.1812  0.1824
   7223SM  H14A 9375   5.167   3.444  17.061  2.0490  1.3896 -0.8660
   7223SM  H14B 9376   5.141   3.433  17.240 -0.9513  1.0929 -0.3890
   7223SM  H14C 9377   5.293   3.398  17.152 -0.6541 -0.7685 -1.9848
   7223SM   C13 9378   5.132   3.685  17.213  0.0573 -1.1656  0.0445
   7223SM  H13A 9379   5.162   3.789  17.221 -0.2341 -0.9233 -1.5909
   7223SM  H13B 9380   5.077   3.648  17.298 -2.1663  0.5187 -0.5710
   7223SM  H13C 9381   5.064   3.686  17.129  1.6782 -0.0762 -1.3283
   7223SM   C12 9382   5.309   3.649  17.049 -0.6908 -0.4178  0.1887
   7223SM  H12A 9383   5.324   3.756  17.055  2.5070 -0.5942 -2.2943
   7223SM  H12B 9384   5.236   3.632  16.972 -1.6118 -2.0581  1.3541
   7223SM   C11 9385   5.443   3.577  17.007  0.0313  0.0582  0.2188
   7223SM  H11A 9386   5.463   3.600  16.900 -0.0948  0.1270  0.2092
   7223SM  H11B 9387   5.431   3.466  17.005  0.3904  0.0114 -1.4840
   7223SM     P 9388   5.635   3.742  17.049 -0.0326 -0.0049 -0.0690
   7223SM   O13 9389   5.701   3.789  17.171  0.5717 -0.8348  0.1743
   7223SM   O14 9390   5.722   3.712  16.933 -0.1378  0.0156  0.5047
   7223SM   O11 9391   5.523   3.836  16.995 -0.2112  0.9768 -0.1774
   7223SM   O12 9392   5.554   3.614  17.087  0.0270 -0.4313 -0.2960
   7223SM   C1S 9393   5.554   3.964  16.947 -0.4980 -0.7303 -0.0078
   7223SM   H1S 9394   5.655   3.998  16.978 -0.7105 -0.6372  0.5851
   7223SM   H1T 9395   5.487   4.028  17.008  1.1430  0.7251  0.3381
   7223SM    NF 9396   5.574   4.125  16.756  0.8798  0.5872 -0.0600
   7223SM   HNF 9397   5.516   4.203  16.778  0.1089 -0.1196  0.5035
   7223SM   C2S 9398   5.521   3.991  16.798 -0.2322 -0.3380 -0.1012
   7223SM   H2S 9399   5.570   3.913  16.736 -2.8962 -1.4532 -0.9818
   7223SM   C3S 9400   5.370   3.980  16.776  0.9679 -0.0888  0.1860
   7223SM   H3S 9401   5.336   4.058  16.848  1.7372  0.7937 -0.3808
   7223SM    O3 9402   5.321   3.846  16.808 -0.0835 -0.3362  0.1774
   7223SM   HO3 9403   5.392   3.820  16.867  1.5699  1.4031 -0.9534
   7223SM   C4S 9404   5.323   4.017  16.636  0.4779  0.5208 -0.0127
   7223SM   H4S 9405   5.272   4.115  16.634 -0.1599  0.2079 -2.9199
   7223SM   C5S 9406   5.333   3.951  16.516 -0.1804 -0.2651 -0.1350
   7223SM   H5S 9407   5.374   3.849  16.507  2.3697  0.3514  2.8432
   7223SM   C6S 9408   5.268   4.004  16.392 -0.1834 -0.2661 -0.3634
   7223SM   H6S 9409   5.159   4.015  16.408 -0.1001 -1.6817  1.3649
   7223SM   H6T 9410   5.278   3.941  16.300  1.0150 -0.0719 -0.3765
   7223SM   C7S 9411   5.304   4.150  16.353 -0.1076 -0.6291 -0.3351
   7223SM   H7S 9412   5.412   4.165  16.330  0.1312 -1.1634  0.3812
   7223SM   H7T 9413   5.272   4.217  16.435  1.0560 -0.3936 -0.0514
   7223SM   C8S 9414   5.227   4.193  16.230  0.3690 -0.4636  0.7366
   7223SM   H8S 9415   5.119   4.199  16.256 -0.2095 -1.4943 -1.2731
   7223SM   H8T 9416   5.236   4.118  16.149  1.9077  0.3563  0.1069
   7223SM   C9S 9417   5.288   4.320  16.166 -0.6874  0.0943  0.0588
   7223SM   H9S 9418   5.392   4.288  16.140 -0.4062 -0.4025  1.6824
   7223SM   H9T 9419   5.274   4.412  16.226 -1.2043 -0.3087  0.5716
   7223SM  C10S 9420   5.207   4.351  16.035  0.0968  1.3469  0.9042
   7223SM  H10S 9421   5.113   4.403  16.060 -1.4112 -0.6706 -0.3044
   7223SM  H10T 9422   5.178   4.261  15.977  1.2730  2.1337 -1.0100
   7223SM  C11S 9423   5.287   4.433  15.938 -0.9363  0.5946 -0.6947
   7223SM  H11S 9424   5.376   4.380  15.898  0.6769  1.7187  1.1891
   7223SM  H11T 9425   5.342   4.510  15.998 -2.0234  0.5756  0.3818
   7223SM  C12S 9426   5.220   4.498  15.820  0.6985  0.7312  0.1891
   7223SM  H12S 9427   5.123   4.541  15.854 -0.5589 -1.3484 -0.5700
   7223SM  H12T 9428   5.187   4.417  15.751  0.2352 -0.0142  1.2544
   7223SM  C13S 9429   5.301   4.599  15.752  0.3460 -0.7685 -0.4359
   7223SM  H13S 9430   5.402   4.555  15.737  1.3393  1.1161  0.4529
   7223SM  H13T 9431   5.314   4.677  15.829  0.5635  0.0196 -1.2592
   7223SM  C14S 9432   5.235   4.640  15.621  0.8146  0.4879  0.2929
   7223SM  H14S 9433   5.130   4.667  15.643  0.9261  0.2539  1.1545
   7223SM  H14T 9434   5.235   4.548  15.560 -0.8082  0.8284 -0.2562
   7223SM  C15S 9435   5.306   4.750  15.551 -0.3516 -0.1341 -0.4021
   7223SM  H15S 9436   5.417   4.743  15.560 -0.4470  0.2717  1.4463
   7223SM  H15T 9437   5.266   4.841  15.600 -1.7543 -1.1557  0.4421
   7223SM  C16S 9438   5.268   4.759  15.400  0.3408 -0.3214 -0.2369
   7223SM  H16S 9439   5.165   4.792  15.374  0.0884 -0.6288  0.3582
   7223SM  H16T 9440   5.285   4.655  15.364  0.6849 -0.3019 -0.1434
   7223SM  C17S 9441   5.361   4.853  15.337  0.4085 -0.3785  0.6654
   7223SM  H17S 9442   5.465   4.821  15.360  0.5408 -0.2216  0.2984
   7223SM  H17T 9443   5.348   4.953  15.383  0.6913 -0.4156  0.8270
   7223SM  C18S 9444   5.347   4.841  15.186 -0.4193  0.0862  0.0015
   7223SM  H18S 9445   5.356   4.732  15.162  2.7541  0.5750 -1.5027
   7223SM  H18T 9446   5.425   4.897  15.131 -0.9278  1.5582  0.7331
   7223SM  H18U 9447   5.246   4.873  15.153 -0.2908 -1.3787 -2.0094
   7223SM   C1F 9448   5.708   4.142  16.732 -0.9186  1.0781  0.1050
   7223SM    OF 9449   5.781   4.043  16.744 -0.1852  0.1803  0.0826
   7223SM   C2F 9450   5.766   4.287  16.705 -0.3590  0.1861 -0.8810
   7223SM   H2F 9451   5.808   4.341  16.793  0.5755 -2.9715  0.7509
   7223SM   H2G 9452   5.683   4.351  16.669  0.3555  1.8016  0.2058
   7223SM   C3F 9453   5.874   4.275  16.592 -0.9327  0.7485  0.1324
   7223SM   H3F 9454   5.956   4.206  16.622 -1.6510 -0.4467 -0.5966
   7223SM   H3G 9455   5.911   4.380  16.592 -1.2690  0.8755 -0.6554
   7223SM   C4F 9456   5.823   4.234  16.451  0.3260  0.6744  0.1648
   7223SM   H4F 9457   5.870   4.305  16.379 -0.9118  1.9159  0.5237
   7223SM   H4G 9458   5.716   4.253  16.425  1.1218  1.0056 -3.4351
   7223SM   C5F 9459   5.826   4.088  16.408  0.2961 -0.4090 -0.0736
   7223SM   H5F 9460   5.776   4.087  16.309  0.6470 -1.8670 -0.2604
   7223SM   H5G 9461   5.757   4.019  16.460  0.7734  0.2950  1.5746
   7223SM   C6F 9462   5.974   4.028  16.409 -0.5200 -0.2831 -0.4075
   7223SM   H6F 9463   6.018   4.028  16.512  1.4085  0.8676 -1.1686
   7223SM   H6G 9464   6.028   4.105  16.350 -2.9107  0.6580 -1.4663
   7223SM   C7F 9465   5.977   3.883  16.357  0.3115 -0.0133 -0.4086
   7223SM   H7F 9466   5.920   3.886  16.262  2.2393 -2.5206 -1.7724
   7223SM   H7G 9467   5.934   3.814  16.433  2.5059  1.0594  1.9499
   7223SM   C8F 9468   6.124   3.851  16.307 -0.2773  0.1011 -0.4540
   7223SM   H8F 9469   6.193   3.896  16.382 -0.1828 -0.8641  0.0599
   7223SM   H8G 9470   6.135   3.902  16.209  2.5145  1.7502  0.5790
   7223SM   C9F 9471   6.150   3.703  16.291  0.1376  0.1482 -0.0770
   7223SM   H9F 9472   6.159   3.657  16.392  0.4560  0.6328  0.1160
   7223SM   H9G 9473   6.247   3.689  16.238  0.2094 -0.5225  0.2210
   7223SM  C10F 9474   6.046   3.618  16.208 -0.0865 -0.5768 -0.6093
   7223SM  H10F 9475   6.026   3.677  16.117  2.9885  1.1907 -0.2991
   7223SM  H10G 9476   5.958   3.618  16.276  1.3017  2.2264  1.4234
   7223SM  C11F 9477   6.088   3.468  16.187  0.7744 -0.5042  0.2867
   7223SM  H11F 9478   6.101   3.419  16.285  0.3176 -0.6993  0.2541
   7223SM  H11G 9479   6.187   3.460  16.137  0.7016 -1.0954  0.2364
   7223SM  C12F 9480   5.989   3.387  16.093 -0.1856 -1.0916  1.2192
   7223SM  H12F 9481   5.888   3.410  16.132 -0.2903  0.1125  0.2810
   7223SM  H12G 9482   6.016   3.279  16.091  3.5919 -0.3104 -1.9119
   7223SM  C13F 9483   5.982   3.425  15.940 -0.5643 -0.1213 -0.2351
   7223SM  H13F 9484   6.083   3.414  15.895  0.2901 -1.4499  1.8253
   7223SM  H13G 9485   5.948   3.530  15.932 -0.2528  0.0427  0.4743
   7223SM  C14F 9486   5.869   3.340  15.872  0.0528 -0.2292 -0.1628
   7223SM  H14F 9487   5.774   3.360  15.925  0.2758  0.9858 -0.1907
   7223SM  H14G 9488   5.893   3.233  15.887  0.9693  0.1030  0.8439
   7223SM  C15F 9489   5.853   3.365  15.722 -0.4573  0.2098 -0.2300
   7223SM  H15F 9490   5.946   3.350  15.664 -0.1240  0.6734  0.1836
   7223SM  H15G 9491   5.818   3.470  15.708 -2.1161 -0.3380 -0.4597
   7223SM  C16F 9492   5.750   3.274  15.649  0.1270  0.4053  0.7402
   7223SM  H16F 9493   5.743   3.318  15.546  1.0627 -1.9798 -0.4136
   7223SM  H16G 9494   5.647   3.269  15.690 -0.4549 -0.4136 -0.7432
   7223SM  C17F 9495   5.793   3.133  15.645  0.4687  0.6273  0.5036
   7223SM  H17F 9496   5.786   3.089  15.747 -0.6099  0.9842  0.5960
   7223SM  H17G 9497   5.893   3.117  15.601 -0.4048  0.4671 -1.5054
   7223SM  C18F 9498   5.706   3.049  15.543  0.1579  0.2891 -0.2355
   7223SM  H18F 9499   5.722   2.940  15.559 -0.6274  0.1216 -0.5316
   7223SM  H18G 9500   5.752   3.064  15.443  0.9253 -2.7525 -0.4559
   7223SM  C19F 9501   5.552   3.069  15.545  0.1366 -0.0718 -0.1813
   7223SM  H19F 9502   5.518   3.173  15.526 -2.4858 -0.7302  0.4456
   7223SM  H19G 9503   5.511   3.041  15.644 -0.1379 -0.6937 -0.4632
   7223SM  C20F 9504   5.482   2.987  15.433 -0.0498  0.1194 -0.3779
   7223SM  H20F 9505   5.488   2.878  15.456  0.4990  0.6164  2.2183
   7223SM  H20G 9506   5.543   2.995  15.341 -0.6383  0.7456 -0.7147
   7223SM  C21F 9507   5.339   3.038  15.407 -0.3750 -0.2076  0.6834
   7223SM  H21F 9508   5.308   2.980  15.318  1.4678 -3.8521  2.2288
   7223SM  H21G 9509   5.347   3.142  15.369  1.1736 -1.1529 -1.7984
   7223SM  C22F 9510   5.243   3.017  15.529 -0.8015 -0.2093  0.3068
   7223SM  H22F 9511   5.285   2.937  15.595  2.0708 -0.8772 -2.1239
   7223SM  H22G 9512   5.146   2.978  15.491 -0.4970 -0.8781  0.1917
   7223SM  C23F 9513   5.216   3.145  15.608  0.0284  0.1212 -0.6819
   7223SM  H23F 9514   5.185   3.224  15.536 -0.5695  0.5457  0.0267
   7223SM  H23G 9515   5.315   3.179  15.647  1.2678 -0.4287 -3.1553
   7223SM  H23H 9516   5.140   3.130  15.687  1.6107 -1.5794  0.6066
   7323SM     N 9517   3.342   1.413  17.421  0.0995 -0.2400  0.4555
   7323SM   C15 9518   3.375   1.494  17.302  0.1454  0.1377  0.4613
   7323SM  H15A 9519   3.361   1.438  17.211  1.8835  0.9017 -0.3309
   7323SM  H15B 9520   3.480   1.518  17.292  0.6682 -2.2813 -0.5971
   7323SM  H15C 9521   3.315   1.583  17.288  1.7342  0.8244 -2.8736
   7323SM   C14 9522   3.347   1.512  17.537  0.5859  0.0805  0.4066
   7323SM  H14A 9523   3.445   1.543  17.571  1.3922 -3.0549  1.2111
   7323SM  H14B 9524   3.321   1.454  17.625  1.2376 -0.2999  0.3505
   7323SM  H14C 9525   3.279   1.595  17.522  0.7147  0.0689 -0.2540
   7323SM   C13 9526   3.202   1.368  17.408  1.0232  0.4222  0.1590
   7323SM  H13A 9527   3.164   1.310  17.492  2.2210 -1.0016 -0.2304
   7323SM  H13B 9528   3.202   1.300  17.324  0.0657 -1.6002  1.6827
   7323SM  H13C 9529   3.139   1.454  17.393  2.2692  1.4021  0.4458
   7323SM   C12 9530   3.442   1.298  17.442 -0.4628  0.0374  0.3160
   7323SM  H12A 9531   3.412   1.248  17.533 -0.9687 -0.9799 -0.3776
   7323SM  H12B 9532   3.540   1.336  17.464 -0.5574  0.0298  0.7629
   7323SM   C11 9533   3.451   1.175  17.345 -0.3034 -0.1073  0.2149
   7323SM  H11A 9534   3.354   1.122  17.347  0.0482 -0.8367 -1.2813
   7323SM  H11B 9535   3.533   1.116  17.392  0.5465  0.2133 -0.8368
   7323SM     P 9536   3.619   1.265  17.159 -0.0554  0.1539  0.3688
   7323SM   O13 9537   3.689   1.327  17.272  0.1197  0.1562 -0.1570
   7323SM   O14 9538   3.684   1.150  17.087  0.0758  0.3244 -0.1087
   7323SM   O11 9539   3.579   1.374  17.060  0.1522 -0.0187 -0.2360
   7323SM   O12 9540   3.481   1.209  17.214 -0.3055  0.1216  0.4851
   7323SM   C1S 9541   3.696   1.443  16.996  0.2326  0.1343 -0.0990
   7323SM   H1S 9542   3.777   1.371  16.971 -0.0723 -0.5151  0.7605
   7323SM   H1T 9543   3.734   1.519  17.067 -0.1969 -1.4076  1.8753
   7323SM    NF 9544   3.763   1.595  16.803 -0.9146 -0.0880  0.3100
   7323SM   HNF 9545   3.787   1.691  16.817 -1.8573  0.2548 -0.3780
   7323SM   C2S 9546   3.649   1.534  16.872  0.2955  0.1837  0.8305
   7323SM   H2S 9547   3.589   1.470  16.803  1.1976  1.9277 -1.7072
   7323SM   C3S 9548   3.550   1.639  16.927 -0.3734 -0.1158 -0.9629
   7323SM   H3S 9549   3.618   1.710  16.979  1.5485 -1.4985 -1.4797
   7323SM    O3 9550   3.446   1.589  17.014 -0.6004 -0.0875 -0.1831
   7323SM   HO3 9551   3.461   1.494  17.014 -2.8425 -0.4843 -0.8469
   7323SM   C4S 9552   3.494   1.711  16.813 -0.5053  0.3549 -0.1847
   7323SM   H4S 9553   3.428   1.646  16.754 -0.3289  0.7480 -0.8259
   7323SM   C5S 9554   3.493   1.839  16.771 -0.2373 -0.1999 -0.7417
   7323SM   H5S 9555   3.536   1.914  16.839  1.0289 -1.3095 -0.2769
   7323SM   C6S 9556   3.426   1.880  16.647 -0.4933 -0.0064  0.0896
   7323SM   H6S 9557   3.321   1.911  16.662 -0.3678  0.0375  0.9217
   7323SM   H6T 9558   3.430   1.796  16.574  0.4448 -1.6197  1.9107
   7323SM   C7S 9559   3.520   1.988  16.579 -0.1368 -0.1187 -0.0144
   7323SM   H7S 9560   3.603   1.936  16.526  1.5094  1.6042  0.7253
   7323SM   H7T 9561   3.576   2.059  16.644  1.1714 -0.4455 -0.7494
   7323SM   C8S 9562   3.440   2.082  16.492 -0.1833 -0.4433  0.2969
   7323SM   H8S 9563   3.511   2.156  16.449 -2.6991  0.3851 -2.8700
   7323SM   H8T 9564   3.385   2.131  16.575 -0.9643 -2.1756  0.8445
   7323SM   C9S 9565   3.353   2.027  16.379  0.3239 -0.2315 -0.1811
   7323SM   H9S 9566   3.319   2.116  16.323  0.7756  1.0245  1.4560
   7323SM   H9T 9567   3.262   1.990  16.431 -0.7106  2.4273  0.0258
   7323SM  C10S 9568   3.410   1.929  16.285  0.6836  0.6698  0.4675
   7323SM  H10S 9569   3.409   1.829  16.333 -0.5369  0.6340  0.4076
   7323SM  H10T 9570   3.514   1.957  16.256  0.8859 -0.5510 -0.0229
   7323SM  C11S 9571   3.339   1.937  16.145 -0.3611 -0.0485 -0.4961
   7323SM  H11S 9572   3.351   2.041  16.108  1.8896 -0.3603 -0.7382
   7323SM  H11T 9573   3.233   1.911  16.165 -0.4944  1.7116  1.4791
   7323SM  C12S 9574   3.387   1.827  16.044  0.0069 -0.3966  0.5759
   7323SM  H12S 9575   3.496   1.825  16.022 -0.1387 -1.6470 -0.1128
   7323SM  H12T 9576   3.344   1.857  15.946 -0.3557 -2.3403  0.1082
   7323SM  C13S 9577   3.353   1.681  16.089 -0.3993  0.3288 -0.2982
   7323SM  H13S 9578   3.420   1.642  16.169  2.2086  0.2431 -2.3956
   7323SM  H13T 9579   3.376   1.623  15.997 -2.0544  0.8463 -1.0634
   7323SM  C14S 9580   3.205   1.652  16.115  0.0861  0.0413 -0.3680
   7323SM  H14S 9581   3.145   1.702  16.037 -0.5501  2.3852  1.5283
   7323SM  H14T 9582   3.169   1.700  16.208 -2.1638  0.8089 -1.5831
   7323SM  C15S 9583   3.172   1.499  16.121  0.2058 -0.0203 -0.2600
   7323SM  H15S 9584   3.237   1.458  16.201 -3.0468 -1.7491  1.7500
   7323SM  H15T 9585   3.209   1.439  16.034 -1.2442  1.3575 -1.9109
   7323SM  C16S 9586   3.018   1.471  16.148  0.3318  0.2122 -0.9574
   7323SM  H16S 9587   2.981   1.557  16.207  1.2566  1.7022 -2.4593
   7323SM  H16T 9588   3.010   1.383  16.215  2.0360 -0.2398 -1.2937
   7323SM  C17S 9589   2.930   1.444  16.026 -0.2441  0.3773  0.6930
   7323SM  H17S 9590   2.950   1.527  15.955 -0.2918 -0.1532  0.0456
   7323SM  H17T 9591   2.820   1.454  16.040 -0.4787  0.3829 -0.9154
   7323SM  C18S 9592   2.966   1.315  15.946  0.0359 -0.6315 -0.5149
   7323SM  H18S 9593   3.074   1.301  15.928 -0.1538 -0.3288 -1.9766
   7323SM  H18T 9594   2.915   1.306  15.848  0.6275  0.5147 -0.9449
   7323SM  H18U 9595   2.937   1.221  15.998  0.2360 -0.4968 -0.1577
   7323SM   C1F 9596   3.856   1.529  16.734  0.3090 -0.5146  0.0084
   7323SM    OF 9597   3.871   1.408  16.740  0.6449 -0.2292 -0.0469
   7323SM   C2F 9598   3.941   1.615  16.647 -0.3628 -0.3877 -0.4590
   7323SM   H2F 9599   3.917   1.724  16.649 -1.6291 -0.6514 -0.1320
   7323SM   H2G 9600   3.913   1.594  16.542  0.3352 -0.6184 -0.6034
   7323SM   C3F 9601   4.095   1.593  16.679  0.5498  0.3876 -0.0202
   7323SM   H3F 9602   4.115   1.484  16.677  0.6321  0.4098 -1.6052
   7323SM   H3G 9603   4.123   1.640  16.776  0.4156  0.9048 -0.2269
   7323SM   C4F 9604   4.189   1.648  16.571  0.2565  0.2087 -0.0992
   7323SM   H4F 9605   4.295   1.656  16.605  0.4257  4.0676 -1.0994
   7323SM   H4G 9606   4.165   1.755  16.554  1.2744  0.6586  1.0802
   7323SM   C5F 9607   4.200   1.576  16.434  0.5009  0.4487 -0.4717
   7323SM   H5F 9608   4.284   1.624  16.379  1.6836 -0.5842  0.3990
   7323SM   H5G 9609   4.103   1.586  16.381 -1.8026 -1.5361  2.9562
   7323SM   C6F 9610   4.251   1.429  16.451  0.2849  0.1221  0.0980
   7323SM   H6F 9611   4.166   1.372  16.493  0.2913 -0.5105 -0.7225
   7323SM   H6G 9612   4.328   1.428  16.532  0.2682 -2.2714  0.1640
   7323SM   C7F 9613   4.299   1.363  16.320 -0.1827  0.1584  0.0536
   7323SM   H7F 9614   4.408   1.383  16.323  0.3247 -2.3270  0.5053
   7323SM   H7G 9615   4.251   1.408  16.231  0.8357 -1.5427 -1.4191
   7323SM   C8F 9616   4.285   1.210  16.315 -0.3184 -0.2764  0.1407
   7323SM   H8F 9617   4.354   1.166  16.240 -0.9970 -0.8824 -0.1390
   7323SM   H8G 9618   4.181   1.176  16.295 -0.8203  0.6644  1.0728
   7323SM   C9F 9619   4.332   1.136  16.439 -0.0436 -0.3078 -0.4017
   7323SM   H9F 9620   4.268   1.160  16.526 -0.6569 -0.4766 -0.7967
   7323SM   H9G 9621   4.438   1.152  16.470 -0.5511 -0.4311  1.4843
   7323SM  C10F 9622   4.324   0.981  16.417  0.6122  0.3151  0.1713
   7323SM  H10F 9623   4.355   0.944  16.517  1.2047  0.1256 -0.0810
   7323SM  H10G 9624   4.401   0.947  16.345  0.7135  1.8878 -0.5099
   7323SM  C11F 9625   4.185   0.923  16.394 -0.5283 -0.0063  0.7555
   7323SM  H11F 9626   4.144   0.956  16.296  1.5039 -2.2391 -0.9493
   7323SM  H11G 9627   4.109   0.958  16.467 -1.4200 -0.5535  0.1214
   7323SM  C12F 9628   4.183   0.770  16.383  0.3510 -0.2926 -0.6717
   7323SM  H12F 9629   4.221   0.714  16.472 -1.9936 -2.6859 -1.0202
   7323SM  H12G 9630   4.249   0.748  16.297  1.4396 -0.5701  0.2126
   7323SM  C13F 9631   4.042   0.720  16.356  0.3563  0.3974  0.3809
   7323SM  H13F 9632   3.994   0.792  16.287 -2.5617 -2.3374 -0.6726
   7323SM  H13G 9633   3.974   0.735  16.443 -0.6630  1.8083 -0.6248
   7323SM  C14F 9634   4.017   0.590  16.278 -0.0604 -0.0016  0.2001
   7323SM  H14F 9635   4.046   0.510  16.349  0.3167  1.5505  1.8518
   7323SM  H14G 9636   4.095   0.597  16.199  0.3854 -0.3050  0.6086
   7323SM  C15F 9637   3.876   0.566  16.223 -0.3264 -0.5816  0.5315
   7323SM  H15F 9638   3.851   0.628  16.135 -2.4475  1.9078  2.7311
   7323SM  H15G 9639   3.809   0.593  16.308 -0.8535  1.1999 -0.4023
   7323SM  C16F 9640   3.834   0.415  16.197  0.1147 -0.0636  0.2314
   7323SM  H16F 9641   3.843   0.362  16.294  0.1740 -0.0788  0.2178
   7323SM  H16G 9642   3.904   0.361  16.130 -1.5359 -3.0631  0.7685
   7323SM  C17F 9643   3.687   0.406  16.148 -0.1738  0.0713  0.5090
   7323SM  H17F 9644   3.631   0.501  16.151  1.7120  1.2095  1.4941
   7323SM  H17G 9645   3.635   0.331  16.211 -1.7855 -1.1487 -2.0586
   7323SM  C18F 9646   3.685   0.336  16.009 -0.5109 -0.1467  0.2174
   7323SM  H18F 9647   3.578   0.311  15.991 -1.0219  1.4119  0.9547
   7323SM  H18G 9648   3.749   0.245  16.004 -1.9010 -1.1105 -1.8001
   7323SM  C19F 9649   3.726   0.435  15.898 -0.1750 -0.0728  0.1078
   7323SM  H19F 9650   3.828   0.477  15.913 -0.4886  0.5637  0.5316
   7323SM  H19G 9651   3.656   0.521  15.893  0.1933  0.2276  0.0445
   7323SM  C20F 9652   3.740   0.370  15.762 -0.5064  0.6935  0.1669
   7323SM  H20F 9653   3.635   0.354  15.730 -0.4527  0.3902  0.1318
   7323SM  H20G 9654   3.786   0.269  15.761 -0.6302  0.6306 -0.8863
   7323SM  C21F 9655   3.815   0.459  15.667  0.1874  0.1380  0.1986
   7323SM  H21F 9656   3.923   0.455  15.693  0.7193  1.0515 -1.6647
   7323SM  H21G 9657   3.776   0.562  15.685 -1.5515 -0.3163 -0.7565
   7323SM  C22F 9658   3.803   0.424  15.516  0.1778  0.7239 -0.2933
   7323SM  H22F 9659   3.882   0.483  15.465 -0.4135 -0.0076 -2.1538
   7323SM  H22G 9660   3.703   0.455  15.478 -1.3628  0.6940  3.3825
   7323SM  C23F 9661   3.821   0.270  15.478 -0.0077 -0.1622 -0.7780
   7323SM  H23F 9662   3.835   0.255  15.368 -0.1972  0.7943 -0.9402
   7323SM  H23G 9663   3.735   0.216  15.525 -0.4723  1.8335  0.7742
   7323SM  H23H 9664   3.911   0.228  15.527 -0.9552 -0.6686  0.5704
   7423SM     N 9665   7.868   5.217  16.981 -0.5258 -0.3106 -0.6788
   7423SM   C15 9666   7.946   5.107  17.046  0.4210 -0.0830  0.2220
   7423SM  H15A 9667   8.025   5.078  16.979 -1.0364  1.9370 -2.5781
   7423SM  H15B 9668   7.883   5.022  17.066  1.1145 -0.2820  1.7005
   7423SM  H15C 9669   7.983   5.138  17.143  0.3190 -1.6725  0.8001
   7423SM   C14 9670   7.742   5.232  17.064  0.6860 -0.4996  0.0699
   7423SM  H14A 9671   7.706   5.334  17.056 -0.0741 -0.6708  1.1209
   7423SM  H14B 9672   7.767   5.220  17.169 -0.2738 -2.0342  0.1507
   7423SM  H14C 9673   7.658   5.167  17.048 -0.5698  1.3157 -1.0748
   7423SM   C13 9674   7.949   5.341  16.988 -0.4923 -0.0874 -0.1774
   7423SM  H13A 9675   7.901   5.429  16.948 -1.0874 -0.3464 -0.0425
   7423SM  H13B 9676   8.049   5.331  16.948  0.7542  1.1532  2.3788
   7423SM  H13C 9677   7.975   5.365  17.090 -0.1241  3.8654 -1.0438
   7423SM   C12 9678   7.833   5.170  16.843 -0.2435 -0.3467 -0.4230
   7423SM  H12A 9679   7.740   5.218  16.817  0.8572  3.5583  2.0266
   7423SM  H12B 9680   7.815   5.063  16.845  1.3608 -0.6478 -0.6429
   7423SM   C11 9681   7.946   5.187  16.732  0.3734 -0.8998  0.4770
   7423SM  H11A 9682   7.955   5.294  16.705  0.3169 -0.8684  0.5813
   7423SM  H11B 9683   7.911   5.121  16.650 -1.1043 -0.3317  0.6279
   7423SM     P 9684   8.208   5.213  16.773 -0.2075 -0.2323 -0.6192
   7423SM   O13 9685   8.206   5.358  16.802  0.0973  0.1412 -0.2676
   7423SM   O14 9686   8.298   5.135  16.861 -0.1967  0.7155  0.3822
   7423SM   O11 9687   8.255   5.205  16.622 -0.3738  0.1092 -0.1077
   7423SM   O12 9688   8.070   5.137  16.771  0.1496  1.0025 -0.2721
   7423SM   C1S 9689   8.237   5.081  16.552  0.0987  0.1811 -0.0166
   7423SM   H1S 9690   8.134   5.066  16.512  0.6648 -1.5678 -0.9384
   7423SM   H1T 9691   8.271   4.991  16.609  0.7277  0.6216  0.3095
   7423SM    NF 9692   8.278   4.967  16.333  0.6743 -0.2667  0.4434
   7423SM   HNF 9693   8.356   4.904  16.329 -0.2676 -1.4630  0.4801
   7423SM   C2S 9694   8.308   5.089  16.417 -0.5428  0.6226 -0.5648
   7423SM   H2S 9695   8.280   5.179  16.358 -0.0813  0.9980 -0.2228
   7423SM   C3S 9696   8.459   5.106  16.440 -0.0708  0.1418  0.7929
   7423SM   H3S 9697   8.505   5.012  16.477 -0.0718 -1.1969 -2.3320
   7423SM    O3 9698   8.493   5.207  16.538 -0.2637  0.0254 -0.2234
   7423SM   HO3 9699   8.407   5.233  16.571 -0.7414 -2.0627  0.2940
   7423SM   C4S 9700   8.535   5.152  16.318  1.0222  0.5647 -0.1550
   7423SM   H4S 9701   8.520   5.259  16.298  0.5957  0.4094 -0.7109
   7423SM   C5S 9702   8.614   5.075  16.245  0.3153 -0.3134  0.0709
   7423SM   H5S 9703   8.619   4.969  16.274  2.2660  0.6804  3.9806
   7423SM   C6S 9704   8.708   5.122  16.136 -0.1986  0.1252  0.1177
   7423SM   H6S 9705   8.754   5.028  16.098 -0.1588  0.3335 -0.3487
   7423SM   H6T 9706   8.796   5.179  16.171  0.1791 -0.2717 -0.1882
   7423SM   C7S 9707   8.649   5.200  16.019 -0.2091  0.1683 -0.1939
   7423SM   H7S 9708   8.610   5.300  16.050 -0.0049  0.5128 -1.0238
   7423SM   H7T 9709   8.568   5.141  15.971 -0.5988  0.7870 -0.3223
   7423SM   C8S 9710   8.752   5.215  15.908 -0.3602 -0.5957  0.3115
   7423SM   H8S 9711   8.812   5.122  15.896 -0.7906 -0.6986 -1.2573
   7423SM   H8T 9712   8.834   5.285  15.935  1.2821 -1.3297 -2.3103
   7423SM   C9S 9713   8.698   5.260  15.771 -0.2856  0.7088 -0.6556
   7423SM   H9S 9714   8.658   5.364  15.780  1.6108  1.3668  0.8875
   7423SM   H9T 9715   8.609   5.205  15.734 -0.2447  2.1905 -3.2551
   7423SM  C10S 9716   8.807   5.267  15.671 -0.2271  0.1318 -0.1665
   7423SM  H10S 9717   8.858   5.169  15.671 -0.7775 -0.1915 -1.7860
   7423SM  H10T 9718   8.880   5.346  15.700  1.5836 -1.5701  0.1094
   7423SM  C11S 9719   8.758   5.280  15.525 -0.0465  0.0960  0.3739
   7423SM  H11S 9720   8.695   5.370  15.513  0.8615  0.8897  1.3867
   7423SM  H11T 9721   8.690   5.193  15.509 -2.0361  1.0269  3.0461
   7423SM  C12S 9722   8.869   5.288  15.424 -0.3166  0.4879 -0.1718
   7423SM  H12S 9723   8.956   5.232  15.463  1.1079  2.5984 -0.1403
   7423SM  H12T 9724   8.919   5.386  15.409  1.1461 -0.1105  0.6177
   7423SM  C13S 9725   8.828   5.229  15.288 -0.9283 -0.0365 -0.5506
   7423SM  H13S 9726   8.781   5.132  15.314  1.2450 -0.7218  1.1038
   7423SM  H13T 9727   8.914   5.209  15.220  0.3155  0.7497  0.7488
   7423SM  C14S 9728   8.715   5.305  15.219  0.0653  0.5335  0.3700
   7423SM  H14S 9729   8.641   5.342  15.294 -1.2966  2.3740 -1.7457
   7423SM  H14T 9730   8.667   5.247  15.138 -1.9554  1.9362  0.4978
   7423SM  C15S 9731   8.769   5.421  15.147  0.3722 -0.1259  0.2733
   7423SM  H15S 9732   8.842   5.391  15.068 -0.5704 -1.5563 -0.1030
   7423SM  H15T 9733   8.817   5.489  15.220 -0.8629 -0.0260  1.0130
   7423SM  C16S 9734   8.652   5.474  15.059  0.5798  0.2652  0.4629
   7423SM  H16S 9735   8.563   5.480  15.126  0.5621 -1.4676  0.6312
   7423SM  H16T 9736   8.631   5.401  14.979  0.8969 -0.0684  0.6808
   7423SM  C17S 9737   8.684   5.610  14.989  0.3358  0.1610  0.0727
   7423SM  H17S 9738   8.593   5.671  14.968  0.6667  1.1478  1.3208
   7423SM  H17T 9739   8.749   5.599  14.901  0.1018  1.9584 -0.3715
   7423SM  C18S 9740   8.753   5.706  15.086  0.4252 -0.0351 -0.4916
   7423SM  H18S 9741   8.685   5.725  15.171  0.9648 -2.8869  0.6784
   7423SM  H18T 9742   8.775   5.804  15.038  0.8338  0.1200  0.0033
   7423SM  H18U 9743   8.848   5.660  15.121  1.5635  0.5597 -2.6121
   7423SM   C1F 9744   8.157   4.940  16.275 -0.3737 -0.1590 -0.1440
   7423SM    OF 9745   8.065   5.026  16.263 -0.0687 -0.2075 -0.1819
   7423SM   C2F 9746   8.146   4.801  16.222 -0.0050 -0.4869 -0.4813
   7423SM   H2F 9747   8.230   4.745  16.268 -1.4236 -1.1520  1.4515
   7423SM   H2G 9748   8.168   4.816  16.114 -2.5221 -2.7488 -1.4240
   7423SM   C3F 9749   8.013   4.728  16.267 -0.4343  0.4763  0.2079
   7423SM   H3F 9750   7.925   4.795  16.260 -1.1394 -0.5965 -1.7030
   7423SM   H3G 9751   8.014   4.699  16.374 -2.7836  1.0254  0.4426
   7423SM   C4F 9752   7.988   4.593  16.194  0.2454 -0.0171  0.1042
   7423SM   H4F 9753   7.905   4.533  16.238 -0.5170 -1.0431 -2.5489
   7423SM   H4G 9754   8.081   4.536  16.217  0.1290 -1.0629 -1.8543
   7423SM   C5F 9755   7.954   4.606  16.047  0.3428 -0.4533 -0.1298
   7423SM   H5F 9756   7.980   4.509  16.001 -1.1002  0.3593 -2.8251
   7423SM   H5G 9757   8.024   4.676  15.996 -0.3098  0.3756  0.0968
   7423SM   C6F 9758   7.806   4.644  16.012 -0.1148 -0.3074 -0.1743
   7423SM   H6F 9759   7.777   4.744  16.052 -2.0136 -0.9130  0.0526
   7423SM   H6G 9760   7.743   4.571  16.068  0.4172  0.6845  1.8162
   7423SM   C7F 9761   7.784   4.655  15.867 -0.3081  0.3384  0.5759
   7423SM   H7F 9762   7.676   4.679  15.851 -0.5117 -0.0763  1.2432
   7423SM   H7G 9763   7.814   4.560  15.817 -1.0455  0.0466  0.6681
   7423SM   C8F 9764   7.871   4.764  15.798 -0.5405 -0.0181  0.1387
   7423SM   H8F 9765   7.977   4.737  15.781 -1.1456 -2.0045 -0.7453
   7423SM   H8G 9766   7.866   4.856  15.860  0.5350  1.6758 -2.1093
   7423SM   C9F 9767   7.828   4.787  15.655  0.2610 -0.0261 -0.1125
   7423SM   H9F 9768   7.719   4.806  15.655  0.2810  0.1242  0.9713
   7423SM   H9G 9769   7.838   4.700  15.587 -0.0864  0.4417 -0.7749
   7423SM  C10F 9770   7.897   4.901  15.581 -0.2155 -0.5991  0.3949
   7423SM  H10F 9771   8.001   4.872  15.555  1.1238  2.8608  1.3972
   7423SM  H10G 9772   7.915   4.992  15.642  1.6093  0.1197 -1.1105
   7423SM  C11F 9773   7.825   4.950  15.453 -0.7290  0.3605  0.1131
   7423SM  H11F 9774   7.719   4.973  15.478 -0.7854 -1.3996  1.7357
   7423SM  H11G 9775   7.826   4.865  15.381  2.5359  0.5519 -0.2133
   7423SM  C12F 9776   7.887   5.067  15.373 -0.7737 -0.2798 -0.2930
   7423SM  H12F 9777   7.824   5.080  15.282 -2.0423  2.2582  0.8397
   7423SM  H12G 9778   7.984   5.027  15.338  0.0611  1.3301  0.0956
   7423SM  C13F 9779   7.917   5.202  15.446 -0.1535  0.1224 -0.0817
   7423SM  H13F 9780   7.973   5.274  15.381 -0.1210 -0.7220 -1.0111
   7423SM  H13G 9781   7.982   5.173  15.531  0.6834 -1.3315 -1.1783
   7423SM  C14F 9782   7.784   5.268  15.488 -0.3234 -0.0356 -1.0397
   7423SM  H14F 9783   7.818   5.349  15.555  2.0638  0.4291 -2.6813
   7423SM  H14G 9784   7.725   5.189  15.541 -0.0498  0.2108 -0.3581
   7423SM  C15F 9785   7.707   5.323  15.369 -0.3261 -0.1642  0.7226
   7423SM  H15F 9786   7.753   5.261  15.289  2.1683 -0.5240  2.2966
   7423SM  H15G 9787   7.758   5.419  15.348 -0.9083 -0.1479 -0.7484
   7423SM  C16F 9788   7.560   5.355  15.385  0.4807 -0.5935 -1.0166
   7423SM  H16F 9789   7.510   5.264  15.424  1.0983 -0.4183  0.2213
   7423SM  H16G 9790   7.525   5.374  15.281  0.5706  0.0662 -0.9279
   7423SM  C17F 9791   7.517   5.480  15.468  0.0913 -0.5108 -0.5262
   7423SM  H17F 9792   7.406   5.489  15.467  0.1935  2.3925  1.6121
   7423SM  H17G 9793   7.554   5.571  15.416 -1.0322  1.0519  1.2480
   7423SM  C18F 9794   7.559   5.468  15.617 -0.5873 -0.3892 -0.7545
   7423SM  H18F 9795   7.669   5.480  15.626 -0.6600  1.8295 -2.0927
   7423SM  H18G 9796   7.541   5.363  15.648  1.4220  0.0179  2.1322
   7423SM  C19F 9797   7.500   5.572  15.714  0.4570 -0.1551 -0.5460
   7423SM  H19F 9798   7.522   5.666  15.659 -2.2681  0.2517 -1.0748
   7423SM  H19G 9799   7.547   5.583  15.813 -2.3856  1.9924  0.7166
   7423SM  C20F 9800   7.348   5.553  15.738  0.6421  0.4795  0.3721
   7423SM  H20F 9801   7.334   5.461  15.798  1.4110 -1.7654 -2.6956
   7423SM  H20G 9802   7.299   5.541  15.639 -0.0537  1.3547  0.5993
   7423SM  C21F 9803   7.271   5.664  15.818 -0.0414 -0.1437  0.9035
   7423SM  H21F 9804   7.268   5.752  15.750 -3.0170 -2.3166 -2.1317
   7423SM  H21G 9805   7.326   5.682  15.912 -0.4595  1.7724  0.8242
   7423SM  C22F 9806   7.132   5.625  15.855 -0.1009 -0.2908  0.2019
   7423SM  H22F 9807   7.145   5.522  15.896 -0.4635  0.6916  3.0217
   7423SM  H22G 9808   7.071   5.614  15.763 -0.2886  0.4354  0.2299
   7423SM  C23F 9809   7.075   5.734  15.951 -0.1569  0.8323  0.4106
   7423SM  H23F 9810   6.974   5.700  15.983 -0.3015  0.8963  0.0254
   7423SM  H23G 9811   7.065   5.829  15.894  1.0800  1.9250  1.9463
   7423SM  H23H 9812   7.139   5.758  16.038  0.0016  3.8505 -0.4228
   7523SM     N 9813   6.506   5.908  16.966 -0.1359 -0.2062 -0.3930
   7523SM   C15 9814   6.390   5.935  17.058  0.0860  0.2709  0.5950
   7523SM  H15A 9815   6.402   6.037  17.091  3.2327  1.1182 -2.5356
   7523SM  H15B 9816   6.399   5.872  17.145  1.1656 -0.2156  0.1397
   7523SM  H15C 9817   6.296   5.915  17.009  0.1844 -0.9148  0.8612
   7523SM   C14 9818   6.633   5.946  17.041  0.1551  0.6472 -0.6383
   7523SM  H14A 9819   6.713   5.955  16.969 -0.3698  2.0558 -1.0706
   7523SM  H14B 9820   6.662   5.880  17.121 -2.6721  1.2171  1.0010
   7523SM  H14C 9821   6.624   6.047  17.078 -3.0936 -0.5431  2.3599
   7523SM   C13 9822   6.517   5.766  16.931 -0.3237  0.5676 -0.0020
   7523SM  H13A 9823   6.429   5.717  16.893  0.9303 -2.1028  0.2851
   7523SM  H13B 9824   6.560   5.701  17.006 -0.7179 -2.5278 -2.2851
   7523SM  H13C 9825   6.590   5.745  16.855 -0.0409  3.2341 -0.5759
   7523SM   C12 9826   6.496   5.997  16.842  0.1021  0.0673 -0.5693
   7523SM  H12A 9827   6.492   6.094  16.890 -1.5772 -1.0806  1.8252
   7523SM  H12B 9828   6.398   5.981  16.798 -1.5627  0.9864  2.5005
   7523SM   C11 9829   6.610   5.991  16.750 -0.0155  0.5146 -0.1340
   7523SM  H11A 9830   6.580   6.027  16.649  0.8495  1.7591  0.0329
   7523SM  H11B 9831   6.641   5.885  16.735  0.7463  0.7312 -0.1064
   7523SM     P 9832   6.741   6.220  16.798  0.3881  0.0404 -0.1132
   7523SM   O13 9833   6.612   6.271  16.849  0.2220  0.5100  0.3873
   7523SM   O14 9834   6.867   6.277  16.855 -0.4785 -0.1174 -0.6572
   7523SM   O11 9835   6.750   6.247  16.643 -0.2197  0.7872 -0.0143
   7523SM   O12 9836   6.728   6.062  16.802 -0.0584 -0.1348 -0.0453
   7523SM   C1S 9837   6.862   6.298  16.573 -1.1915 -0.8243 -0.2201
   7523SM   H1S 9838   6.950   6.235  16.599 -2.4012 -1.7066  2.0945
   7523SM   H1T 9839   6.902   6.394  16.612  0.1406 -0.7461 -1.6894
   7523SM    NF 9840   6.967   6.316  16.347 -0.1428  0.1043  1.2861
   7523SM   HNF 9841   6.985   6.403  16.302 -0.3644 -1.4165 -2.1102
   7523SM   C2S 9842   6.842   6.294  16.417 -0.0393 -0.5434 -0.1691
   7523SM   H2S 9843   6.801   6.195  16.389  0.0380 -1.4011  2.5051
   7523SM   C3S 9844   6.726   6.394  16.382 -0.5298 -0.5037 -0.3027
   7523SM   H3S 9845   6.756   6.491  16.425 -1.8056 -0.8278  1.4128
   7523SM    O3 9846   6.598   6.365  16.446 -0.1099  0.2296 -0.5263
   7523SM   HO3 9847   6.612   6.285  16.498 -0.7656  0.4438 -0.0135
   7523SM   C4S 9848   6.702   6.400  16.233 -0.0830 -1.1346 -0.4806
   7523SM   H4S 9849   6.672   6.303  16.189 -0.9576 -0.8404 -0.5409
   7523SM   C5S 9850   6.717   6.517  16.153  0.1779  1.0331 -0.6519
   7523SM   H5S 9851   6.741   6.609  16.208 -1.6754  0.2328  1.6799
   7523SM   C6S 9852   6.697   6.521  16.008  0.3250 -0.0345  0.6942
   7523SM   H6S 9853   6.785   6.553  15.949 -0.4430  2.6704  0.9017
   7523SM   H6T 9854   6.617   6.596  15.994  0.9063  0.6576  0.9684
   7523SM   C7S 9855   6.657   6.388  15.946 -0.2105  0.9608  0.5258
   7523SM   H7S 9856   6.557   6.347  15.972 -0.8033  3.2442  2.1348
   7523SM   H7T 9857   6.730   6.307  15.968  0.7050  1.0262 -1.8915
   7523SM   C8S 9858   6.650   6.403  15.790 -0.4541 -0.3247  0.5732
   7523SM   H8S 9859   6.666   6.303  15.743 -1.5745 -0.0781 -0.3670
   7523SM   H8T 9860   6.734   6.468  15.759  0.7547 -3.0528 -2.3870
   7523SM   C9S 9861   6.512   6.437  15.734  0.3295 -0.0502  0.1690
   7523SM   H9S 9862   6.478   6.538  15.767  1.2753 -0.0979  1.3661
   7523SM   H9T 9863   6.431   6.369  15.768 -0.1551  0.6330  0.4221
   7523SM  C10S 9864   6.514   6.447  15.576 -0.2282 -0.0172  0.5074
   7523SM  H10S 9865   6.493   6.345  15.540 -1.1958  0.8653 -1.5663
   7523SM  H10T 9866   6.618   6.478  15.554 -0.1929  0.2498  1.0250
   7523SM  C11S 9867   6.422   6.554  15.514  0.0870 -0.1368  0.5934
   7523SM  H11S 9868   6.324   6.541  15.566  0.0815 -3.5006 -0.0043
   7523SM  H11T 9869   6.414   6.524  15.408  0.3657 -0.0869  0.5582
   7523SM  C12S 9870   6.470   6.697  15.527 -0.7446  0.4272 -0.7298
   7523SM  H12S 9871   6.571   6.720  15.485 -1.1818  0.9691 -1.5048
   7523SM  H12T 9872   6.485   6.710  15.637  0.1998  1.9025 -1.0034
   7523SM  C13S 9873   6.374   6.798  15.470  0.5651 -1.0176 -0.8367
   7523SM  H13S 9874   6.422   6.896  15.493  1.3106 -1.7366  0.8559
   7523SM  H13T 9875   6.279   6.785  15.526  0.0686  0.3484 -1.3287
   7523SM  C14S 9876   6.352   6.782  15.322 -0.3617 -0.1209 -0.0684
   7523SM  H14S 9877   6.300   6.686  15.304 -0.8109  0.2714 -0.9702
   7523SM  H14T 9878   6.454   6.768  15.281 -1.1334 -1.5487 -1.6193
   7523SM  C15S 9879   6.283   6.901  15.254  0.6224  0.2657  0.2794
   7523SM  H15S 9880   6.357   6.983  15.259  2.4949 -1.3921  2.0446
   7523SM  H15T 9881   6.194   6.935  15.311  0.1592  1.0345 -0.8716
   7523SM  C16S 9882   6.247   6.877  15.109  0.4725 -0.1983 -0.2454
   7523SM  H16S 9883   6.162   6.806  15.099 -1.8921  2.1007  1.9371
   7523SM  H16T 9884   6.328   6.840  15.042  0.5892  0.3891 -0.4345
   7523SM  C17S 9885   6.200   7.014  15.054  0.0784 -0.3604  0.3092
   7523SM  H17S 9886   6.283   7.088  15.060  0.1949 -0.5460  1.0469
   7523SM  H17T 9887   6.109   7.051  15.105 -0.9735  0.1764 -1.8295
   7523SM  C18S 9888   6.165   7.011  14.905  0.0533  0.1088  0.3649
   7523SM  H18S 9889   6.118   7.102  14.861  0.6054 -0.7446 -2.1563
   7523SM  H18T 9890   6.079   6.941  14.893  0.4296 -0.9550  3.1443
   7523SM  H18U 9891   6.250   6.961  14.853  0.7235  0.3458  1.2143
   7523SM   C1F 9892   7.062   6.228  16.341 -0.1966  0.4778  0.3675
   7523SM    OF 9893   7.059   6.117  16.392 -0.1302  0.1830 -0.3845
   7523SM   C2F 9894   7.180   6.267  16.265 -0.9790  0.0096  0.0855
   7523SM   H2F 9895   7.151   6.315  16.169 -0.8603 -1.9387 -0.9761
   7523SM   H2G 9896   7.249   6.185  16.234  0.9154  1.5068  0.1931
   7523SM   C3F 9897   7.287   6.360  16.325 -0.5615 -0.4617 -0.9855
   7523SM   H3F 9898   7.278   6.345  16.435 -0.2870  1.8976 -0.5934
   7523SM   H3G 9899   7.263   6.464  16.295 -1.1050  0.3642  2.0099
   7523SM   C4F 9900   7.432   6.335  16.279  0.2266  0.8438  0.6059
   7523SM   H4F 9901   7.453   6.230  16.307 -0.1616  0.5891 -0.0592
   7523SM   H4G 9902   7.506   6.394  16.338  2.2461 -1.1760  0.2199
   7523SM   C5F 9903   7.459   6.359  16.131  0.2607 -0.4523  0.3141
   7523SM   H5F 9904   7.454   6.468  16.109  0.7907 -0.5321 -0.2436
   7523SM   H5G 9905   7.387   6.310  16.061 -0.4416  0.0056  0.7113
   7523SM   C6F 9906   7.602   6.308  16.097  0.0654  0.5255  0.2723
   7523SM   H6F 9907   7.606   6.200  16.121  0.6415  0.1285 -1.4664
   7523SM   H6G 9908   7.681   6.344  16.166  0.5755 -1.1337  0.5986
   7523SM   C7F 9909   7.655   6.338  15.961  0.0057 -0.1276  0.0316
   7523SM   H7F 9910   7.661   6.444  15.930 -0.3652  0.2073  1.0530
   7523SM   H7G 9911   7.583   6.297  15.886  1.1499 -1.8815 -0.1640
   7523SM   C8F 9912   7.797   6.264  15.932  0.4869 -0.3887 -0.7231
   7523SM   H8F 9913   7.786   6.157  15.962 -2.6985 -0.2935 -1.2122
   7523SM   H8G 9914   7.881   6.314  15.984  1.7213 -1.7649 -1.2999
   7523SM   C9F 9915   7.836   6.265  15.787 -0.1049  0.2580  0.1837
   7523SM   H9F 9916   7.853   6.370  15.752 -1.0456  0.0413 -1.0083
   7523SM   H9G 9917   7.757   6.216  15.727  0.2405 -1.5644  1.1598
   7523SM  C10F 9918   7.969   6.196  15.754  0.2013  0.2600  0.0690
   7523SM  H10F 9919   7.955   6.091  15.789 -1.3375  1.5485  3.9082
   7523SM  H10G 9920   8.043   6.248  15.819 -0.0278  1.2291 -0.4356
   7523SM  C11F 9921   8.018   6.216  15.612  0.0456  0.0476 -0.0771
   7523SM  H11F 9922   8.032   6.326  15.605 -3.0827  0.4998 -1.0724
   7523SM  H11G 9923   7.938   6.192  15.538  0.1711 -1.7740  0.3366
   7523SM  C12F 9924   8.154   6.144  15.584  0.3330  0.0483  0.8502
   7523SM  H12F 9925   8.147   6.038  15.616 -1.3303  0.3028  1.4266
   7523SM  H12G 9926   8.224   6.186  15.661 -1.0088  0.2762  1.9787
   7523SM  C13F 9927   8.206   6.180  15.443 -0.2258 -0.0583 -0.6880
   7523SM  H13F 9928   8.223   6.289  15.439  0.3986 -0.0351  1.4914
   7523SM  H13G 9929   8.118   6.168  15.377 -0.9000  1.7975 -0.1709
   7523SM  C14F 9930   8.333   6.113  15.404 -0.3674 -0.1119 -0.3415
   7523SM  H14F 9931   8.309   6.010  15.370  0.7888  0.1318 -2.0394
   7523SM  H14G 9932   8.399   6.106  15.494  0.7422 -0.1545 -1.1362
   7523SM  C15F 9933   8.410   6.187  15.299 -0.0629 -0.5589  0.6056
   7523SM  H15F 9934   8.445   6.287  15.333 -0.7470 -0.2864  0.5196
   7523SM  H15G 9935   8.349   6.204  15.208  0.6380  0.3914  0.3039
   7523SM  C16F 9936   8.535   6.111  15.259 -0.2618  0.7985 -0.1757
   7523SM  H16F 9937   8.504   6.009  15.229 -1.2644  1.8979 -3.1642
   7523SM  H16G 9938   8.603   6.101  15.347  0.6634  1.2242 -0.8290
   7523SM  C17F 9939   8.607   6.180  15.146  0.3881  0.0109 -0.4503
   7523SM  H17F 9940   8.618   6.286  15.177  0.9072 -0.7910  2.4155
   7523SM  H17G 9941   8.542   6.175  15.055  2.1655  0.4081 -1.7855
   7523SM  C18F 9942   8.745   6.125  15.106  0.1659 -0.3731 -0.3423
   7523SM  H18F 9943   8.745   6.032  15.045  1.2667  0.6209 -1.9507
   7523SM  H18G 9944   8.806   6.096  15.194  1.9595 -0.2005 -1.4754
   7523SM  C19F 9945   8.822   6.231  15.022  0.3652  0.6348 -0.2487
   7523SM  H19F 9946   8.857   6.316  15.085 -1.1551 -0.8070  2.7270
   7523SM  H19G 9947   8.767   6.278  14.938  0.0778  3.4521  1.3945
   7523SM  C20F 9948   8.950   6.189  14.948  0.1408 -0.6502  0.0209
   7523SM  H20F 9949   8.984   6.275  14.887  0.0828  0.7491  1.8819
   7523SM  H20G 9950   8.917   6.107  14.880 -0.4702 -0.1129 -0.3392
   7523SM  C21F 9951   9.066   6.142  15.044 -0.0327 -0.7097 -0.4973
   7523SM  H21F 9952   9.034   6.051  15.097 -1.7975  1.4781  2.4905
   7523SM  H21G 9953   9.090   6.219  15.121 -1.4951 -0.5548 -0.1743
   7523SM  C22F 9954   9.200   6.106  14.974  0.1895 -0.6232 -0.3535
   7523SM  H22F 9955   9.187   6.009  14.920  1.5115 -0.1030 -1.6869
   7523SM  H22G 9956   9.279   6.089  15.051  4.3340  3.2149 -3.2094
   7523SM  C23F 9957   9.247   6.213  14.878 -0.3278 -0.4743  0.6444
   7523SM  H23F 9958   9.272   6.308  14.929  1.0430 -0.2886 -0.3267
   7523SM  H23G 9959   9.187   6.229  14.786  1.6484  2.3637 -0.2991
   7523SM  H23H 9960   9.351   6.187  14.850  0.6428  3.7510 -0.3038
   7623SM     N 9961   0.158   6.612  17.254  0.5751 -0.0887  0.1710
   7623SM   C15 9962   0.238   6.488  17.269 -0.1564 -0.0615 -0.1286
   7623SM  H15A 9963   0.205   6.432  17.355  0.2576 -4.1742 -2.3970
   7623SM  H15B 9964   0.340   6.520  17.289 -0.9672  2.2336  0.7137
   7623SM  H15C 9965   0.234   6.428  17.180 -0.6700 -1.1610  0.6098
   7623SM   C14 9966   0.012   6.593  17.259 -0.0134 -0.1586 -0.1691
   7623SM  H14A 9967  -0.027   6.507  17.207  1.3697 -1.6880  1.1972
   7623SM  H14B 9968  -0.047   6.681  17.240  0.4519 -0.0638 -1.2073
   7623SM  H14C 9969  -0.016   6.564  17.360  2.7550  0.1157  0.7738
   7623SM   C13 9970   0.195   6.699  17.369  0.0971 -0.6693  0.2735
   7623SM  H13A 9971   0.133   6.787  17.376 -0.0578 -0.7030 -0.6218
   7623SM  H13B 9972   0.297   6.732  17.374  0.3021 -0.9317 -1.6264
   7623SM  H13C 9973   0.178   6.649  17.464 -1.0364  0.3034  0.6138
   7623SM   C12 9974   0.197   6.674  17.114 -0.5359  0.5726  0.1319
   7623SM  H12A 9975   0.185   6.600  17.036 -0.6035  2.4950 -1.7484
   7623SM  H12B 9976   0.302   6.702  17.119 -0.2872 -0.3943  0.8323
   7623SM   C11 9977   0.117   6.799  17.070 -0.0801 -0.1012 -0.0823
   7623SM  H11A 9978   0.169   6.848  16.986 -1.6420 -0.8924 -1.5711
   7623SM  H11B 9979   0.125   6.864  17.160  0.4209 -1.3542  0.8209
   7623SM     P 9980  -0.110   6.832  16.941  0.3579  0.2641 -0.1529
   7623SM   O13 9981  -0.236   6.757  16.941  1.1576  0.1783  0.5399
   7623SM   O14 9982  -0.113   6.976  16.983  0.0649 -0.4547  1.0626
   7623SM   O11 9983  -0.041   6.821  16.800  0.3945  0.0721  0.3137
   7623SM   O12 9984  -0.009   6.757  17.033 -0.7151 -0.0868  0.3511
   7623SM   C1S 9985  -0.019   6.691  16.750  0.5071  0.1426  0.7560
   7623SM   H1S 9986  -0.116   6.641  16.732  0.1529  0.6020  1.3218
   7623SM   H1T 9987   0.045   6.634  16.821 -1.0235 -2.8363 -0.0905
   7623SM    NF 9988   0.034   6.568  16.543 -0.1775 -0.1340 -0.0950
   7623SM   HNF 9989   0.090   6.490  16.571 -0.3625  0.0885  0.9402
   7623SM   C2S 9990   0.064   6.696  16.615 -0.1843  0.4691 -0.2584
   7623SM   H2S 9991   0.037   6.781  16.549 -3.8739  0.2019  0.7010
   7623SM   C3S 9992   0.215   6.722  16.652  0.4269  0.2856  0.0620
   7623SM   H3S 9993   0.251   6.647  16.726 -1.5811 -2.0715 -1.2290
   7623SM    O3 9994   0.242   6.852  16.708  0.5449 -0.0890 -0.0641
   7623SM   HO3 9995   0.154   6.879  16.737  0.4972  0.8051 -0.9812
   7623SM   C4S 9996   0.298   6.705  16.531  0.4255  0.7838  0.7172
   7623SM   H4S 9997   0.257   6.754  16.442 -0.1931  1.3946  1.3293
   7623SM   C5S 9998   0.411   6.636  16.519  0.1709  0.0310  0.7516
   7623SM   H5S 9999   0.469   6.601  16.605  1.4209 -0.2547 -0.1712
   7623SM   C6S10000   0.498   6.619  16.395  0.1926  0.0162 -0.1326
   7623SM   H6S10001   0.502   6.512  16.368  2.1875  0.4964 -2.0802
   7623SM   H6T10002   0.599   6.652  16.427  0.1523 -0.7461  0.8140
   7623SM   C7S10003   0.451   6.675  16.265  0.4290  0.1447  0.0757
   7623SM   H7S10004   0.530   6.656  16.190  1.5006 -0.4040  1.2924
   7623SM   H7T10005   0.419   6.781  16.260 -0.4876 -0.1553 -0.6132
   7623SM   C8S10006   0.339   6.582  16.209 -0.9121 -0.4571 -0.7343
   7623SM   H8S10007   0.254   6.595  16.279 -0.8315  2.0670 -1.0149
   7623SM   H8T10008   0.369   6.475  16.203  1.0564  0.0757 -1.3144
   7623SM   C9S10009   0.294   6.619  16.063  0.0389  0.3767 -0.9605
   7623SM   H9S10010   0.261   6.725  16.063 -2.9718 -0.4240  0.9141
   7623SM   H9T10011   0.201   6.565  16.035 -0.3165  2.1195 -3.4194
   7623SM  C10S10012   0.397   6.605  15.953  0.0199  0.2905 -0.1040
   7623SM  H10S10013   0.431   6.500  15.948 -2.1759 -0.4425 -0.9757
   7623SM  H10T10014   0.488   6.666  15.973  1.2182 -0.8708 -1.7301
   7623SM  C11S10015   0.346   6.656  15.820  0.2239  0.4426  0.8355
   7623SM  H11S10016   0.274   6.583  15.778  0.2085 -0.3403  2.1709
   7623SM  H11T10017   0.426   6.651  15.744 -1.1325  0.2645 -0.6250
   7623SM  C12S10018   0.289   6.801  15.811 -0.6271 -0.9340 -0.3212
   7623SM  H12S10019   0.198   6.820  15.872  0.0710  1.3330  0.1113
   7623SM  H12T10020   0.271   6.818  15.703  2.0766 -0.1062 -0.7109
   7623SM  C13S10021   0.397   6.908  15.835 -0.1207 -0.6943  0.2422
   7623SM  H13S10022   0.484   6.878  15.772 -2.1569 -2.1357 -2.0287
   7623SM  H13T10023   0.433   6.920  15.940 -0.6910  0.5434  0.3129
   7623SM  C14S10024   0.357   7.048  15.790  0.2942 -0.1438  0.4170
   7623SM  H14S10025   0.286   7.074  15.871 -0.2767 -0.0001 -0.1144
   7623SM  H14T10026   0.315   7.025  15.689  1.0365 -0.6016  0.2121
   7623SM  C15S10027   0.479   7.150  15.772 -0.1063 -0.5883 -0.3289
   7623SM  H15S10028   0.571   7.096  15.740  0.9576  0.6135  0.5834
   7623SM  H15T10029   0.496   7.175  15.879 -1.5199 -0.0709 -0.2041
   7623SM  C16S10030   0.451   7.278  15.690 -0.6680  0.8468  0.3491
   7623SM  H16S10031   0.422   7.249  15.587  0.3047  2.3218 -0.3679
   7623SM  H16T10032   0.538   7.347  15.692 -1.1259  1.4424  2.9788
   7623SM  C17S10033   0.331   7.353  15.742  0.1901 -0.2613  0.2431
   7623SM  H17S10034   0.365   7.412  15.829  1.2176 -2.3088  1.3041
   7623SM  H17T10035   0.244   7.291  15.772  0.8859 -1.1707  0.4207
   7623SM  C18S10036   0.274   7.456  15.644 -0.5057  0.4450 -0.9648
   7623SM  H18S10037   0.247   7.396  15.554  0.3640  0.1637 -1.0474
   7623SM  H18T10038   0.349   7.534  15.619 -1.0164  0.3645 -2.9666
   7623SM  H18U10039   0.179   7.506  15.675 -0.4594  0.3820 -0.7205
   7623SM   C1F10040  -0.081   6.552  16.485  0.4476 -0.0118 -0.9806
   7623SM    OF10041  -0.158   6.642  16.483  0.2023  0.0410  0.1528
   7623SM   C2F10042  -0.115   6.416  16.427  0.0642 -0.4183 -0.1987
   7623SM   H2F10043  -0.202   6.375  16.482 -0.7690  3.4596  1.7544
   7623SM   H2G10044  -0.028   6.354  16.457  1.4240  0.6814 -1.6483
   7623SM   C3F10045  -0.132   6.420  16.274 -0.7574 -0.0405 -0.7470
   7623SM   H3F10046  -0.036   6.462  16.235 -0.2170  0.1101  0.6695
   7623SM   H3G10047  -0.216   6.484  16.241 -0.8620  0.0047 -0.3915
   7623SM   C4F10048  -0.127   6.284  16.202 -0.1320  0.3715  0.1637
   7623SM   H4F10049  -0.212   6.221  16.237  0.3253  0.4375  1.4561
   7623SM   H4G10050  -0.034   6.234  16.235 -1.6067 -1.1308  2.3737
   7623SM   C5F10051  -0.117   6.295  16.050  0.0207  0.1909 -0.2105
   7623SM   H5F10052  -0.196   6.370  16.025 -1.2553 -1.0361  0.0003
   7623SM   H5G10053  -0.144   6.196  16.007 -1.4038 -0.2735  1.6078
   7623SM   C6F10054   0.024   6.334  16.008 -0.6779  0.4304  0.2926
   7623SM   H6F10055   0.079   6.249  16.054 -2.5965  0.0948  2.1429
   7623SM   H6G10056   0.067   6.427  16.051 -0.3325 -0.1056  1.1364
   7623SM   C7F10057   0.037   6.333  15.859 -0.0350 -0.4314 -0.0710
   7623SM   H7F10058  -0.007   6.237  15.826 -0.1838 -0.7172  0.9151
   7623SM   H7G10059   0.148   6.323  15.853  0.0446  0.0488  0.4420
   7623SM   C8F10060  -0.018   6.450  15.779  0.1566 -0.3007  0.6940
   7623SM   H8F10061   0.039   6.543  15.803  1.3505 -0.4840 -1.2291
   7623SM   H8G10062  -0.122   6.468  15.813  0.0494 -0.9532  0.7251
   7623SM   C9F10063  -0.014   6.436  15.627 -1.2624 -0.0143  0.1495
   7623SM   H9F10064  -0.094   6.361  15.611 -1.1263 -0.2639  0.5957
   7623SM   H9G10065   0.083   6.394  15.593 -0.1378  1.5308  1.3438
   7623SM  C10F10066  -0.058   6.553  15.542  0.2190  0.0073  0.6066
   7623SM  H10F10067  -0.040   6.546  15.433  1.9174  2.8528  0.6078
   7623SM  H10G10068  -0.002   6.647  15.560 -0.3910  0.4086  0.4128
   7623SM  C11F10069  -0.207   6.585  15.571 -0.5349 -0.4647  0.3939
   7623SM  H11F10070  -0.214   6.599  15.681  0.3903 -2.2898  0.7284
   7623SM  H11G10071  -0.270   6.496  15.549 -1.0998 -0.7547  2.8263
   7623SM  C12F10072  -0.260   6.713  15.500  0.2179  0.7417 -0.3854
   7623SM  H12F10073  -0.188   6.793  15.528  3.1782 -0.6091 -3.3990
   7623SM  H12G10074  -0.363   6.731  15.537  1.1838  1.1892  2.2702
   7623SM  C13F10075  -0.243   6.716  15.343 -0.0157 -0.5044 -0.7633
   7623SM  H13F10076  -0.288   6.623  15.303 -1.1200 -0.6585  0.7666
   7623SM  H13G10077  -0.133   6.714  15.325  0.4852  0.1600  1.7725
   7623SM  C14F10078  -0.299   6.841  15.269  0.7418  0.2493  0.1790
   7623SM  H14F10079  -0.273   6.834  15.161  1.0464  2.0180  0.1134
   7623SM  H14G10080  -0.240   6.924  15.314 -0.2815  0.7061  0.7124
   7623SM  C15F10081  -0.452   6.848  15.283 -0.5053 -0.1785 -0.4542
   7623SM  H15F10082  -0.469   6.887  15.386  0.2590 -0.6016 -0.1630
   7623SM  H15G10083  -0.489   6.744  15.277  0.5985 -0.6013  0.0033
   7623SM  C16F10084  -0.515   6.942  15.178  0.0025 -0.2897 -0.5444
   7623SM  H16F10085  -0.491   6.914  15.073  1.0105  0.3972 -0.5105
   7623SM  H16G10086  -0.483   7.047  15.189 -0.0108 -0.3138 -0.2822
   7623SM  C17F10087  -0.670   6.942  15.188  0.1326  0.3355  0.5164
   7623SM  H17F10088  -0.693   7.006  15.276  2.2641  2.1458 -0.1366
   7623SM  H17G10089  -0.699   6.837  15.207  0.1842  0.2108 -0.0893
   7623SM  C18F10090  -0.737   6.981  15.058  0.4524 -0.1031  0.7988
   7623SM  H18F10091  -0.844   6.950  15.063  0.6079 -0.5469  1.5048
   7623SM  H18G10092  -0.708   6.928  14.965  0.3288  3.0381 -1.1659
   7623SM  C19F10093  -0.735   7.134  15.033  0.8026 -0.0559  0.4161
   7623SM  H19F10094  -0.636   7.182  15.051  0.2994  0.0609  3.3859
   7623SM  H19G10095  -0.808   7.180  15.104  0.1712 -0.2614 -0.0895
   7623SM  C20F10096  -0.773   7.170  14.893  0.0664 -0.2789 -0.1999
   7623SM  H20F10097  -0.708   7.109  14.827  0.2018 -1.1644  0.7200
   7623SM  H20G10098  -0.759   7.279  14.881  0.3962  0.1393  2.9972
   7623SM  C21F10099  -0.921   7.144  14.857  0.1088  0.1664  0.2225
   7623SM  H21F10100  -0.971   7.211  14.931  2.8034  1.1787  1.2403
   7623SM  H21G10101  -0.953   7.042  14.885  0.8273  0.2355  1.3678
   7623SM  C22F10102  -0.948   7.176  14.707 -0.5505 -0.2708 -1.1678
   7623SM  H22F10103  -0.870   7.253  14.690  0.7152 -0.6704  2.1021
   7623SM  H22G10104  -1.052   7.213  14.694 -0.9916 -0.8180  0.5571
   7623SM  C23F10105  -0.921   7.055  14.616 -0.3825 -0.2056  0.1069
   7623SM  H23F10106  -0.973   6.961  14.645 -1.5951  0.6850  0.9397
   7623SM  H23G10107  -0.816   7.023  14.597 -1.2508 -3.2497 -0.0371
   7623SM  H23H10108  -0.955   7.089  14.516  1.8605  2.5085  0.1302
   7723SM     N10109   7.090   3.553  16.993 -0.4596  0.2122 -0.4846
   7723SM   C1510110   7.040   3.546  16.854 -0.0410  0.1776 -0.0234
   7723SM  H15A10111   6.934   3.558  16.865 -0.1152 -1.3105  1.2587
   7723SM  H15B10112   7.047   3.446  16.813  0.1673  0.4145 -0.5691
   7723SM  H15C10113   7.078   3.622  16.787  2.3248 -2.8028 -2.3848
   7723SM   C1410114   7.098   3.706  17.036  0.1959  0.1192 -0.7691
   7723SM  H14A10115   7.153   3.752  16.956  2.0653 -0.7706 -0.0653
   7723SM  H14B10116   7.151   3.725  17.128  2.6309 -0.0126 -2.0470
   7723SM  H14C10117   7.003   3.756  17.032  0.0109  0.2894  2.7073
   7723SM   C1310118   6.997   3.489  17.086  0.4465  0.6400 -0.6644
   7723SM  H13A10119   7.038   3.492  17.186  0.5906 -1.1294 -0.6454
   7723SM  H13B10120   6.996   3.384  17.061  1.4678  0.4144  0.1869
   7723SM  H13C10121   6.899   3.535  17.076  0.1275  0.2995  0.6536
   7723SM   C1210122   7.224   3.490  17.006  0.3280  0.3502 -0.3109
   7723SM  H12A10123   7.294   3.553  16.952  0.3749  2.0650  1.6252
   7723SM  H12B10124   7.218   3.399  16.949  0.9097  0.8424 -1.1875
   7723SM   C1110125   7.283   3.470  17.145 -0.1841  1.0974  0.8974
   7723SM  H11A10126   7.275   3.557  17.213 -0.1713  0.6484  1.4816
   7723SM  H11B10127   7.392   3.448  17.139 -0.7205 -2.3368  1.4428
   7723SM     P10128   7.282   3.206  17.196 -0.3675 -0.2686  0.3268
   7723SM   O1310129   7.418   3.205  17.247  0.4462  0.1346  0.0437
   7723SM   O1410130   7.181   3.111  17.244 -0.0286  0.7029  0.1392
   7723SM   O1110131   7.298   3.197  17.042 -0.1197  0.0324  0.3340
   7723SM   O1210132   7.230   3.354  17.208  1.0493  0.5858  0.2969
   7723SM   C1S10133   7.225   3.132  16.946 -0.0301  0.0543 -0.0379
   7723SM   H1S10134   7.123   3.174  16.935  0.4843  0.6101 -3.7348
   7723SM   H1T10135   7.218   3.024  16.972 -0.3725 -0.0684 -0.6285
   7723SM    NF10136   7.221   3.102  16.699  0.2317  0.3775 -0.4428
   7723SM   HNF10137   7.252   3.019  16.653 -1.7685  0.3873 -1.9162
   7723SM   C2S10138   7.301   3.142  16.814 -0.6180 -0.6830  0.0394
   7723SM   H2S10139   7.332   3.247  16.794  1.6654 -1.1855  0.6045
   7723SM   C3S10140   7.438   3.068  16.829  0.2953 -0.2187 -0.5999
   7723SM   H3S10141   7.414   2.962  16.851 -1.3761  0.1198 -0.6449
   7723SM    O310142   7.521   3.140  16.921 -0.2501 -0.1391 -0.6985
   7723SM   HO310143   7.450   3.197  16.950 -0.0612  0.0232 -0.5575
   7723SM   C4S10144   7.499   3.059  16.692 -0.6331  0.6680 -0.0019
   7723SM   H4S10145   7.450   2.981  16.631  1.1285  0.7278 -1.5916
   7723SM   C5S10146   7.607   3.130  16.649  0.3851 -0.0445  0.1410
   7723SM   H5S10147   7.646   3.215  16.707 -0.5718  1.4304 -1.2840
   7723SM   C6S10148   7.665   3.124  16.506  1.6102  0.4326  0.2114
   7723SM   H6S10149   7.687   3.230  16.478 -0.6970  1.1377  0.8569
   7723SM   H6T10150   7.587   3.080  16.441  2.6124 -1.5955  0.2961
   7723SM   C7S10151   7.802   3.053  16.485 -0.3323 -0.1269 -0.3258
   7723SM   H7S10152   7.799   2.943  16.495 -1.2942  0.0797  2.8383
   7723SM   H7T10153   7.884   3.076  16.557  1.0822 -1.2514 -1.5096
   7723SM   C8S10154   7.841   3.079  16.337 -0.1662 -0.6098 -0.0519
   7723SM   H8S10155   7.941   3.049  16.299  0.0975 -0.4337  0.4965
   7723SM   H8T10156   7.844   3.189  16.327 -0.9951 -0.5179  0.6212
   7723SM   C9S10157   7.743   3.033  16.224 -0.3607  0.1206  0.6472
   7723SM   H9S10158   7.644   3.084  16.224 -0.1299  0.5748  0.4830
   7723SM   H9T10159   7.740   2.923  16.240 -2.7920 -0.0338 -0.5565
   7723SM  C10S10160   7.806   3.058  16.090  0.0050 -0.6631 -0.2908
   7723SM  H10S10161   7.875   2.972  16.073  0.9971 -0.4306  2.1838
   7723SM  H10T10162   7.869   3.149  16.100  1.4916 -1.8417  1.7565
   7723SM  C11S10163   7.727   3.077  15.970  0.6203  0.0481  0.5537
   7723SM  H11S10164   7.662   3.160  16.006 -0.0962 -0.5674  0.7126
   7723SM  H11T10165   7.667   2.986  15.949  0.6550  0.0797  0.3146
   7723SM  C12S10166   7.789   3.124  15.832  0.4264  0.2321 -0.6300
   7723SM  H12S10167   7.878   3.060  15.816 -0.2947 -1.5170  1.8189
   7723SM  H12T10168   7.815   3.231  15.848 -1.5876  0.4023  2.1344
   7723SM  C13S10169   7.701   3.102  15.717  0.0006  0.0296  0.1391
   7723SM  H13S10170   7.602   3.145  15.743  0.6087  2.4864 -1.2873
   7723SM  H13T10171   7.708   2.993  15.700  1.4781  0.1714 -0.2898
   7723SM  C14S10172   7.738   3.191  15.600 -0.0594  0.1693 -0.0399
   7723SM  H14S10173   7.848   3.196  15.587 -0.0388 -1.3123 -0.7204
   7723SM  H14T10174   7.699   3.292  15.622 -0.7715 -0.1913  0.3916
   7723SM  C15S10175   7.663   3.143  15.470  0.2857 -0.0415  0.1755
   7723SM  H15S10176   7.662   3.224  15.393  1.5993 -0.7775 -0.6630
   7723SM  H15T10177   7.557   3.127  15.499 -0.2213 -0.3069 -1.6530
   7723SM  C16S10178   7.724   3.022  15.398 -0.3544 -0.3545  0.0658
   7723SM  H16S10179   7.725   2.929  15.459  0.6618 -1.8786 -2.1485
   7723SM  H16T10180   7.828   3.050  15.373 -1.0694  2.0994 -0.4519
   7723SM  C17S10181   7.655   2.980  15.265 -0.0447 -0.7132 -0.3119
   7723SM  H17S10182   7.630   3.063  15.195  2.1254 -0.2122 -0.5570
   7723SM  H17T10183   7.554   2.953  15.303 -0.6471  2.4111  0.5728
   7723SM  C18S10184   7.735   2.880  15.187  0.2377 -0.4579 -0.2436
   7723SM  H18S10185   7.684   2.844  15.095 -1.0896  0.4912  0.0750
   7723SM  H18T10186   7.762   2.789  15.245 -0.7434  1.3476  3.3614
   7723SM  H18U10187   7.829   2.935  15.164  0.5139  0.1492  2.1257
   7723SM   C1F10188   7.102   3.155  16.680  0.1238  0.3333 -0.3910
   7723SM    OF10189   7.086   3.276  16.703  0.4877  0.1116 -0.2357
   7723SM   C2F10190   6.990   3.065  16.632  0.3130 -0.1647 -0.2213
   7723SM   H2F10191   6.893   3.075  16.685 -1.2874  0.1076 -2.9833
   7723SM   H2G10192   7.029   2.961  16.637  0.9222 -0.0039 -1.2755
   7723SM   C3F10193   6.954   3.090  16.484  0.8027 -0.1653 -0.3415
   7723SM   H3F10194   7.033   3.056  16.414  0.5642  2.8647 -2.2327
   7723SM   H3G10195   6.948   3.198  16.461 -0.8471 -0.1354  0.0999
   7723SM   C4F10196   6.820   3.028  16.440  0.7538  0.2594  0.1323
   7723SM   H4F10197   6.742   3.056  16.514 -0.7798 -0.4692 -1.1732
   7723SM   H4G10198   6.818   2.918  16.427 -1.8622  0.0631  1.4586
   7723SM   C5F10199   6.781   3.082  16.300  0.0146 -0.0751 -0.7063
   7723SM   H5F10200   6.792   3.192  16.311  1.1912 -0.3765  1.9211
   7723SM   H5G10201   6.672   3.066  16.288 -0.3121  2.7746 -2.4292
   7723SM   C6F10202   6.873   3.040  16.177  0.8736  0.5538 -0.3058
   7723SM   H6F10203   6.876   2.929  16.189  0.5149  0.6410  0.7061
   7723SM   H6G10204   6.976   3.081  16.184  1.5845 -0.8146 -2.0130
   7723SM   C7F10205   6.807   3.076  16.041 -0.2675  0.0270  0.4907
   7723SM   H7F10206   6.810   3.186  16.027  0.1870 -0.2578 -2.0644
   7723SM   H7G10207   6.702   3.042  16.038 -0.6578  1.2812 -1.7876
   7723SM   C8F10208   6.895   3.016  15.922 -0.6358 -0.0499 -0.0713
   7723SM   H8F10209   6.919   2.908  15.932  3.1973  0.7864  1.6238
   7723SM   H8G10210   6.992   3.069  15.914  0.0461 -0.6420  2.9329
   7723SM   C9F10211   6.821   3.034  15.797  0.0769  0.5458 -0.8151
   7723SM   H9F10212   6.832   3.144  15.782  0.0605  0.8127  0.9762
   7723SM   H9G10213   6.714   3.006  15.803  0.6711 -2.1710 -1.6171
   7723SM  C10F10214   6.898   2.959  15.686  0.0912  0.1484 -0.1962
   7723SM  H10F10215   6.886   2.850  15.697  1.2330  0.0453  0.1613
   7723SM  H10G10216   7.005   2.987  15.677  0.3254  0.1907  1.9718
   7723SM  C11F10217   6.822   2.981  15.556  0.1940 -0.1160  0.4330
   7723SM  H11F10218   6.815   3.087  15.527 -1.4788 -0.5537 -0.8923
   7723SM  H11G10219   6.720   2.945  15.583  0.8457 -2.6090 -0.1029
   7723SM  C12F10220   6.873   2.911  15.431  0.0679 -0.3674 -0.7088
   7723SM  H12F10221   6.806   2.930  15.344 -3.1120  0.4215  1.6930
   7723SM  H12G10222   6.873   2.802  15.453 -1.2994 -0.2906 -0.1994
   7723SM  C13F10223   7.019   2.942  15.397  0.8136 -0.2039 -0.1614
   7723SM  H13F10224   7.092   2.933  15.481  1.6443  2.0800 -0.5779
   7723SM  H13G10225   7.033   3.045  15.358 -0.2663 -0.4393 -1.1896
   7723SM  C14F10226   7.068   2.843  15.289 -0.0462 -1.1856  0.1579
   7723SM  H14F10227   6.990   2.849  15.210  0.3180  1.0462 -0.1008
   7723SM  H14G10228   7.068   2.738  15.325  3.4826 -1.6545 -0.8812
   7723SM  C15F10229   7.198   2.877  15.228  0.8271  0.0068 -0.4209
   7723SM  H15F10230   7.275   2.898  15.306 -0.0138 -0.1572  0.4735
   7723SM  H15G10231   7.192   2.979  15.185  0.0319 -0.2655 -0.9577
   7723SM  C16F10232   7.247   2.772  15.128 -0.1124 -0.4275 -0.1005
   7723SM  H16F10233   7.204   2.675  15.161 -4.3300  0.5711 -1.9566
   7723SM  H16G10234   7.358   2.764  15.124 -0.2569 -2.7520 -1.0420
   7723SM  C17F10235   7.212   2.799  14.974 -0.0425 -0.2705 -0.1812
   7723SM  H17F10236   7.264   2.894  14.950  0.6627 -0.3561  0.8899
   7723SM  H17G10237   7.102   2.815  14.964  0.0077  0.0197 -0.2695
   7723SM  C18F10238   7.266   2.697  14.872  0.3997 -0.1907  0.0146
   7723SM  H18F10239   7.226   2.594  14.886  1.0399 -0.6133 -1.0365
   7723SM  H18G10240   7.377   2.686  14.871  0.8057  3.0921 -0.3282
   7723SM  C19F10241   7.239   2.745  14.729  0.1058 -0.2124  0.1266
   7723SM  H19F10242   7.285   2.842  14.699  1.1032 -0.5699  0.4306
   7723SM  H19G10243   7.131   2.769  14.724 -0.1537 -1.4619 -0.5077
   7723SM  C20F10244   7.255   2.631  14.625  0.2509 -0.1396 -0.6870
   7723SM  H20F10245   7.211   2.533  14.653 -1.5148  0.3275 -1.6353
   7723SM  H20G10246   7.366   2.624  14.620  0.2416 -0.0849 -1.0703
   7723SM  C21F10247   7.212   2.679  14.485  0.7448  0.0061  0.2351
   7723SM  H21F10248   7.266   2.771  14.455  0.8978 -0.4159 -0.8322
   7723SM  H21G10249   7.102   2.696  14.490  0.8018  0.2392  0.8125
   7723SM  C22F10250   7.257   2.579  14.380  0.3378 -0.3454 -0.1570
   7723SM  H22F10251   7.212   2.479  14.401 -1.3258  0.2055 -0.8517
   7723SM  H22G10252   7.367   2.566  14.388  0.0007 -2.7002  2.0672
   7723SM  C23F10253   7.212   2.630  14.239 -0.1387  0.4111 -0.4636
   7723SM  H23F10254   7.135   2.563  14.194  0.6878  0.5587 -2.2077
   7723SM  H23G10255   7.297   2.635  14.168 -0.7178  0.2348 -1.1844
   7723SM  H23H10256   7.169   2.732  14.236 -1.0493  0.0673  0.3874
   7823SM     N10257   0.507   0.578  17.187  1.1523 -0.0754 -0.3694
   7823SM   C1510258   0.465   0.447  17.248 -0.1106  0.7489 -0.0364
   7823SM  H15A10259   0.511   0.443  17.345 -0.3011 -0.8145  0.0112
   7823SM  H15B10260   0.503   0.367  17.186  1.1351  0.6760  0.7825
   7823SM  H15C10261   0.360   0.434  17.265  0.0324  0.2873  0.5120
   7823SM   C1410262   0.657   0.583  17.197 -1.0429 -0.4239  0.6410
   7823SM  H14A10263   0.694   0.605  17.296 -1.7824  1.6493  0.5129
   7823SM  H14B10264   0.685   0.670  17.140 -1.5218  0.0938  1.1725
   7823SM  H14C10265   0.716   0.502  17.158  0.2142  2.1029 -3.3332
   7823SM   C1310266   0.464   0.585  17.043  0.1056  0.3705 -0.0558
   7823SM  H13A10267   0.526   0.654  16.988  0.7275  0.8790  1.2259
   7823SM  H13B10268   0.366   0.627  17.034 -1.0918 -2.3317 -0.7311
   7823SM  H13C10269   0.447   0.487  17.000  0.1338  0.0037  0.7387
   7823SM   C1210270   0.451   0.699  17.269 -0.2478  0.4879 -0.4313
   7823SM  H12A10271   0.495   0.790  17.231 -2.5935  1.5055 -0.8726
   7823SM  H12B10272   0.494   0.692  17.368 -1.1542 -1.3304 -0.1277
   7823SM   C1110273   0.294   0.700  17.276  0.7842  0.2740 -0.1039
   7823SM  H11A10274   0.276   0.775  17.356  1.3958  1.9006 -1.4340
   7823SM  H11B10275   0.252   0.603  17.310 -1.2607  1.2165  0.2304
   7823SM     P10276   0.186   0.879  17.132  0.0004 -0.2226  0.1895
   7823SM   O1310277   0.038   0.875  17.147 -0.1276  0.7482 -0.4427
   7823SM   O1410278   0.258   0.982  17.210 -0.1639  0.4374  0.1973
   7823SM   O1110279   0.210   0.897  16.980 -0.4876 -0.3447  1.2211
   7823SM   O1210280   0.240   0.733  17.151  0.2223 -0.3593  0.5413
   7823SM   C1S10281   0.147   0.814  16.879  0.0172  0.5910  0.5049
   7823SM   H1S10282   0.038   0.833  16.872 -0.2172 -0.7273  0.3247
   7823SM   H1T10283   0.162   0.706  16.900  1.9481  0.4189 -1.4019
   7823SM    NF10284   0.122   0.772  16.643  0.3118  0.3810  0.2827
   7823SM   HNF10285   0.147   0.694  16.587  2.1833  0.6317  0.7143
   7823SM   C2S10286   0.211   0.840  16.734  0.1955 -0.2108 -0.3422
   7823SM   H2S10287   0.206   0.948  16.707  2.1143 -0.1729 -0.6792
   7823SM   C3S10288   0.356   0.779  16.721 -0.1615  0.0483  0.0513
   7823SM   H3S10289   0.344   0.669  16.713  0.9656 -0.0071 -1.1871
   7823SM    O310290   0.441   0.798  16.831 -0.0367  0.1410 -0.3504
   7823SM   HO310291   0.380   0.825  16.900 -1.0814  0.7653 -1.4957
   7823SM   C4S10292   0.415   0.816  16.587 -0.1932  0.1679  0.8286
   7823SM   H4S10293   0.373   0.755  16.506 -1.2169  0.3729  1.1839
   7823SM   C5S10294   0.490   0.923  16.547 -0.1043 -0.0571 -1.0079
   7823SM   H5S10295   0.512   1.000  16.623  1.4256 -0.4104 -1.0675
   7823SM   C6S10296   0.521   0.952  16.403 -0.3638 -0.5402  0.5713
   7823SM   H6S10297   0.629   0.953  16.377 -0.4075 -1.6373  0.2912
   7823SM   H6T10298   0.480   1.054  16.391  1.3284  0.0480 -0.7598
   7823SM   C7S10299   0.458   0.870  16.283 -0.2051 -0.2728  0.1884
   7823SM   H7S10300   0.348   0.853  16.285 -0.3347  0.4984  0.1793
   7823SM   H7T10301   0.502   0.769  16.291 -1.1033 -0.7468 -0.6337
   7823SM   C8S10302   0.505   0.920  16.148  0.0315  0.5697  0.4425
   7823SM   H8S10303   0.493   0.835  16.076  1.3759  1.2059 -0.5720
   7823SM   H8T10304   0.615   0.935  16.153  0.0221  0.6441  0.4272
   7823SM   C9S10305   0.412   1.035  16.095 -0.4746  0.0296 -0.2898
   7823SM   H9S10306   0.421   1.114  16.172  0.2071  0.1308 -0.4622
   7823SM   H9T10307   0.307   1.000  16.102 -1.0578  1.4656 -1.3352
   7823SM  C10S10308   0.447   1.072  15.953  0.6497  0.0826  0.6936
   7823SM  H10S10309   0.402   1.174  15.945  1.5883  0.5197  0.9016
   7823SM  H10T10310   0.390   1.001  15.889 -0.7810  0.9614  0.9431
   7823SM  C11S10311   0.594   1.091  15.915 -0.5790 -0.2597  0.3110
   7823SM  H11S10312   0.640   0.991  15.905 -0.7928 -0.2281 -1.3594
   7823SM  H11T10313   0.640   1.141  16.003  0.9000 -0.1398 -0.4880
   7823SM  C12S10314   0.609   1.173  15.787 -0.3809 -0.3398  0.1137
   7823SM  H12S10315   0.713   1.179  15.749 -0.5459 -1.7384 -0.6191
   7823SM  H12T10316   0.590   1.279  15.815  4.1150  0.3749  1.1727
   7823SM  C13S10317   0.520   1.114  15.673  0.5105 -0.1638  0.5630
   7823SM  H13S10318   0.417   1.097  15.711  1.0131  0.2659  2.1909
   7823SM  H13T10319   0.562   1.017  15.640  0.2287  0.6993 -2.6693
   7823SM  C14S10320   0.513   1.207  15.549 -0.8284  0.0923  0.3957
   7823SM  H14S10321   0.600   1.177  15.485  0.7745 -0.7179  2.8198
   7823SM  H14T10322   0.517   1.311  15.589  0.2499 -0.2699  1.2787
   7823SM  C15S10323   0.379   1.197  15.467 -0.7113 -0.5455 -0.4739
   7823SM  H15S10324   0.356   1.088  15.464 -0.9634 -0.4996 -0.2502
   7823SM  H15T10325   0.413   1.237  15.369 -1.1084  1.4642  0.1826
   7823SM  C16S10326   0.259   1.284  15.508 -0.1092  0.5220  0.5794
   7823SM  H16S10327   0.293   1.389  15.494  2.0754 -0.1219  0.7133
   7823SM  H16T10328   0.238   1.273  15.616 -0.4219  1.5518  0.6345
   7823SM  C17S10329   0.134   1.244  15.428 -0.3085 -0.2488  0.6092
   7823SM  H17S10330   0.043   1.290  15.471 -1.0427  0.2091 -1.3486
   7823SM  H17T10331   0.121   1.135  15.448  1.6299 -0.9325 -1.5060
   7823SM  C18S10332   0.152   1.258  15.277 -0.2702  0.0183 -0.1186
   7823SM  H18S10333   0.203   1.351  15.246 -0.0245 -0.4490 -1.1697
   7823SM  H18T10334   0.060   1.250  15.217 -0.3906  2.0977 -0.2746
   7823SM  H18U10335   0.226   1.183  15.242  1.2281  1.1693  0.4803
   7823SM   C1F10336   0.004   0.823  16.625  0.1326  0.0431 -0.0129
   7823SM    OF10337  -0.020   0.934  16.674  0.2838  0.5921  0.2360
   7823SM   C2F10338  -0.098   0.741  16.549 -0.3262 -0.6954  0.1252
   7823SM   H2F10339  -0.193   0.724  16.604  0.3004 -2.8119  0.6495
   7823SM   H2G10340  -0.061   0.637  16.534  0.9557  0.0294 -2.2247
   7823SM   C3F10341  -0.135   0.823  16.420  0.0526 -0.3285 -0.0999
   7823SM   H3F10342  -0.199   0.911  16.444 -0.5219 -0.5055 -0.9192
   7823SM   H3G10343  -0.194   0.749  16.361 -1.3310 -0.9468  1.9340
   7823SM   C4F10344  -0.018   0.871  16.333 -0.4316  0.0310  0.0670
   7823SM   H4F10345   0.070   0.803  16.331 -0.2151  0.3014  0.3915
   7823SM   H4G10346   0.033   0.960  16.376  0.9215  0.3402 -2.0361
   7823SM   C5F10347  -0.070   0.918  16.198 -0.4369  0.2236 -0.5883
   7823SM   H5F10348  -0.133   1.007  16.220  0.8845  0.5182  2.5020
   7823SM   H5G10349  -0.133   0.833  16.161  1.6716 -0.5143 -2.7670
   7823SM   C6F10350   0.044   0.940  16.100  0.7217 -0.0751 -0.0349
   7823SM   H6F10351   0.099   0.845  16.084  0.2632 -0.0805 -1.7075
   7823SM   H6G10352   0.110   1.018  16.145  1.9251  0.4384 -2.5126
   7823SM   C7F10353  -0.015   0.991  15.968  1.1756 -0.2347 -0.4738
   7823SM   H7F10354  -0.086   0.915  15.930  1.0568 -1.1350  1.4782
   7823SM   H7G10355   0.071   0.997  15.897 -0.9800  2.0733 -3.1531
   7823SM   C8F10356  -0.090   1.123  15.965  0.6022  0.2780  1.1025
   7823SM   H8F10357  -0.039   1.199  16.026  0.7859 -1.5313  3.3295
   7823SM   H8G10358  -0.196   1.113  15.997 -0.5102  0.7428 -2.0884
   7823SM   C9F10359  -0.095   1.170  15.813 -0.0446 -0.4732 -0.1388
   7823SM   H9F10360   0.007   1.168  15.770 -0.0300 -1.3460 -0.0881
   7823SM   H9G10361  -0.148   1.267  15.804 -1.0444 -1.0874 -1.2172
   7823SM  C10F10362  -0.172   1.077  15.728 -0.1087 -0.5714  0.1163
   7823SM  H10F10363  -0.274   1.072  15.772  0.9342 -0.1432  2.7761
   7823SM  H10G10364  -0.132   0.973  15.729  4.2568  0.9411  0.9243
   7823SM  C11F10365  -0.180   1.126  15.583  0.6389 -0.0671  0.2834
   7823SM  H11F10366  -0.086   1.104  15.527  0.4197 -0.5511  0.0894
   7823SM  H11G10367  -0.206   1.233  15.594 -1.5349 -0.6887  1.7218
   7823SM  C12F10368  -0.293   1.062  15.495  0.1839  0.9654 -0.5588
   7823SM  H12F10369  -0.369   1.013  15.560 -1.1259 -0.6752 -3.1639
   7823SM  H12G10370  -0.262   0.973  15.437 -2.9493 -0.7169  0.1137
   7823SM  C13F10371  -0.375   1.159  15.405 -0.4442 -0.3163  0.2546
   7823SM  H13F10372  -0.424   1.233  15.471 -0.9942  0.0274 -0.5323
   7823SM  H13G10373  -0.456   1.110  15.348 -0.2144 -0.1578 -0.2127
   7823SM  C14F10374  -0.289   1.231  15.302 -0.5494  0.0844  0.3258
   7823SM  H14F10375  -0.252   1.142  15.246  0.4561 -0.2240  1.4307
   7823SM  H14G10376  -0.203   1.282  15.350  0.3447 -2.0918  1.1502
   7823SM  C15F10377  -0.364   1.325  15.210  0.0749 -0.7448 -0.2944
   7823SM  H15F10378  -0.404   1.407  15.273  0.2433 -1.8317  1.2753
   7823SM  H15G10379  -0.455   1.273  15.173  0.0850 -0.2177 -1.1041
   7823SM  C16F10380  -0.278   1.377  15.101 -0.0775 -0.9342  0.4571
   7823SM  H16F10381  -0.259   1.296  15.027  1.3959 -0.1622 -0.0430
   7823SM  H16G10382  -0.175   1.403  15.133 -0.7893  0.7792  1.4587
   7823SM  C17F10383  -0.336   1.499  15.019 -0.6727  0.7506  0.5010
   7823SM  H17F10384  -0.269   1.526  14.935 -1.3858 -0.6720 -0.5618
   7823SM  H17G10385  -0.351   1.581  15.092  0.4682  0.2317  1.3505
   7823SM  C18F10386  -0.461   1.461  14.937  0.4020 -0.2545  0.2925
   7823SM  H18F10387  -0.526   1.403  15.007 -1.1976  1.5394  0.3748
   7823SM  H18G10388  -0.428   1.389  14.859  1.6740  0.5559  0.0552
   7823SM  C19F10389  -0.529   1.591  14.901  0.4954  0.3205 -0.6378
   7823SM  H19F10390  -0.453   1.649  14.844  2.2698 -1.3203 -0.0619
   7823SM  H19G10391  -0.549   1.654  14.991  1.8259 -0.6936  0.4068
   7823SM  C20F10392  -0.664   1.568  14.825 -0.8746  0.1860  0.2836
   7823SM  H20F10393  -0.715   1.474  14.858  1.4537 -1.6503 -1.0125
   7823SM  H20G10394  -0.621   1.544  14.726  1.3135 -1.7948  1.5898
   7823SM  C21F10395  -0.750   1.690  14.806 -0.2110 -0.1584 -0.3705
   7823SM  H21F10396  -0.785   1.727  14.905  1.7418 -1.7354  0.9980
   7823SM  H21G10397  -0.830   1.656  14.737  1.3842 -1.1158 -1.8378
   7823SM  C22F10398  -0.681   1.815  14.741 -0.0948 -0.1380 -0.2361
   7823SM  H22F10399  -0.572   1.800  14.758 -0.0986 -0.9202 -0.8489
   7823SM  H22G10400  -0.706   1.904  14.802  1.4610  0.0113  0.2258
   7823SM  C23F10401  -0.722   1.848  14.597  0.2920  0.5163  0.0041
   7823SM  H23F10402  -0.672   1.775  14.531 -1.6114 -0.9883  0.1473
   7823SM  H23G10403  -0.712   1.954  14.563 -0.8457  1.0270  1.1594
   7823SM  H23H10404  -0.832   1.835  14.592  0.1831  0.2619  2.0998
   7923SM     N10405   5.675   1.882  16.995 -0.5021  0.1460  0.3778
   7923SM   C1510406   5.822   1.860  16.961  0.2044 -1.4181  0.0625
   7923SM  H15A10407   5.859   1.771  17.009  1.8915 -2.7257 -3.3367
   7923SM  H15B10408   5.889   1.943  16.979  0.5555 -1.0505 -2.5253
   7923SM  H15C10409   5.832   1.853  16.854  2.5226  1.9518 -0.0942
   7923SM   C1410410   5.665   1.885  17.139 -0.1131  0.0923 -0.2041
   7923SM  H14A10411   5.689   1.796  17.195  1.9224  0.4971 -0.3827
   7923SM  H14B10412   5.563   1.915  17.163  0.0669  0.6395 -0.1075
   7923SM  H14C10413   5.720   1.960  17.193 -1.6945  1.0581  0.1564
   7923SM   C1310414   5.627   2.007  16.934 -0.1572 -0.3807 -0.5797
   7923SM  H13A10415   5.522   2.013  16.960 -0.1642  0.8627 -0.8611
   7923SM  H13B10416   5.634   2.006  16.827 -0.9142 -1.5269 -0.6386
   7923SM  H13C10417   5.680   2.090  16.977  0.6492 -1.3233  0.2857
   7923SM   C1210418   5.600   1.767  16.945  0.8408  0.2630 -0.1477
   7923SM  H12A10419   5.495   1.782  16.966  0.6094 -1.0248 -0.3341
   7923SM  H12B10420   5.628   1.683  17.007 -1.7933 -0.6679 -0.0884
   7923SM   C1110421   5.615   1.721  16.796 -0.7986  0.4225  0.6005
   7923SM  H11A10422   5.561   1.625  16.785  2.7204 -1.5250 -1.5033
   7923SM  H11B10423   5.723   1.696  16.784 -1.1216 -0.4600 -0.6791
   7923SM     P10424   5.661   1.882  16.592  0.1915 -0.1431  0.0821
   7923SM   O1310425   5.576   1.944  16.481 -0.0057 -0.4139 -1.0078
   7923SM   O1410426   5.770   1.959  16.651  0.0706  0.0259 -0.2261
   7923SM   O1110427   5.732   1.761  16.529 -0.5375  0.5942 -0.3986
   7923SM   O1210428   5.567   1.818  16.703  0.4206 -0.4709  0.0550
   7923SM   C1S10429   5.681   1.632  16.491 -0.7790  0.0443 -0.2741
   7923SM   H1S10430   5.570   1.628  16.493 -0.8088  0.2832 -1.0672
   7923SM   H1T10431   5.724   1.555  16.558 -1.2218 -1.8894 -2.1258
   7923SM    NF10432   5.629   1.510  16.284 -0.1910  0.0622 -0.1074
   7923SM   HNF10433   5.658   1.415  16.271 -1.1884 -0.1943 -0.5499
   7923SM   C2S10434   5.733   1.597  16.347  0.3250  0.5110 -0.0374
   7923SM   H2S10435   5.737   1.686  16.281 -1.3757  0.8681  0.3038
   7923SM   C3S10436   5.881   1.551  16.352  0.1818 -0.4726  0.0720
   7923SM   H3S10437   5.888   1.456  16.410 -0.5625  0.0194  1.0115
   7923SM    O310438   5.955   1.654  16.416  0.2403 -0.6407  0.1292
   7923SM   HO310439   5.884   1.707  16.453 -0.8128 -1.5391 -0.5190
   7923SM   C4S10440   5.943   1.540  16.210 -0.0041  0.2835  0.1302
   7923SM   H4S10441   5.998   1.623  16.164  1.2496 -0.8558 -0.4916
   7923SM   C5S10442   5.966   1.423  16.147 -0.0474 -0.4923 -0.0357
   7923SM   H5S10443   5.938   1.328  16.194 -0.5750 -1.6790 -2.6120
   7923SM   C6S10444   6.042   1.401  16.023  0.2782 -0.8481 -0.1914
   7923SM   H6S10445   6.026   1.306  15.968  0.0251 -0.0710 -1.5096
   7923SM   H6T10446   6.149   1.409  16.052  0.1428 -2.4562  0.8308
   7923SM   C7S10447   6.043   1.526  15.920 -0.0602  0.2404  0.0168
   7923SM   H7S10448   6.076   1.615  15.978 -1.2174 -0.8009  2.4034
   7923SM   H7T10449   5.942   1.533  15.875 -0.1821 -0.7413  0.1142
   7923SM   C8S10450   6.137   1.503  15.805  0.0119 -0.0237 -0.0590
   7923SM   H8S10451   6.110   1.415  15.743  2.7237 -1.2611  0.3794
   7923SM   H8T10452   6.237   1.493  15.851 -0.9805  1.0050  2.5951
   7923SM   C9S10453   6.149   1.630  15.710 -0.2888  0.9168  0.2371
   7923SM   H9S10454   6.185   1.713  15.774  1.0312  0.3768  0.2134
   7923SM   H9T10455   6.050   1.661  15.669 -0.6232  2.3691  2.0328
   7923SM  C10S10456   6.229   1.610  15.580 -0.1646 -0.7122 -0.0112
   7923SM  H10S10457   6.193   1.524  15.519  0.2106 -0.6525 -0.3244
   7923SM  H10T10458   6.338   1.598  15.598  0.0799  1.1884  0.0677
   7923SM  C11S10459   6.202   1.734  15.488 -0.5677 -0.3019 -0.3643
   7923SM  H11S10460   6.220   1.833  15.537  0.8571 -1.3410  1.3395
   7923SM  H11T10461   6.095   1.731  15.457 -0.2951  0.4903 -1.4760
   7923SM  C12S10462   6.286   1.731  15.360 -0.0012  0.7931  0.6631
   7923SM  H12S10463   6.283   1.633  15.309  1.8799  2.8264 -3.9573
   7923SM  H12T10464   6.394   1.752  15.373  0.5498 -1.2415 -0.2681
   7923SM  C13S10465   6.246   1.841  15.260 -0.3435  0.4575 -0.1137
   7923SM  H13S10466   6.272   1.936  15.310 -0.3165 -0.2118  1.1850
   7923SM  H13T10467   6.142   1.838  15.221  0.8142  1.6126 -3.7114
   7923SM  C14S10468   6.330   1.842  15.127  0.3822  0.7564  0.1112
   7923SM  H14S10469   6.281   1.777  15.051  3.0407  0.2763 -1.3242
   7923SM  H14T10470   6.425   1.789  15.148  0.5383  1.5654  1.5903
   7923SM  C15S10471   6.346   1.986  15.062  0.5401  0.2556 -0.9830
   7923SM  H15S10472   6.413   2.053  15.120  0.6431  0.3085 -1.1626
   7923SM  H15T10473   6.243   2.026  15.077  0.3985  0.1292 -1.6147
   7923SM  C16S10474   6.398   1.979  14.914 -0.1138 -0.1213  0.6750
   7923SM  H16S10475   6.337   1.903  14.861  0.7178 -0.1316 -0.2936
   7923SM  H16T10476   6.504   1.946  14.919  0.2619  1.0261  0.4409
   7923SM  C17S10477   6.390   2.117  14.846  0.6556 -0.3411  0.2157
   7923SM  H17S10478   6.433   2.191  14.917  0.4307  0.9481 -0.9544
   7923SM  H17T10479   6.281   2.136  14.835  0.6706  0.5089  1.4518
   7923SM  C18S10480   6.449   2.126  14.705  0.4828 -0.2983  0.6388
   7923SM  H18S10481   6.402   2.041  14.651  0.1621 -1.4671  2.6807
   7923SM  H18T10482   6.560   2.126  14.702  0.4871 -0.5989  0.8098
   7923SM  H18U10483   6.404   2.209  14.645 -1.9244 -1.2201  1.0501
   7923SM   C1F10484   5.513   1.550  16.242  0.1648 -0.0891 -0.0576
   7923SM    OF10485   5.492   1.664  16.216  0.2548  0.0479  0.2001
   7923SM   C2F10486   5.415   1.442  16.211  0.2793  0.4273  0.7120
   7923SM   H2F10487   5.395   1.388  16.306  2.5046  0.6963  1.3788
   7923SM   H2G10488   5.473   1.364  16.159 -1.2475  1.1375 -2.2682
   7923SM   C3F10489   5.290   1.478  16.126 -0.4976 -0.4333  0.4401
   7923SM   H3F10490   5.324   1.498  16.022 -0.4133 -2.0301  0.1389
   7923SM   H3G10491   5.229   1.557  16.175 -1.2098  0.0853 -1.2126
   7923SM   C4F10492   5.195   1.350  16.121  0.4076  0.0491 -0.2576
   7923SM   H4F10493   5.170   1.306  16.220  2.0783 -0.3541  0.0119
   7923SM   H4G10494   5.243   1.270  16.062  1.1944 -0.0906  0.5605
   7923SM   C5F10495   5.058   1.372  16.041 -0.1976 -0.5681  0.3257
   7923SM   H5F10496   5.088   1.403  15.938 -0.0190  1.6787  0.9938
   7923SM   H5G10497   5.003   1.456  16.089 -1.4003 -0.6399 -0.8616
   7923SM   C6F10498   4.966   1.251  16.041  0.3117 -0.0562 -0.4397
   7923SM   H6F10499   4.942   1.226  16.147 -0.1885 -1.9068 -0.9636
   7923SM   H6G10500   5.025   1.167  15.999  1.7850  0.4971  0.4459
   7923SM   C7F10501   4.835   1.276  15.959 -0.0633  0.3908 -0.8273
   7923SM   H7F10502   4.860   1.233  15.859 -1.1484 -3.9976  0.5615
   7923SM   H7G10503   4.807   1.383  15.958 -0.4483  0.2916 -1.8310
   7923SM   C8F10504   4.721   1.191  16.006 -0.1118 -0.3818 -0.3061
   7923SM   H8F10505   4.704   1.202  16.116  1.1277  1.1853 -0.2442
   7923SM   H8G10506   4.741   1.087  15.974 -1.9738 -0.6968 -0.5721
   7923SM   C9F10507   4.593   1.237  15.934 -0.2532 -0.1690 -0.6092
   7923SM   H9F10508   4.522   1.152  15.942 -1.0942  0.6525  1.1777
   7923SM   H9G10509   4.610   1.249  15.824 -4.4639  0.2252 -1.3886
   7923SM  C10F10510   4.521   1.364  15.985  0.3613 -0.0806 -0.9973
   7923SM  H10F10511   4.543   1.371  16.094  1.6669 -0.1914 -1.2308
   7923SM  H10G10512   4.411   1.351  15.984  0.1727  1.1448  0.1508
   7923SM  C11F10513   4.554   1.507  15.920  0.9075 -0.1230  0.2513
   7923SM  H11F10514   4.662   1.529  15.911  1.0172 -1.3579 -2.8772
   7923SM  H11G10515   4.497   1.572  15.989 -1.6879 -2.4239  0.4601
   7923SM  C12F10516   4.488   1.508  15.785  0.3793  0.4001 -0.0948
   7923SM  H12F10517   4.531   1.438  15.710  2.5439 -0.3469  1.7183
   7923SM  H12G10518   4.515   1.607  15.742 -0.6206  0.4957 -0.5274
   7923SM  C13F10519   4.334   1.521  15.794  0.1935  0.3546  0.8855
   7923SM  H13F10520   4.311   1.591  15.878  0.9123  2.2799 -0.4679
   7923SM  H13G10521   4.293   1.423  15.829  1.1037  0.5400  2.5779
   7923SM  C14F10522   4.265   1.563  15.668  0.7190  0.6488  1.1837
   7923SM  H14F10523   4.300   1.506  15.579 -0.9521  3.2007 -1.2974
   7923SM  H14G10524   4.287   1.670  15.647  0.8167  0.5681  0.8648
   7923SM  C15F10525   4.111   1.547  15.664  0.3495  0.3395  0.2175
   7923SM  H15F10526   4.066   1.598  15.751  2.1122  0.6052  1.0266
   7923SM  H15G10527   4.090   1.438  15.660  0.9372  0.2465 -1.6615
   7923SM  C16F10528   4.064   1.593  15.526  1.0580  0.4149 -0.2438
   7923SM  H16F10529   4.138   1.555  15.453 -0.0064 -1.1580 -0.5482
   7923SM  H16G10530   4.082   1.702  15.518  2.4439  0.3302  1.2429
   7923SM  C17F10531   3.918   1.572  15.491 -0.2848  0.4093  0.0449
   7923SM  H17F10532   3.859   1.631  15.564  0.7876  3.2528 -1.2498
   7923SM  H17G10533   3.902   1.462  15.497  0.4613 -0.0159 -3.5347
   7923SM  C18F10534   3.891   1.623  15.350 -0.1144 -0.2582  0.1562
   7923SM  H18F10535   3.950   1.562  15.278 -0.2701 -0.9024  0.5666
   7923SM  H18G10536   3.928   1.727  15.334 -0.2851 -0.4137 -1.3821
   7923SM  C19F10537   3.741   1.628  15.311 -0.1027 -0.3092 -0.2434
   7923SM  H19F10538   3.702   1.524  15.311  1.3998 -0.9045  0.6566
   7923SM  H19G10539   3.733   1.668  15.208  0.8194  0.8542  0.1167
   7923SM  C20F10540   3.654   1.718  15.407 -0.3366  0.4201 -0.0823
   7923SM  H20F10541   3.706   1.815  15.418 -1.0131  0.6007  1.9136
   7923SM  H20G10542   3.659   1.675  15.509  0.6246  1.5039  0.3403
   7923SM  C21F10543   3.500   1.744  15.378 -0.3550 -0.4594  0.3660
   7923SM  H21F10544   3.477   1.811  15.464 -2.5174 -1.0220  0.2849
   7923SM  H21G10545   3.447   1.647  15.376  0.9755 -1.2005 -0.6110
   7923SM  C22F10546   3.475   1.820  15.250 -0.4486 -0.4179 -0.1755
   7923SM  H22F10547   3.509   1.753  15.168 -0.4753  0.9320 -1.3131
   7923SM  H22G10548   3.529   1.917  15.251 -1.1815 -0.0077  0.6412
   7923SM  C23F10549   3.330   1.847  15.230  0.1553  0.0858  1.2205
   7923SM  H23F10550   3.300   1.946  15.270 -0.8033  0.5582 -0.5486
   7923SM  H23G10551   3.275   1.764  15.279  1.6019 -0.7379  1.4951
   7923SM  H23H10552   3.319   1.866  15.121 -3.4190  1.1623  1.6311
   8023SM     N10553   7.963   1.230  17.396 -0.3583 -0.0687  0.2264
   8023SM   C1510554   8.065   1.301  17.481 -0.3704  0.3623  1.1856
   8023SM  H15A10555   8.053   1.407  17.470 -0.8906  0.2568  0.6599
   8023SM  H15B10556   8.161   1.278  17.439 -1.3650 -0.5034 -0.7436
   8023SM  H15C10557   8.052   1.272  17.585  0.0344 -1.7046  0.7121
   8023SM   C1410558   7.951   1.085  17.434 -0.4657  0.0427 -0.0703
   8023SM  H14A10559   8.046   1.034  17.426 -0.9275 -0.6365 -1.6522
   8023SM  H14B10560   7.883   1.031  17.370  0.3780  0.6106 -1.4987
   8023SM  H14C10561   7.917   1.075  17.536 -1.4447  3.2514  0.0183
   8023SM   C1310562   7.829   1.301  17.424  0.2831  0.5069  0.4009
   8023SM  H13A10563   7.786   1.285  17.522  0.1421 -2.1613 -0.0327
   8023SM  H13B10564   7.751   1.256  17.365  0.2975 -0.3881  1.0435
   8023SM  H13C10565   7.838   1.408  17.413  1.0253  0.5806  1.5713
   8023SM   C1210566   7.998   1.248  17.250  0.1601  0.0154  0.2085
   8023SM  H12A10567   8.103   1.236  17.227  0.7878 -1.3414  3.2500
   8023SM  H12B10568   7.982   1.353  17.231  2.1691  0.5313  1.1768
   8023SM   C1110569   7.906   1.170  17.144  0.0677 -0.0318 -0.3679
   8023SM  H11A10570   7.902   1.061  17.166 -2.0805 -0.5227 -2.7236
   8023SM  H11B10571   7.960   1.166  17.047  1.0293 -1.1026  0.1861
   8023SM     P10572   7.751   1.364  17.054 -0.5901  0.6794 -0.0558
   8023SM   O1310573   7.608   1.390  17.050  0.2044  0.0875 -0.1672
   8023SM   O1410574   7.841   1.461  17.123 -0.1993  0.5493 -0.2103
   8023SM   O1110575   7.804   1.338  16.904 -0.0063 -0.1716  0.3400
   8023SM   O1210576   7.774   1.223  17.130  0.3293  0.6938 -0.6739
   8023SM   C1S10577   7.842   1.449  16.827 -0.1152  0.1260  0.4409
   8023SM   H1S10578   7.945   1.476  16.856  0.2685  1.4967 -1.9119
   8023SM   H1T10579   7.770   1.532  16.845 -0.9489 -0.6437  0.7580
   8023SM    NF10580   7.899   1.534  16.608 -0.0455  0.2170  0.3031
   8023SM   HNF10581   7.844   1.613  16.583  0.5122  0.4560 -0.1787
   8023SM   C2S10582   7.832   1.424  16.675 -0.0377 -0.3584  0.8251
   8023SM   H2S10583   7.898   1.341  16.642  2.9108  1.6233  1.3856
   8023SM   C3S10584   7.680   1.413  16.648  0.1048 -0.0281  0.2165
   8023SM   H3S10585   7.644   1.498  16.709 -0.5402 -0.4968  0.4996
   8023SM    O310586   7.618   1.303  16.715  0.0419 -0.4306  0.4031
   8023SM   HO310587   7.688   1.262  16.766  1.1844  1.4252  0.4155
   8023SM   C4S10588   7.641   1.441  16.504  0.0456 -0.4876 -0.0206
   8023SM   H4S10589   7.675   1.367  16.429 -0.7344 -0.8246 -0.0540
   8023SM   C5S10590   7.565   1.545  16.458  0.0609 -0.4292  0.1389
   8023SM   H5S10591   7.535   1.617  16.535  1.2202 -0.5179  0.7021
   8023SM   C6S10592   7.514   1.577  16.318 -0.0608 -0.4214  0.1055
   8023SM   H6S10593   7.572   1.658  16.269 -0.3607 -0.4956 -0.3744
   8023SM   H6T10594   7.410   1.617  16.321  0.2068  0.2309  1.6611
   8023SM   C7S10595   7.531   1.452  16.220  0.8912  0.4626 -0.1378
   8023SM   H7S10596   7.482   1.359  16.257 -2.0611  0.8178 -2.7399
   8023SM   H7T10597   7.641   1.435  16.213  0.7417 -1.8425  1.6660
   8023SM   C8S10598   7.473   1.485  16.080 -0.2233 -0.3849 -0.1776
   8023SM   H8S10599   7.491   1.393  16.019 -0.3561 -2.2262  2.3863
   8023SM   H8T10600   7.529   1.571  16.039  1.8032 -1.3014  0.5365
   8023SM   C9S10601   7.323   1.525  16.071  0.4896 -0.9083 -0.3135
   8023SM   H9S10602   7.303   1.603  16.147 -0.5469 -1.1204 -0.3550
   8023SM   H9T10603   7.265   1.438  16.110  0.5955  0.6446  3.7702
   8023SM  C10S10604   7.283   1.586  15.939 -0.3749  0.2491 -0.8751
   8023SM  H10S10605   7.180   1.628  15.936 -0.5204 -0.1055 -0.8917
   8023SM  H10T10606   7.282   1.502  15.867 -2.3452 -1.2960  0.8365
   8023SM  C11S10607   7.371   1.698  15.879  0.3857  0.9454 -0.6531
   8023SM  H11S10608   7.468   1.645  15.868 -0.2707 -0.8659  1.4077
   8023SM  H11T10609   7.385   1.785  15.946  1.1337 -0.8923  1.7395
   8023SM  C12S10610   7.325   1.740  15.740  0.5916 -0.1096  0.2049
   8023SM  H12S10611   7.237   1.806  15.757  0.3788 -0.7029  1.4629
   8023SM  H12T10612   7.294   1.646  15.688  0.4929  0.6954 -1.2467
   8023SM  C13S10613   7.436   1.817  15.673 -0.0384  0.1085  0.3621
   8023SM  H13S10614   7.535   1.766  15.670 -0.0942  0.0081 -2.0591
   8023SM  H13T10615   7.458   1.909  15.731 -2.4848  3.2004 -3.1341
   8023SM  C14S10616   7.404   1.858  15.524 -0.4844 -0.0877  0.2549
   8023SM  H14S10617   7.301   1.899  15.517 -0.4347 -0.0805 -0.4755
   8023SM  H14T10618   7.411   1.767  15.460  2.1575 -0.8991  1.5298
   8023SM  C15S10619   7.505   1.966  15.475 -0.1068  0.3482  0.2741
   8023SM  H15S10620   7.601   1.911  15.484 -0.8458 -1.4303 -1.8291
   8023SM  H15T10621   7.502   2.054  15.543 -2.2297  0.2825  0.3239
   8023SM  C16S10622   7.483   1.999  15.326 -0.1622 -0.9485 -0.1992
   8023SM  H16S10623   7.387   2.055  15.315  0.0603 -0.3514  0.8016
   8023SM  H16T10624   7.461   1.905  15.271  1.5670 -0.9991 -0.8381
   8023SM  C17S10625   7.590   2.089  15.264 -0.6568 -0.5718 -0.0947
   8023SM  H17S10626   7.684   2.029  15.271 -0.7704 -0.7590 -0.1474
   8023SM  H17T10627   7.601   2.180  15.326  0.5785 -0.7782  0.0148
   8023SM  C18S10628   7.559   2.123  15.121  0.8705  0.6460  0.4954
   8023SM  H18S10629   7.537   2.032  15.061 -0.8944  1.6114 -0.4109
   8023SM  H18T10630   7.637   2.176  15.063 -1.1831  0.8617 -2.3099
   8023SM  H18U10631   7.476   2.196  15.113  0.8176  0.5066 -0.3472
   8023SM   C1F10632   8.031   1.544  16.607  0.2446  0.1173  0.3544
   8023SM    OF10633   8.107   1.458  16.654 -0.1889  0.2884  0.4800
   8023SM   C2F10634   8.084   1.665  16.537 -0.5747 -0.4929 -0.4488
   8023SM   H2F10635   7.993   1.722  16.506 -0.7041 -1.1301 -1.2816
   8023SM   H2G10636   8.146   1.632  16.451  0.8611 -1.2825  0.8441
   8023SM   C3F10637   8.180   1.759  16.617  1.0566  0.2015  0.0199
   8023SM   H3F10638   8.265   1.703  16.659 -0.8108 -4.2246 -1.5591
   8023SM   H3G10639   8.129   1.816  16.698 -0.3049  2.3378 -2.1723
   8023SM   C4F10640   8.246   1.878  16.543 -0.2279  0.5789  0.6036
   8023SM   H4F10641   8.305   1.940  16.614 -0.3561 -1.7283  2.8390
   8023SM   H4G10642   8.166   1.945  16.502 -1.6552 -1.7751 -0.6999
   8023SM   C5F10643   8.334   1.838  16.426 -0.0278 -0.1044  0.3897
   8023SM   H5F10644   8.281   1.791  16.341  2.0795 -1.8574 -0.0515
   8023SM   H5G10645   8.405   1.763  16.466  0.9334 -0.4241 -1.7741
   8023SM   C6F10646   8.425   1.951  16.376  0.0321  0.5827  0.6509
   8023SM   H6F10647   8.468   1.998  16.467  0.6034 -1.3370  1.4062
   8023SM   H6G10648   8.375   2.027  16.311 -0.6690 -0.4016  0.0144
   8023SM   C7F10649   8.538   1.900  16.285 -0.2765  0.2054  0.1124
   8023SM   H7F10650   8.585   1.806  16.321 -0.6832  0.6678  1.9287
   8023SM   H7G10651   8.613   1.980  16.271  1.7072 -0.9458  3.2051
   8023SM   C8F10652   8.489   1.864  16.144 -0.0153 -0.1458  0.4376
   8023SM   H8F10653   8.444   1.952  16.094 -0.7000 -0.9731 -0.4597
   8023SM   H8G10654   8.409   1.787  16.156 -3.0664  2.7076 -0.0949
   8023SM   C9F10655   8.609   1.815  16.059 -0.4252 -0.4515 -0.2217
   8023SM   H9F10656   8.675   1.747  16.116  1.1514 -0.7794 -2.3275
   8023SM   H9G10657   8.666   1.907  16.030 -0.7149  0.1879  1.1236
   8023SM  C10F10658   8.560   1.755  15.927 -0.7872  0.2512 -0.2573
   8023SM  H10F10659   8.635   1.761  15.845  1.4031  0.5714  1.6732
   8023SM  H10G10660   8.470   1.812  15.894 -1.6053 -0.3685  0.8545
   8023SM  C11F10661   8.518   1.608  15.939  0.1762 -0.0799 -0.3949
   8023SM  H11F10662   8.448   1.596  16.025  0.0888 -1.0808 -0.5931
   8023SM  H11G10663   8.612   1.553  15.965  0.5157  0.7837  0.2842
   8023SM  C12F10664   8.447   1.551  15.813  0.1735 -0.5208  0.0390
   8023SM  H12F10665   8.413   1.450  15.844 -0.1594  0.0458  1.6142
   8023SM  H12G10666   8.509   1.542  15.721 -1.2219  3.5589 -1.4948
   8023SM  C13F10667   8.320   1.631  15.772  0.3704  0.1734  0.0642
   8023SM  H13F10668   8.342   1.733  15.733  0.8518  0.2189  0.4502
   8023SM  H13G10669   8.262   1.657  15.863 -1.1184  0.7508 -0.9928
   8023SM  C14F10670   8.219   1.548  15.695  0.3032  0.4862 -0.8285
   8023SM  H14F10671   8.122   1.601  15.704  0.5134  0.6468  0.8676
   8023SM  H14G10672   8.204   1.450  15.745  0.2709 -0.1187 -1.9965
   8023SM  C15F10673   8.261   1.507  15.551  0.5783 -0.3733 -0.0006
   8023SM  H15F10674   8.171   1.462  15.503  0.1501  0.7840 -0.3266
   8023SM  H15G10675   8.339   1.429  15.561  3.3327  1.5828 -3.8516
   8023SM  C16F10676   8.325   1.626  15.474 -0.7696 -0.2630  0.7476
   8023SM  H16F10677   8.429   1.638  15.512 -0.3383 -1.3039 -0.0602
   8023SM  H16G10678   8.271   1.723  15.486  1.4357  0.9179  1.6272
   8023SM  C17F10679   8.335   1.605  15.318  0.0417  0.4402  0.6657
   8023SM  H17F10680   8.232   1.617  15.281 -0.1215 -2.0390  0.1405
   8023SM  H17G10681   8.376   1.502  15.304  0.6974  0.9685 -1.5998
   8023SM  C18F10682   8.432   1.701  15.257 -0.0401 -0.7633  0.0606
   8023SM  H18F10683   8.530   1.686  15.306  1.3294  0.4467 -2.0856
   8023SM  H18G10684   8.387   1.803  15.259 -0.2842 -0.8549 -0.5671
   8023SM  C19F10685   8.458   1.672  15.108 -0.0133 -0.8032  0.6979
   8023SM  H19F10686   8.379   1.720  15.046  1.6164  2.3671  0.8369
   8023SM  H19G10687   8.460   1.566  15.077  2.3394 -0.6237 -0.0288
   8023SM  C20F10688   8.597   1.742  15.057  0.0948  0.0230 -0.8036
   8023SM  H20F10689   8.613   1.711  14.951 -1.2904  0.2512 -1.1065
   8023SM  H20G10690   8.679   1.710  15.124  0.7214  3.9282  0.5950
   8023SM  C21F10691   8.589   1.897  15.056 -0.6957 -0.2059 -0.3349
   8023SM  H21F10692   8.558   1.941  15.153  1.1944  0.3044  0.0852
   8023SM  H21G10693   8.505   1.909  14.984 -0.8279 -1.9785 -0.5201
   8023SM  C22F10694   8.718   1.959  14.991 -0.0452 -0.1585  1.0903
   8023SM  H22F10695   8.745   1.908  14.896 -1.0779  0.1876  0.5963
   8023SM  H22G10696   8.799   1.962  15.066  0.3936  0.9593  0.5847
   8023SM  C23F10697   8.684   2.106  14.963  0.2367 -0.2267 -0.6220
   8023SM  H23F10698   8.757   2.146  14.890 -0.7485  0.9023 -1.0145
   8023SM  H23G10699   8.695   2.166  15.056  0.5466 -1.8996  0.4629
   8023SM  H23H10700   8.584   2.112  14.915  0.3364  1.4107 -0.6901
   8123SM     N10701   3.447   4.530  13.014  0.0421  0.4819 -0.1245
   8123SM   C1510702   3.578   4.605  13.005  0.5759 -0.1490 -0.3594
   8123SM  H15A10703   3.655   4.549  12.955  0.1044 -1.0957 -0.0443
   8123SM  H15B10704   3.612   4.638  13.102 -0.1229 -1.8896  0.5267
   8123SM  H15C10705   3.556   4.694  12.947 -3.5688 -2.6087 -3.1276
   8123SM   C1410706   3.343   4.629  13.050  0.1232 -0.7106  0.2876
   8123SM  H14A10707   3.355   4.716  12.987 -1.6498 -0.6879 -0.0613
   8123SM  H14B10708   3.340   4.665  13.152 -1.6947 -1.7719  0.6352
   8123SM  H14C10709   3.246   4.592  13.023  0.5714 -2.0284  0.4402
   8123SM   C1310710   3.416   4.463  12.882 -0.5228  0.2947  0.3026
   8123SM  H13A10711   3.406   4.538  12.805  2.5751 -0.1429 -0.6369
   8123SM  H13B10712   3.317   4.420  12.890 -0.4833 -0.3538 -1.9991
   8123SM  H13C10713   3.490   4.390  12.854  0.8289  1.7544 -0.1110
   8123SM   C1210714   3.464   4.423  13.121  0.2014  0.5642  0.2639
   8123SM  H12A10715   3.555   4.367  13.110 -1.0467 -1.1937 -2.0169
   8123SM  H12B10716   3.395   4.342  13.105  0.5652  0.0743  1.0986
   8123SM   C1110717   3.442   4.455  13.269  0.3690  0.8110  0.1728
   8123SM  H11A10718   3.438   4.362  13.330 -3.8901  0.3257 -0.5135
   8123SM  H11B10719   3.344   4.506  13.270  1.1587  2.5037  2.7667
   8123SM     P10720   3.678   4.483  13.372  0.2721  0.3824  0.3044
   8123SM   O1310721   3.665   4.334  13.365  0.1089 -0.2515  0.2354
   8123SM   O1410722   3.800   4.529  13.297 -0.4318 -0.0103 -0.2136
   8123SM   O1110723   3.690   4.528  13.529  0.1615 -0.5210  0.5451
   8123SM   O1210724   3.544   4.547  13.309  0.2142  0.7924 -0.3957
   8123SM   C1S10725   3.572   4.596  13.578  0.3638  0.3965 -0.4405
   8123SM   H1S10726   3.481   4.542  13.544  1.4650 -0.1799 -2.6032
   8123SM   H1T10727   3.564   4.701  13.541 -0.4912 -0.2634 -2.2312
   8123SM    NF10728   3.466   4.694  13.784 -0.0187 -0.3010 -0.1738
   8123SM   HNF10729   3.479   4.786  13.818 -0.2390 -0.7396  1.1422
   8123SM   C2S10730   3.587   4.617  13.737 -0.1044 -0.5715  0.4832
   8123SM   H2S10731   3.591   4.518  13.788 -0.2270  0.1067  1.8503
   8123SM   C3S10732   3.721   4.695  13.761 -0.3549  0.4097 -0.9814
   8123SM   H3S10733   3.709   4.790  13.705 -2.0107 -0.0098 -1.3843
   8123SM    O310734   3.842   4.630  13.723 -0.1605  0.1224  0.3714
   8123SM   HO310735   3.807   4.574  13.653 -0.7761 -0.7573  1.3603
   8123SM   C4S10736   3.726   4.738  13.905  0.1102 -0.0106 -0.2951
   8123SM   H4S10737   3.671   4.829  13.930 -1.1974 -1.0313  0.7010
   8123SM   C5S10738   3.807   4.691  14.006 -0.1140 -0.6760 -0.6044
   8123SM   H5S10739   3.873   4.609  13.975  0.9511  0.5985 -1.8349
   8123SM   C6S10740   3.816   4.725  14.153 -0.1040  0.1485  1.2745
   8123SM   H6S10741   3.912   4.696  14.200  0.0016 -0.9846  0.4013
   8123SM   H6T10742   3.746   4.658  14.207  0.6489 -0.5873  1.3545
   8123SM   C7S10743   3.771   4.874  14.185  0.0550  0.1555 -0.0868
   8123SM   H7S10744   3.663   4.876  14.156 -0.8467  2.2257  2.9169
   8123SM   H7T10745   3.822   4.948  14.121  0.3382 -0.1922 -0.2656
   8123SM   C8S10746   3.769   4.912  14.339  0.3149 -0.4950 -0.2154
   8123SM   H8S10747   3.696   4.840  14.381  0.5457 -1.5983 -1.6584
   8123SM   H8T10748   3.716   5.010  14.343 -2.5436 -1.9748  0.5195
   8123SM   C9S10749   3.894   4.920  14.413 -0.2802 -0.3961 -0.8045
   8123SM   H9S10750   3.945   5.010  14.371 -3.1947  0.5567 -2.5284
   8123SM   H9T10751   3.956   4.828  14.409 -0.3744 -0.6060  1.2678
   8123SM  C10S10752   3.862   4.950  14.563  0.4773 -0.3091  0.4124
   8123SM  H10S10753   3.947   4.920  14.628  0.8702 -0.5848 -0.2154
   8123SM  H10T10754   3.770   4.898  14.596 -0.6470  0.6596 -1.0536
   8123SM  C11S10755   3.836   5.098  14.593 -0.0209 -0.6527  0.0736
   8123SM  H11S10756   3.755   5.135  14.527  0.3719 -1.2138 -0.7430
   8123SM  H11T10757   3.925   5.155  14.559 -0.8956  0.3316 -0.6275
   8123SM  C12S10758   3.833   5.131  14.743  0.4496  0.4319  0.4560
   8123SM  H12S10759   3.825   5.242  14.744  0.1570  0.4180  1.4395
   8123SM  H12T10760   3.925   5.100  14.797 -0.1006 -2.3276 -0.0441
   8123SM  C13S10761   3.720   5.056  14.816  0.0554 -0.2014 -0.3148
   8123SM  H13S10762   3.769   4.970  14.866  0.9121 -0.3541 -1.3769
   8123SM  H13T10763   3.639   5.037  14.742  0.7879 -2.3071 -0.6286
   8123SM  C14S10764   3.654   5.137  14.926 -0.3451 -0.3548  0.6062
   8123SM  H14S10765   3.596   5.221  14.883  0.9921 -0.2960 -1.2243
   8123SM  H14T10766   3.732   5.187  14.987 -0.7784  0.2858  0.6429
   8123SM  C15S10767   3.581   5.042  15.017  0.0953 -0.2469 -0.2190
   8123SM  H15S10768   3.641   4.952  15.040 -1.0592 -0.7606  0.8971
   8123SM  H15T10769   3.491   5.011  14.960  1.1070 -2.0487 -0.9156
   8123SM  C16S10770   3.532   5.117  15.142 -0.8470  0.4570 -0.3441
   8123SM  H16S10771   3.504   5.219  15.110  0.3493  0.7598 -0.4759
   8123SM  H16T10772   3.617   5.127  15.213  0.6473 -1.8536 -1.6714
   8123SM  C17S10773   3.408   5.050  15.199  1.0699  0.6342 -0.6661
   8123SM  H17S10774   3.333   5.014  15.125  0.2403  1.4074 -0.2205
   8123SM  H17T10775   3.351   5.124  15.259  0.4415  0.5171 -1.0937
   8123SM  C18S10776   3.443   4.931  15.291  0.2798 -1.1111  0.2317
   8123SM  H18S10777   3.518   4.964  15.366  1.6971 -1.9316 -0.7600
   8123SM  H18T10778   3.489   4.856  15.222  0.4834 -1.2334  0.5025
   8123SM  H18U10779   3.352   4.887  15.337 -0.6297  1.0258  0.5526
   8123SM   C1F10780   3.341   4.650  13.778  0.2357 -0.4789  0.3341
   8123SM    OF10781   3.319   4.540  13.755 -0.8771 -0.5630 -0.2179
   8123SM   C2F10782   3.229   4.749  13.798  0.1373  0.1355 -0.1275
   8123SM   H2F10783   3.165   4.727  13.710  0.9714 -0.7300 -0.5368
   8123SM   H2G10784   3.271   4.852  13.804 -2.1340  1.0428  3.1490
   8123SM   C3F10785   3.160   4.726  13.936 -0.0030 -0.2889  0.0266
   8123SM   H3F10786   3.146   4.621  13.968  0.0495  0.1453  1.5801
   8123SM   H3G10787   3.058   4.769  13.929  0.3162  0.2158 -2.4838
   8123SM   C4F10788   3.250   4.792  14.047  0.5426  0.2371  0.5005
   8123SM   H4F10789   3.229   4.900  14.032 -1.7468 -0.5608 -3.5455
   8123SM   H4G10790   3.358   4.773  14.026  0.6123  1.6402 -0.5836
   8123SM   C5F10791   3.209   4.756  14.187 -0.7612 -0.2622  0.0214
   8123SM   H5F10792   3.228   4.648  14.202 -0.2781  0.2038  3.9974
   8123SM   H5G10793   3.102   4.779  14.205 -0.7693 -0.5706  0.3750
   8123SM   C6F10794   3.283   4.840  14.290  0.2418 -0.4305 -0.2904
   8123SM   H6F10795   3.245   4.945  14.288  1.1389 -0.1016 -1.1412
   8123SM   H6G10796   3.394   4.848  14.279  0.5007 -0.8306  1.7005
   8123SM   C7F10797   3.236   4.784  14.430 -0.4738 -0.6235  0.7809
   8123SM   H7F10798   3.241   4.673  14.434 -0.4144 -0.6103  3.6867
   8123SM   H7G10799   3.127   4.805  14.438 -0.4024  0.1950 -0.2807
   8123SM   C8F10800   3.317   4.847  14.550  0.4271 -0.3122 -0.0930
   8123SM   H8F10801   3.293   4.955  14.543  2.1850 -0.0138 -2.4561
   8123SM   H8G10802   3.425   4.838  14.526  0.1730 -0.3378 -1.2960
   8123SM   C9F10803   3.285   4.772  14.681  0.7378  0.9427 -0.0901
   8123SM   H9F10804   3.324   4.668  14.681  2.1564  1.4547  0.3115
   8123SM   H9G10805   3.175   4.770  14.696  0.3775  1.1731 -2.3728
   8123SM  C10F10806   3.338   4.850  14.807 -0.7804 -0.2105  0.5250
   8123SM  H10F10807   3.299   4.953  14.820 -0.4532 -0.1759  1.2978
   8123SM  H10G10808   3.447   4.862  14.791 -0.5638 -0.1254  1.9393
   8123SM  C11F10809   3.319   4.772  14.939 -0.1875 -0.3393 -0.0246
   8123SM  H11F10810   3.382   4.821  15.017  1.8055 -1.5678 -0.7982
   8123SM  H11G10811   3.373   4.678  14.916  2.5678  0.7219  1.5991
   8123SM  C12F10812   3.176   4.747  14.979  0.6621 -0.0166  0.0752
   8123SM  H12F10813   3.130   4.679  14.905  0.4968 -1.0592  1.1153
   8123SM  H12G10814   3.128   4.848  14.973  1.2319  0.3641  1.5018
   8123SM  C13F10815   3.154   4.679  15.118 -1.4107  0.2000  0.3085
   8123SM  H13F10816   3.217   4.718  15.201 -1.6433  3.0540 -0.7587
   8123SM  H13G10817   3.178   4.570  15.112 -0.8795  0.3350 -0.0385
   8123SM  C14F10818   3.013   4.701  15.163 -0.0184 -0.5363 -0.0934
   8123SM  H14F10819   2.941   4.679  15.082  1.5064 -2.1674 -1.0664
   8123SM  H14G10820   3.013   4.805  15.202 -1.6798 -0.7645  0.5911
   8123SM  C15F10821   2.985   4.617  15.293 -0.5261  0.2540 -0.1207
   8123SM  H15F10822   3.063   4.653  15.364 -1.4949 -0.6836  1.4844
   8123SM  H15G10823   3.012   4.512  15.272 -1.2492  0.3849 -1.8788
   8123SM  C16F10824   2.842   4.627  15.347  0.1102 -0.4419 -0.0569
   8123SM  H16F10825   2.771   4.596  15.267  0.3679  1.1667 -0.9511
   8123SM  H16G10826   2.812   4.730  15.374  1.1190  0.2949 -1.5727
   8123SM  C17F10827   2.826   4.533  15.469  0.1105 -0.1309  0.7571
   8123SM  H17F10828   2.898   4.558  15.550 -0.2143  0.3623  0.9000
   8123SM  H17G10829   2.838   4.425  15.450 -3.3679 -0.2163 -1.7546
   8123SM  C18F10830   2.680   4.537  15.518 -0.6515  0.3169 -0.3941
   8123SM  H18F10831   2.602   4.536  15.439 -0.2300 -0.9776 -0.8096
   8123SM  H18G10832   2.671   4.639  15.563  1.6874  0.2840  0.3187
   8123SM  C19F10833   2.642   4.434  15.630 -0.4343  0.0505  0.3827
   8123SM  H19F10834   2.725   4.428  15.704  0.1809  0.0852 -0.2908
   8123SM  H19G10835   2.639   4.334  15.581 -2.1040  0.0889  0.3400
   8123SM  C20F10836   2.505   4.462  15.682 -0.3669  0.4556  0.8130
   8123SM  H20F10837   2.440   4.467  15.592 -0.4803  1.0345  0.9248
   8123SM  H20G10838   2.506   4.559  15.736 -1.6608  0.4014  0.9716
   8123SM  C21F10839   2.461   4.355  15.778 -0.1194  0.1310  0.1888
   8123SM  H21F10840   2.352   4.371  15.794  0.3662  1.5388  2.6261
   8123SM  H21G10841   2.497   4.366  15.882  0.1709  3.6555 -0.1624
   8123SM  C22F10842   2.488   4.214  15.734 -0.0815  0.1574 -0.7279
   8123SM  H22F10843   2.597   4.200  15.719  0.2877  0.2596  1.5463
   8123SM  H22G10844   2.422   4.185  15.649  0.0739 -2.7572  0.0619
   8123SM  C23F10845   2.441   4.129  15.851  0.2741 -0.6201 -0.0945
   8123SM  H23F10846   2.493   4.156  15.946  0.5367  1.3845 -0.7710
   8123SM  H23G10847   2.454   4.019  15.840  0.7323 -0.5590 -0.1995
   8123SM  H23H10848   2.334   4.153  15.870  0.5578  0.4118  0.2370
   8223SM     N10849   2.445   5.207  13.017  0.4770  0.4697  0.3343
   8223SM   C1510850   2.389   5.342  12.978 -0.2031  0.2956  0.6609
   8223SM  H15A10851   2.378   5.400  13.068 -1.9935  0.2469  0.4998
   8223SM  H15B10852   2.292   5.326  12.934 -0.0458  0.3164  0.3015
   8223SM  H15C10853   2.443   5.401  12.905 -1.5313  0.3106 -0.3403
   8223SM   C1410854   2.366   5.105  12.941 -0.8247  0.0788  0.3566
   8223SM  H14A10855   2.357   5.127  12.835  2.8452 -0.7217 -0.2561
   8223SM  H14B10856   2.265   5.091  12.978  0.2001 -2.2992  2.5473
   8223SM  H14C10857   2.413   5.008  12.945  1.0946  0.8779 -1.2437
   8223SM   C1310858   2.586   5.196  12.982  0.2234 -0.1235  0.0694
   8223SM  H13A10859   2.593   5.242  12.885 -0.7031  0.5356  0.3007
   8223SM  H13B10860   2.633   5.099  12.980 -0.4000 -0.4230 -2.2180
   8223SM  H13C10861   2.636   5.264  13.049 -0.8149 -0.3360  1.1029
   8223SM   C1210862   2.424   5.180  13.167 -0.6047 -1.0160  0.0069
   8223SM  H12A10863   2.460   5.081  13.192  2.2988  0.4533  2.3850
   8223SM  H12B10864   2.320   5.192  13.193 -0.7570  0.5051 -1.1916
   8223SM   C1110865   2.506   5.265  13.272  0.0094 -1.0466 -0.2313
   8223SM  H11A10866   2.613   5.242  13.252 -0.1649 -0.5943 -1.8004
   8223SM  H11B10867   2.485   5.234  13.376 -0.1026  1.3389  0.5230
   8223SM     P10868   2.594   5.511  13.253 -0.2767  0.4287  0.0300
   8223SM   O1310869   2.688   5.468  13.147 -0.3344  0.1993  0.4134
   8223SM   O1410870   2.543   5.648  13.242  0.7924  0.1119 -0.6159
   8223SM   O1110871   2.659   5.479  13.391 -0.4428 -0.0232 -0.2972
   8223SM   O1210872   2.478   5.404  13.258  0.0052  0.2347 -0.0007
   8223SM   C1S10873   2.605   5.535  13.517  0.1011 -0.6904 -0.1978
   8223SM   H1S10874   2.494   5.536  13.516  0.0958 -0.4685  0.2624
   8223SM   H1T10875   2.644   5.638  13.527 -0.5222  0.0011 -3.7946
   8223SM    NF10876   2.584   5.482  13.760 -0.3386  0.2153  0.9149
   8223SM   HNF10877   2.638   5.525  13.832  1.3581  2.3028 -1.4631
   8223SM   C2S10878   2.655   5.447  13.639  0.2640  0.2726  0.3723
   8223SM   H2S10879   2.620   5.344  13.613 -0.1344  1.0015 -2.2466
   8223SM   C3S10880   2.810   5.454  13.641 -1.2694  0.4600  1.1809
   8223SM   H3S10881   2.853   5.556  13.656 -0.2635  0.7976 -2.8678
   8223SM    O310882   2.869   5.398  13.522 -0.4332 -0.8179 -0.1719
   8223SM   HO310883   2.801   5.421  13.458 -0.2872  0.2558  0.0356
   8223SM   C4S10884   2.866   5.366  13.754  0.7604 -0.2832 -1.0082
   8223SM   H4S10885   2.838   5.259  13.753  3.0565 -0.9375 -1.2745
   8223SM   C5S10886   2.944   5.412  13.857  0.6244 -0.0926 -0.1516
   8223SM   H5S10887   2.972   5.518  13.863 -1.6684  0.5062  1.2359
   8223SM   C6S10888   3.015   5.339  13.972 -0.4246  0.1504 -0.0739
   8223SM   H6S10889   3.007   5.388  14.072  1.5444  0.6408 -0.1056
   8223SM   H6T10890   3.126   5.338  13.959 -0.2271 -0.9384  1.4274
   8223SM   C7S10891   2.968   5.193  13.992 -0.1269  0.5045  1.0725
   8223SM   H7S10892   3.012   5.141  13.904 -1.0429  0.1830  0.7996
   8223SM   H7T10893   2.860   5.187  13.970  0.0977  1.7061 -0.4383
   8223SM   C8S10894   3.010   5.111  14.117 -0.2313 -1.0249  0.6500
   8223SM   H8S10895   3.119   5.093  14.110 -0.1193  0.0837 -1.0484
   8223SM   H8T10896   2.958   5.013  14.107 -2.2387  0.0032  0.5040
   8223SM   C9S10897   2.962   5.177  14.240  0.8382  0.2524 -0.6716
   8223SM   H9S10898   2.862   5.220  14.221  0.4665  0.3041  1.2382
   8223SM   H9T10899   3.024   5.267  14.258  0.1040  0.7255 -0.4774
   8223SM  C10S10900   2.955   5.087  14.370  0.0155 -0.2360 -0.3684
   8223SM  H10S10901   3.048   5.033  14.395 -0.9990 -2.1032 -0.4507
   8223SM  H10T10902   2.872   5.017  14.345 -0.9569  0.6625  0.2391
   8223SM  C11S10903   2.917   5.167  14.501  0.6045 -0.0173  0.8413
   8223SM  H11S10904   2.813   5.199  14.477  1.7644  2.6634 -1.0485
   8223SM  H11T10905   2.982   5.257  14.507 -0.7007  0.9974  0.2781
   8223SM  C12S10906   2.914   5.083  14.624  0.3160 -0.2104 -0.3541
   8223SM  H12S10907   3.020   5.054  14.638  0.0910 -0.8437  0.1309
   8223SM  H12T10908   2.850   4.992  14.614  0.8636 -0.3767 -3.0054
   8223SM  C13S10909   2.864   5.167  14.747 -0.2553 -0.0914 -0.4013
   8223SM  H13S10910   2.764   5.212  14.730 -1.7678 -2.4294  1.6249
   8223SM  H13T10911   2.941   5.241  14.776 -0.7876 -0.0811  1.0394
   8223SM  C14S10912   2.858   5.073  14.876  0.0637 -0.2520  0.1467
   8223SM  H14S10913   2.955   5.019  14.879 -0.0246 -0.3718  1.3968
   8223SM  H14T10914   2.778   5.000  14.850  0.1194 -0.9670  1.8144
   8223SM  C15S10915   2.838   5.148  15.006  0.2929 -0.0357 -0.3142
   8223SM  H15S10916   2.742   5.203  14.991 -0.3636 -1.2763 -0.7962
   8223SM  H15T10917   2.921   5.219  15.028  0.9923 -1.3827  1.6827
   8223SM  C16S10918   2.808   5.055  15.128 -0.0856 -0.0191  0.0722
   8223SM  H16S10919   2.897   4.992  15.147  0.9165  0.5678 -2.2969
   8223SM  H16T10920   2.727   4.994  15.082  2.3774 -2.7593 -0.9339
   8223SM  C17S10921   2.776   5.134  15.255 -0.3059  0.0587  0.5646
   8223SM  H17S10922   2.758   5.053  15.328 -3.6597 -1.7360 -1.9897
   8223SM  H17T10923   2.681   5.191  15.244 -0.9757 -0.8484  1.4781
   8223SM  C18S10924   2.881   5.228  15.315  0.5417  0.3718  0.1467
   8223SM  H18S10925   2.851   5.276  15.410  0.0286  2.8518 -1.1944
   8223SM  H18T10926   2.887   5.316  15.248  3.2795 -1.0567 -1.7087
   8223SM  H18U10927   2.982   5.183  15.327  0.2706  0.0423  1.2403
   8223SM   C1F10928   2.454   5.454  13.767  0.2278 -0.0365 -0.3168
   8223SM    OF10929   2.404   5.390  13.674  0.2636 -0.4856 -0.0702
   8223SM   C2F10930   2.383   5.499  13.882 -0.0207 -0.5511 -0.5208
   8223SM   H2F10931   2.430   5.592  13.920  2.8842 -1.8998 -0.5359
   8223SM   H2G10932   2.391   5.427  13.967  0.6462  1.2747  1.0399
   8223SM   C3F10933   2.235   5.516  13.873  0.8461 -0.3995 -0.0980
   8223SM   H3F10934   2.175   5.437  13.824  0.3260 -0.2667  0.3173
   8223SM   H3G10935   2.231   5.611  13.816  2.8951  1.5858  2.7750
   8223SM   C4F10936   2.172   5.563  14.006 -0.6228 -0.2557  0.2099
   8223SM   H4F10937   2.078   5.616  13.980 -1.0982 -1.3842 -0.4459
   8223SM   H4G10938   2.247   5.633  14.048 -0.1428  0.4246 -1.6579
   8223SM   C5F10939   2.140   5.453  14.099 -0.4539 -1.0457 -0.4318
   8223SM   H5F10940   2.222   5.417  14.165  2.3996  2.1221 -1.8894
   8223SM   H5G10941   2.117   5.366  14.033  1.5492 -0.5739 -1.8563
   8223SM   C6F10942   2.026   5.486  14.187 -0.4597  0.2245 -0.6538
   8223SM   H6F10943   1.999   5.391  14.238 -0.9230  1.4848  1.5774
   8223SM   H6G10944   1.937   5.513  14.126 -0.4284  0.6060 -0.5335
   8223SM   C7F10945   2.061   5.582  14.309 -0.3840 -0.0022 -0.0243
   8223SM   H7F10946   1.966   5.618  14.354 -1.1348 -2.5490  0.6473
   8223SM   H7G10947   2.136   5.660  14.287  0.6411 -0.8769  0.2861
   8223SM   C8F10948   2.119   5.505  14.423 -0.3282 -0.7574 -1.0857
   8223SM   H8F10949   2.221   5.464  14.409  0.5233 -1.1550  4.2891
   8223SM   H8G10950   2.053   5.421  14.455  0.4921 -0.5482  1.3672
   8223SM   C9F10951   2.139   5.596  14.547 -0.1937 -0.0254 -0.4644
   8223SM   H9F10952   2.044   5.642  14.583  0.6812  1.3391  0.1414
   8223SM   H9G10953   2.209   5.675  14.513  0.5776 -0.5547 -0.1374
   8223SM  C10F10954   2.204   5.511  14.655  0.6582 -0.0078  0.0275
   8223SM  H10F10955   2.236   5.583  14.733  0.5850  1.4333 -1.2345
   8223SM  H10G10956   2.292   5.456  14.614 -0.2545 -1.8289  0.3714
   8223SM  C11F10957   2.124   5.408  14.732  0.2714 -0.1253  0.1165
   8223SM  H11F10958   2.071   5.337  14.665  0.0916  1.4008 -1.4410
   8223SM  H11G10959   2.060   5.472  14.795  1.0601  2.2867 -1.3612
   8223SM  C12F10960   2.210   5.313  14.816 -0.1826 -0.3834 -0.7163
   8223SM  H12F10961   2.257   5.244  14.743 -1.0545 -0.8123 -0.8765
   8223SM  H12G10962   2.145   5.246  14.877 -0.2623  0.4289  0.1198
   8223SM  C13F10963   2.305   5.380  14.912  0.1400 -0.5312 -0.3826
   8223SM  H13F10964   2.237   5.423  14.989 -1.0571 -1.9438 -0.6103
   8223SM  H13G10965   2.368   5.454  14.858  0.0644 -1.1710 -1.3769
   8223SM  C14F10966   2.393   5.281  14.988  0.8698  0.1065 -0.4587
   8223SM  H14F10967   2.485   5.263  14.928  1.3230 -1.4976  0.6654
   8223SM  H14G10968   2.339   5.184  14.995  2.2338 -0.5973  0.6866
   8223SM  C15F10969   2.433   5.342  15.126  0.3360 -0.3310  0.9027
   8223SM  H15F10970   2.455   5.449  15.110 -1.5040 -0.1001 -0.4615
   8223SM  H15G10971   2.536   5.310  15.151 -0.3640 -0.6683  3.8346
   8223SM  C16F10972   2.345   5.303  15.243 -0.1506 -0.2110  0.1191
   8223SM  H16F10973   2.242   5.306  15.202  0.4284  0.8433 -1.3370
   8223SM  H16G10974   2.367   5.376  15.324  3.2218  0.0666 -0.9286
   8223SM  C17F10975   2.389   5.158  15.297 -0.1991 -0.8534 -0.0231
   8223SM  H17F10976   2.484   5.164  15.355 -0.0818  1.5734 -0.3460
   8223SM  H17G10977   2.405   5.083  15.216 -0.2723 -1.7351  0.7688
   8223SM  C18F10978   2.287   5.103  15.393 -0.2544 -0.2791  0.0505
   8223SM  H18F10979   2.194   5.068  15.343  0.0752 -0.3064 -0.5469
   8223SM  H18G10980   2.256   5.174  15.474  0.1433  2.0748 -1.7651
   8223SM  C19F10981   2.348   4.980  15.477 -0.1726 -0.1852 -0.5698
   8223SM  H19F10982   2.436   5.009  15.539 -0.2913  0.0424 -0.5073
   8223SM  H19G10983   2.398   4.916  15.401  2.5528 -1.2788  1.9634
   8223SM  C20F10984   2.247   4.903  15.564 -0.0913 -0.5635 -0.3737
   8223SM  H20F10985   2.165   4.875  15.494 -1.2287  3.0707 -0.6898
   8223SM  H20G10986   2.194   4.971  15.635 -1.1984 -1.0862 -0.6716
   8223SM  C21F10987   2.304   4.781  15.623  0.0790 -0.5527  0.1621
   8223SM  H21F10988   2.395   4.790  15.686  2.5878 -1.2207 -3.0860
   8223SM  H21G10989   2.344   4.719  15.540  0.1662 -0.9299  0.4811
   8223SM  C22F10990   2.208   4.689  15.705  0.5946 -0.6126  0.0039
   8223SM  H22F10991   2.164   4.751  15.786  0.9744 -0.8075  0.3596
   8223SM  H22G10992   2.269   4.615  15.761  0.3435  1.3007  3.0108
   8223SM  C23F10993   2.089   4.619  15.628  0.7116  0.0404 -0.2165
   8223SM  H23F10994   2.025   4.582  15.711  1.7133  1.4448  1.2469
   8223SM  H23G10995   2.125   4.539  15.560  1.0062 -2.2344  2.4202
   8223SM  H23H10996   2.035   4.699  15.573 -0.8806 -1.5725 -1.0876
   8323SM     N10997   3.657   5.150  13.146 -0.3609 -0.0328 -0.4454
   8323SM   C1510998   3.647   5.031  13.060  0.5160  0.3835  0.0796
   8323SM  H15A10999   3.650   4.940  13.118  1.3112 -0.7108 -1.5945
   8323SM  H15B11000   3.719   5.028  12.980  0.3320  1.4903 -0.1433
   8323SM  H15C11001   3.551   5.034  13.009  0.7246  0.6925 -0.3028
   8323SM   C1411002   3.784   5.159  13.215 -0.3924 -0.8107  0.5897
   8323SM  H14A11003   3.875   5.163  13.157 -0.9963  0.6022 -0.2982
   8323SM  H14B11004   3.782   5.074  13.282  0.4239 -1.9880 -0.8169
   8323SM  H14C11005   3.791   5.246  13.279 -0.6841  0.1514 -0.6554
   8323SM   C1311006   3.630   5.268  13.058  0.1924  0.0284  0.1738
   8323SM  H13A11007   3.650   5.364  13.104 -0.1419 -0.5424  1.5567
   8323SM  H13B11008   3.523   5.268  13.040  0.5041  2.2400 -2.3064
   8323SM  H13C11009   3.687   5.267  12.966 -0.8887  2.6261 -0.6178
   8323SM   C1211010   3.536   5.151  13.247  0.0580  0.0538 -0.2088
   8323SM  H12A11011   3.547   5.059  13.302  0.1776 -0.1484 -0.5633
   8323SM  H12B11012   3.444   5.141  13.192  1.4689 -0.0151 -2.7084
   8323SM   C1111013   3.517   5.270  13.346 -0.1120 -0.1612  0.0575
   8323SM  H11A11014   3.612   5.286  13.401 -0.1060  1.9338 -0.4991
   8323SM  H11B11015   3.444   5.252  13.427  0.6206  2.4798  1.4237
   8323SM     P11016   3.532   5.532  13.343  0.1383 -0.1382 -0.2547
   8323SM   O1311017   3.650   5.566  13.264  0.3226 -0.9827 -0.7011
   8323SM   O1411018   3.423   5.626  13.343  0.5054 -0.1578 -0.4069
   8323SM   O1111019   3.565   5.495  13.496 -0.1917  0.2974 -0.2271
   8323SM   O1211020   3.470   5.390  13.282 -0.8672  0.4693  0.1747
   8323SM   C1S11021   3.637   5.600  13.567 -0.6917  0.4151  0.1327
   8323SM   H1S11022   3.579   5.694  13.580  1.1040  1.4241  1.1411
   8323SM   H1T11023   3.734   5.624  13.519  0.9355  0.5398  3.2275
   8323SM    NF11024   3.701   5.662  13.806  0.4425 -0.4564 -0.1173
   8323SM   HNF11025   3.797   5.689  13.811 -0.4751  3.3661  0.3403
   8323SM   C2S11026   3.660   5.557  13.715  0.2184  0.1778  0.3471
   8323SM   H2S11027   3.565   5.510  13.746  0.0489  0.0580 -0.3412
   8323SM   C3S11028   3.760   5.440  13.711 -0.1076  0.1373 -0.1615
   8323SM   H3S11029   3.861   5.472  13.678  0.7129 -1.8258  0.2929
   8323SM    O311030   3.732   5.343  13.609  0.1206  0.3143  0.4379
   8323SM   HO311031   3.645   5.368  13.577  0.6500 -0.6335 -1.9499
   8323SM   C4S11032   3.775   5.375  13.847  0.0777  0.2941  0.9577
   8323SM   H4S11033   3.679   5.338  13.885 -0.0708 -1.1543 -0.7013
   8323SM   C5S11034   3.892   5.345  13.911  0.2426  0.2220  0.8854
   8323SM   H5S11035   3.986   5.372  13.862 -0.0301 -1.9582 -1.0393
   8323SM   C6S11036   3.904   5.272  14.039  0.2443  0.4363 -0.0074
   8323SM   H6S11037   3.954   5.178  14.010 -0.1037  0.4371 -0.6468
   8323SM   H6T11038   3.805   5.243  14.082  0.3052 -1.7461 -1.2031
   8323SM   C7S11039   3.971   5.363  14.145  0.2580  0.2768 -0.1539
   8323SM   H7S11040   3.903   5.452  14.147 -1.1893 -0.7965 -0.0071
   8323SM   H7T11041   4.065   5.406  14.104  0.5077 -0.8736 -0.7993
   8323SM   C8S11042   3.989   5.293  14.283  0.4960  0.6197  0.3225
   8323SM   H8S11043   4.081   5.231  14.286  1.5999  2.2235  1.8692
   8323SM   H8T11044   3.897   5.236  14.306  1.1705 -0.1607  1.1486
   8323SM   C9S11045   4.016   5.398  14.391 -0.1180  0.6501  0.1650
   8323SM   H9S11046   4.092   5.474  14.362 -0.6512  2.2084  2.5879
   8323SM   H9T11047   4.078   5.346  14.467  0.5211  1.7029  0.3987
   8323SM  C10S11048   3.895   5.463  14.470 -0.3099 -0.8153  0.7169
   8323SM  H10S11049   3.832   5.376  14.497 -0.5535 -0.3624  1.6261
   8323SM  H10T11050   3.833   5.531  14.408 -3.3458 -1.3841  2.9164
   8323SM  C11S11051   3.939   5.526  14.603 -0.2542  0.4280 -0.1684
   8323SM  H11S11052   4.007   5.614  14.596 -0.8732  1.0487  1.1268
   8323SM  H11T11053   4.002   5.454  14.658 -3.3311 -0.7635  2.1032
   8323SM  C12S11054   3.826   5.544  14.703 -0.3552 -0.0465  0.2590
   8323SM  H12S11055   3.758   5.456  14.708  0.6172 -1.0142 -2.3239
   8323SM  H12T11056   3.772   5.623  14.647 -0.5120 -0.9188 -0.8507
   8323SM  C13S11057   3.878   5.577  14.845  0.4416 -0.1284  0.9249
   8323SM  H13S11058   3.918   5.679  14.861 -2.2648  0.8113  2.1569
   8323SM  H13T11059   3.952   5.502  14.881  0.9870  0.9771  2.1516
   8323SM  C14S11060   3.761   5.554  14.939 -1.0187 -0.9464 -0.1574
   8323SM  H14S11061   3.721   5.451  14.924 -2.1965 -0.5247 -0.0208
   8323SM  H14T11062   3.676   5.621  14.911  0.8026  1.0408 -1.2407
   8323SM  C15S11063   3.810   5.589  15.081 -0.2836 -0.2024  0.4162
   8323SM  H15S11064   3.842   5.695  15.084 -1.7232  0.3050 -0.7771
   8323SM  H15T11065   3.897   5.522  15.099 -0.5599 -0.5590  0.4422
   8323SM  C16S11066   3.702   5.568  15.187 -0.0194 -0.0465  0.3172
   8323SM  H16S11067   3.654   5.467  15.191 -2.2362  0.9672  1.2073
   8323SM  H16T11068   3.619   5.639  15.167  1.3207  1.5060  0.1212
   8323SM  C17S11069   3.754   5.604  15.326 -0.8402  0.6332  0.8570
   8323SM  H17S11070   3.843   5.539  15.331 -0.5344  0.8312 -1.0459
   8323SM  H17T11071   3.689   5.567  15.408 -1.3927 -0.7748 -0.1656
   8323SM  C18S11072   3.808   5.748  15.347  0.2929  0.4076 -0.2176
   8323SM  H18S11073   3.856   5.763  15.446  0.7183  0.4215 -0.4258
   8323SM  H18T11074   3.725   5.820  15.329 -0.6905 -0.6304 -0.0233
   8323SM  H18U11075   3.889   5.776  15.277  0.2022  1.5611  0.1203
   8323SM   C1F11076   3.609   5.753  13.847 -0.3676  0.5527  0.2212
   8323SM    OF11077   3.491   5.754  13.810  0.3867  0.5344  0.3376
   8323SM   C2F11078   3.658   5.848  13.959 -0.6275 -0.1820  0.5010
   8323SM   H2F11079   3.652   5.951  13.918  2.3200 -0.1108  0.0036
   8323SM   H2G11080   3.766   5.829  13.976 -0.4841  0.5772  0.4534
   8323SM   C3F11081   3.586   5.828  14.087  0.1306  0.2214 -0.4114
   8323SM   H3F11082   3.593   5.719  14.106 -1.0877  0.1800 -0.1566
   8323SM   H3G11083   3.480   5.856  14.074  0.1277  1.0216  1.0915
   8323SM   C4F11084   3.659   5.878  14.210  0.4275 -0.2192  0.0032
   8323SM   H4F11085   3.654   5.989  14.222 -1.5104 -0.4412  1.7918
   8323SM   H4G11086   3.767   5.850  14.213  0.7720  1.0997  0.4668
   8323SM   C5F11087   3.592   5.825  14.335 -0.5123 -0.3875 -0.6607
   8323SM   H5F11088   3.620   5.719  14.356  1.9067  0.7876  3.0288
   8323SM   H5G11089   3.482   5.819  14.322 -0.5623 -0.0714 -0.3950
   8323SM   C6F11090   3.599   5.913  14.460  0.4976 -0.5650 -0.9076
   8323SM   H6F11091   3.532   5.876  14.540  1.4472  1.0903  0.7200
   8323SM   H6G11092   3.579   6.019  14.434 -0.7283 -0.1034  1.6017
   8323SM   C7F11093   3.738   5.920  14.520 -0.4066  0.3318  0.9251
   8323SM   H7F11094   3.805   5.952  14.438 -2.2617  0.3937 -0.6464
   8323SM   H7G11095   3.762   5.813  14.541 -3.1726 -0.5680 -0.0250
   8323SM   C8F11096   3.759   5.996  14.654 -0.0340  1.3286  0.4341
   8323SM   H8F11097   3.691   5.950  14.728 -0.4019 -3.5888 -2.5064
   8323SM   H8G11098   3.739   6.104  14.631 -2.3213  0.9821  0.5508
   8323SM   C9F11099   3.905   5.988  14.708  0.0743 -0.3421 -0.2537
   8323SM   H9F11100   3.939   5.883  14.717 -0.5928 -0.5288  0.1942
   8323SM   H9G11101   3.895   6.033  14.809 -2.3141  1.6063 -1.2730
   8323SM  C10F11102   4.008   6.082  14.633 -0.6601  0.3816  0.2459
   8323SM  H10F11103   4.027   6.049  14.529 -0.9095  2.4477 -0.4990
   8323SM  H10G11104   4.099   6.062  14.692 -2.2707  1.7741  3.4767
   8323SM  C11F11105   3.983   6.231  14.649  0.1553  0.6159 -0.1968
   8323SM  H11F11106   3.965   6.252  14.757  0.3193  1.1077 -0.2653
   8323SM  H11G11107   3.893   6.260  14.591 -0.0097 -1.4504 -1.0852
   8323SM  C12F11108   4.099   6.315  14.601  0.6826 -0.2354 -0.3315
   8323SM  H12F11109   4.121   6.291  14.495  1.5526  0.3007 -0.2813
   8323SM  H12G11110   4.177   6.275  14.670 -1.4132 -2.0253  1.1686
   8323SM  C13F11111   4.083   6.460  14.608  0.3208  0.6951 -0.4873
   8323SM  H13F11112   4.003   6.496  14.541  1.7498  0.0044 -2.6571
   8323SM  H13G11113   4.166   6.508  14.552 -0.9486  0.7024 -2.4364
   8323SM  C14F11114   4.057   6.532  14.745 -0.1849  0.1210 -0.2140
   8323SM  H14F11115   3.960   6.507  14.795 -0.5439  2.6386  0.5254
   8323SM  H14G11116   4.047   6.641  14.727  0.4575  0.3300  0.6406
   8323SM  C15F11117   4.168   6.508  14.846  0.5022 -0.0729 -0.4982
   8323SM  H15F11118   4.270   6.509  14.802  0.5843  0.1121 -0.3091
   8323SM  H15G11119   4.155   6.403  14.880 -0.5518 -0.4182 -1.8954
   8323SM  C16F11120   4.154   6.609  14.961  0.1419 -0.0554  0.6441
   8323SM  H16F11121   4.147   6.708  14.911  3.4197  0.1894  0.4709
   8323SM  H16G11122   4.246   6.603  15.022 -0.5690 -0.0170  1.7440
   8323SM  C17F11123   4.033   6.589  15.053 -0.6677 -0.1560  0.5771
   8323SM  H17F11124   4.046   6.487  15.095  2.5865 -0.0130  0.1955
   8323SM  H17G11125   3.943   6.602  14.989  1.0920  2.4224 -1.5762
   8323SM  C18F11126   4.035   6.685  15.174 -0.0865  0.2419  0.2459
   8323SM  H18F11127   4.024   6.790  15.139 -0.3603  0.9263  2.2477
   8323SM  H18G11128   4.130   6.674  15.230 -0.2711 -0.1075  0.5000
   8323SM  C19F11129   3.913   6.677  15.270  0.6546  0.6354  0.1713
   8323SM  H19F11130   3.825   6.646  15.209  0.9374  0.9747 -0.4197
   8323SM  H19G11131   3.888   6.781  15.297 -1.1511  0.6310 -1.3320
   8323SM  C20F11132   3.939   6.591  15.388 -0.6527  0.5828  0.2420
   8323SM  H20F11133   3.988   6.662  15.459 -0.0147  0.8467 -0.4466
   8323SM  H20G11134   4.014   6.509  15.377 -1.8125 -0.3044 -1.5128
   8323SM  C21F11135   3.804   6.545  15.450  0.4812 -0.7628 -0.0273
   8323SM  H21F11136   3.772   6.458  15.388 -0.5324 -1.4794  1.4514
   8323SM  H21G11137   3.730   6.628  15.459  1.8173  0.2761  1.9531
   8323SM  C22F11138   3.818   6.495  15.595  0.1258  0.0915 -0.4512
   8323SM  H22F11139   3.911   6.435  15.599 -0.1078 -0.4532 -2.3055
   8323SM  H22G11140   3.730   6.433  15.625 -0.3661  1.1754  0.4344
   8323SM  C23F11141   3.825   6.607  15.701 -0.8059 -0.5290 -0.4458
   8323SM  H23F11142   3.921   6.662  15.690 -0.6736 -0.5366  0.5775
   8323SM  H23G11143   3.821   6.567  15.805 -0.3974  2.0101  0.6015
   8323SM  H23H11144   3.736   6.671  15.684 -2.2375 -1.9131  1.3348
   8423SM     N11145   3.727   2.603  13.732  0.0122  0.4070 -0.0099
   8423SM   C1511146   3.776   2.553  13.858 -0.5065  0.6735  0.3474
   8423SM  H15A11147   3.715   2.581  13.943 -1.2211 -1.6701  0.6902
   8423SM  H15B11148   3.877   2.587  13.878 -0.7203  2.0353 -0.7589
   8423SM  H15C11149   3.768   2.445  13.863  0.5689  0.5699  0.1034
   8423SM   C1411150   3.810   2.554  13.624  0.7384 -0.1007 -0.6238
   8423SM  H14A11151   3.813   2.446  13.616  1.5352 -0.2012  0.6442
   8423SM  H14B11152   3.913   2.578  13.644  0.5149  0.8254 -0.5385
   8423SM  H14C11153   3.771   2.581  13.527  0.5477 -1.5962 -0.9876
   8423SM   C1311154   3.593   2.552  13.720 -0.1399  0.1734  0.1424
   8423SM  H13A11155   3.576   2.450  13.752 -1.1441 -0.4814 -2.2434
   8423SM  H13B11156   3.555   2.546  13.619  1.2587 -1.1999 -0.3551
   8423SM  H13C11157   3.526   2.609  13.782 -1.5788 -3.1591  1.9084
   8423SM   C1211158   3.732   2.759  13.722  0.3156  0.4283  0.7063
   8423SM  H12A11159   3.832   2.792  13.744  0.5810  0.6197 -0.6994
   8423SM  H12B11160   3.670   2.796  13.803 -1.9997  0.4109 -0.9466
   8423SM   C1111161   3.683   2.822  13.589 -0.3332  0.2063 -0.1403
   8423SM  H11A11162   3.758   2.799  13.511  2.0391  2.2771  1.3496
   8423SM  H11B11163   3.691   2.932  13.608  0.0092 -0.0855  1.6094
   8423SM     P11164   3.430   2.867  13.586  0.1896  0.1381 -0.3621
   8423SM   O1311165   3.450   3.000  13.523  1.1491 -0.3367 -0.0556
   8423SM   O1411166   3.307   2.798  13.550  0.2469 -0.6511  0.1545
   8423SM   O1111167   3.437   2.878  13.747 -0.1936 -0.0137 -0.1819
   8423SM   O1211168   3.552   2.783  13.550 -0.1392 -0.0276 -0.2812
   8423SM   C1S11169   3.330   2.936  13.822 -0.3019 -0.4583 -0.2556
   8423SM   H1S11170   3.233   2.899  13.783 -0.4392 -1.9324  1.3556
   8423SM   H1T11171   3.335   3.047  13.818 -1.4770 -0.3602  0.5663
   8423SM    NF11172   3.219   2.919  14.043 -0.2918 -0.0260 -0.3161
   8423SM   HNF11173   3.212   3.012  14.080  2.9751  0.4467 -0.5808
   8423SM   C2S11174   3.343   2.890  13.971 -0.5398 -0.4036 -0.1558
   8423SM   H2S11175   3.361   2.781  13.967  1.5510 -0.0784 -1.3215
   8423SM   C3S11176   3.474   2.944  14.034 -1.6009 -0.1471 -0.5443
   8423SM   H3S11177   3.477   3.055  14.025  1.2410 -0.2185 -1.1871
   8423SM    O311178   3.587   2.903  13.965 -0.7400  0.6919  0.1011
   8423SM   HO311179   3.552   2.896  13.876 -0.8480  3.1807 -0.1156
   8423SM   C4S11180   3.486   2.903  14.180 -0.6027 -0.3587  0.6136
   8423SM   H4S11181   3.445   2.971  14.257  0.7989 -1.4780  2.4504
   8423SM   C5S11182   3.554   2.799  14.234  0.3581 -1.1222 -0.0942
   8423SM   H5S11183   3.611   2.734  14.166 -1.4136 -0.7677 -1.9909
   8423SM   C6S11184   3.557   2.770  14.384  0.0546 -0.1136 -0.3613
   8423SM   H6S11185   3.629   2.846  14.422 -0.3901  0.6016 -0.9393
   8423SM   H6T11186   3.606   2.670  14.396 -0.3162 -0.3462 -0.7507
   8423SM   C7S11187   3.420   2.757  14.449 -0.3067  0.5714  0.6628
   8423SM   H7S11188   3.368   2.668  14.408 -0.9425  0.8896  0.7610
   8423SM   H7T11189   3.361   2.849  14.426  2.4591  2.0676 -0.9787
   8423SM   C8S11190   3.423   2.750  14.604  0.6294 -0.1415  0.1528
   8423SM   H8S11191   3.492   2.668  14.632 -0.7661 -1.3557  0.1437
   8423SM   H8T11192   3.324   2.723  14.646  1.2341 -2.2999  0.2688
   8423SM   C9S11193   3.469   2.881  14.681 -1.1449 -0.6651 -0.1094
   8423SM   H9S11194   3.392   2.960  14.666 -0.4165 -0.0307 -0.5405
   8423SM   H9T11195   3.568   2.914  14.643 -0.1466 -3.1759  0.1142
   8423SM  C10S11196   3.481   2.850  14.830  0.6278  0.5817 -0.9355
   8423SM  H10S11197   3.562   2.774  14.844  0.8561  0.7963 -1.0852
   8423SM  H10T11198   3.382   2.812  14.864  0.8744  2.1275  1.7614
   8423SM  C11S11199   3.518   2.973  14.920  0.2108  0.4430  0.5913
   8423SM  H11S11200   3.584   2.938  15.003 -0.8665  0.2425  1.3918
   8423SM  H11T11201   3.419   3.009  14.955 -1.0785 -1.1234 -1.2251
   8423SM  C12S11202   3.592   3.085  14.850 -0.3239  0.2331  0.1967
   8423SM  H12S11203   3.540   3.122  14.759  0.3583  2.2430  0.5963
   8423SM  H12T11204   3.699   3.058  14.837 -0.2048  1.1495 -0.8201
   8423SM  C13S11205   3.593   3.207  14.941 -0.1357 -0.2150 -0.5905
   8423SM  H13S11206   3.613   3.178  15.046  2.0397 -1.0289 -1.1676
   8423SM  H13T11207   3.494   3.258  14.942 -0.2292 -0.1857 -3.3241
   8423SM  C14S11208   3.700   3.306  14.901  0.1603 -0.1528  0.0320
   8423SM  H14S11209   3.673   3.362  14.809  1.3516 -1.3206 -1.0596
   8423SM  H14T11210   3.791   3.248  14.876  0.0416 -0.2137 -0.2556
   8423SM  C15S11211   3.737   3.408  15.011 -0.7727  0.8023  0.7677
   8423SM  H15S11212   3.830   3.460  14.980 -0.1148 -0.9134 -0.2487
   8423SM  H15T11213   3.754   3.347  15.102 -2.4509 -1.7324 -0.4985
   8423SM  C16S11214   3.629   3.520  15.025 -0.4828  0.8212  0.0995
   8423SM  H16S11215   3.548   3.477  15.087  2.2534 -0.8089  2.8002
   8423SM  H16T11216   3.580   3.546  14.928 -2.1068  0.4474  0.7844
   8423SM  C17S11217   3.684   3.632  15.106 -0.3601  0.2289  0.2370
   8423SM  H17S11218   3.749   3.690  15.036 -0.6420  0.6899  0.3511
   8423SM  H17T11219   3.755   3.587  15.179  3.5296  0.0159 -3.2980
   8423SM  C18S11220   3.579   3.710  15.176  0.7580  0.3157  0.1642
   8423SM  H18S11221   3.626   3.791  15.236 -2.8207  2.6320  0.1531
   8423SM  H18T11222   3.523   3.640  15.242  0.4331  0.0128 -0.4316
   8423SM  H18U11223   3.508   3.764  15.110  1.6262 -0.1844 -1.2059
   8423SM   C1F11224   3.112   2.851  14.031  0.2192 -0.3284  0.9295
   8423SM    OF11225   3.113   2.757  13.948  0.2723  0.8384  0.3905
   8423SM   C2F11226   2.990   2.885  14.104 -0.4434 -0.1445 -0.0022
   8423SM   H2F11227   2.917   2.936  14.039 -0.1380 -0.4172 -0.5674
   8423SM   H2G11228   3.014   2.947  14.193  0.5280  0.7409 -0.8452
   8423SM   C3F11229   2.916   2.757  14.148 -0.5649 -1.4098 -0.3525
   8423SM   H3F11230   2.887   2.694  14.061 -2.0640 -0.4469 -0.5870
   8423SM   H3G11231   2.821   2.785  14.198 -0.4190  0.0917 -0.8797
   8423SM   C4F11232   3.000   2.667  14.244 -0.0857 -0.1996 -0.0499
   8423SM   H4F11233   3.087   2.626  14.189  0.8308  0.8766  0.5636
   8423SM   H4G11234   2.921   2.592  14.268 -0.3737 -0.3749 -1.4517
   8423SM   C5F11235   3.057   2.728  14.375  0.3790  0.3972  0.2837
   8423SM   H5F11236   3.141   2.795  14.346 -0.4765  1.1747 -0.4166
   8423SM   H5G11237   3.100   2.644  14.434 -0.9607 -0.5471 -0.0403
   8423SM   C6F11238   2.957   2.808  14.464  0.5488  0.6694  0.2606
   8423SM   H6F11239   2.880   2.737  14.503 -0.4064  0.5759 -1.6625
   8423SM   H6G11240   2.912   2.884  14.396  0.3341 -0.1991 -0.5980
   8423SM   C7F11241   3.034   2.869  14.578  0.0825  0.0949 -0.0431
   8423SM   H7F11242   3.094   2.952  14.534 -0.7969  0.5098 -0.4953
   8423SM   H7G11243   3.116   2.802  14.613  1.1250  0.7339 -1.1378
   8423SM   C8F11244   2.939   2.918  14.687 -0.0371 -0.3293  0.4678
   8423SM   H8F11245   2.871   2.835  14.716 -1.1820  1.6009  3.8669
   8423SM   H8G11246   2.871   3.001  14.658 -0.3686 -0.5616  0.5740
   8423SM   C9F11247   3.040   2.959  14.799  0.0990 -0.3908 -0.3010
   8423SM   H9F11248   3.108   3.040  14.765 -1.5409  1.8492  1.4153
   8423SM   H9G11249   3.092   2.869  14.838 -1.2137  0.2298  3.2535
   8423SM  C10F11250   2.972   3.018  14.924 -0.4706  0.2866  0.4923
   8423SM  H10F11251   2.896   2.948  14.964  0.3502  1.6545  5.1124
   8423SM  H10G11252   2.936   3.118  14.892  0.4202  0.0503 -1.3524
   8423SM  C11F11253   3.061   3.044  15.044 -0.2624 -0.4301  0.0915
   8423SM  H11F11254   3.150   3.099  15.008 -1.7819  2.3152  0.2808
   8423SM  H11G11255   3.089   2.944  15.083 -0.1716 -0.6521 -0.5247
   8423SM  C12F11256   2.994   3.128  15.153 -0.7229 -0.2213  0.0676
   8423SM  H12F11257   2.903   3.071  15.184 -0.0769 -0.4245  1.6498
   8423SM  H12G11258   2.965   3.220  15.097  0.2987 -1.5262 -2.8444
   8423SM  C13F11259   3.083   3.161  15.276 -0.0293  0.3244  0.3341
   8423SM  H13F11260   3.170   3.229  15.261  0.8153 -0.6251  0.7954
   8423SM  H13G11261   3.119   3.058  15.299 -0.9812  0.1828  1.2678
   8423SM  C14F11262   2.998   3.235  15.383 -0.1275  0.1277 -0.3614
   8423SM  H14F11263   2.892   3.210  15.362 -0.8288  2.1697  0.5120
   8423SM  H14G11264   3.009   3.345  15.373  1.1976 -0.0113 -0.5970
   8423SM  C15F11265   3.029   3.195  15.529 -0.6021 -0.1806  0.5603
   8423SM  H15F11266   3.135   3.193  15.561 -0.5588 -0.0485  0.4300
   8423SM  H15G11267   2.994   3.089  15.534  1.1563 -0.7746  0.9819
   8423SM  C16F11268   2.947   3.278  15.627 -0.1374 -0.4948  0.6088
   8423SM  H16F11269   2.933   3.228  15.725 -0.4830  2.5697  2.2480
   8423SM  H16G11270   2.846   3.299  15.587 -0.9015 -0.5399  2.3900
   8423SM  C17F11271   3.012   3.415  15.656 -0.3377  0.1640  0.1905
   8423SM  H17F11272   3.015   3.472  15.561 -0.2358  1.1555  0.7825
   8423SM  H17G11273   3.118   3.404  15.688 -0.0671 -1.3060 -1.0820
   8423SM  C18F11274   2.925   3.488  15.756  0.1866  0.2411  0.0141
   8423SM  H18F11275   2.817   3.475  15.737  0.5891 -1.1071 -1.6549
   8423SM  H18G11276   2.942   3.598  15.756 -0.4133  0.3428  1.5444
   8423SM  C19F11277   2.953   3.455  15.905 -0.1362  0.2280 -0.7066
   8423SM  H19F11278   3.059   3.487  15.915 -1.1818  3.6637  1.0456
   8423SM  H19G11279   2.949   3.347  15.932  0.8224  0.3822  0.0945
   8423SM  C20F11280   2.869   3.541  15.997 -0.4748 -0.6460  0.1968
   8423SM  H20F11281   2.760   3.533  15.974 -0.6355 -0.7154  0.9708
   8423SM  H20G11282   2.893   3.647  15.975  1.0685 -0.9379  0.3864
   8423SM  C21F11283   2.886   3.504  16.149 -0.0587  0.3537 -0.2496
   8423SM  H21F11284   2.988   3.529  16.183  0.4069  0.7304 -1.8093
   8423SM  H21G11285   2.854   3.397  16.151 -0.4745  0.4590 -0.9357
   8423SM  C22F11286   2.802   3.596  16.242 -0.2830 -0.2022 -0.4230
   8423SM  H22F11287   2.703   3.595  16.191 -0.0951 -2.4111 -0.8446
   8423SM  H22G11288   2.829   3.704  16.236  1.4082 -0.4252  1.8939
   8423SM  C23F11289   2.788   3.542  16.385 -0.1289  0.2079  0.2546
   8423SM  H23F11290   2.877   3.546  16.451  0.4990  1.2589 -0.6422
   8423SM  H23G11291   2.762   3.434  16.381  1.6684 -0.1926 -1.7209
   8423SM  H23H11292   2.701   3.589  16.437 -1.1959 -1.2236 -0.1488
   8523SM     N11293   6.386   4.739  13.655  0.1883  0.1919  0.2517
   8523SM   C1511294   6.375   4.640  13.764 -0.3576  0.1209 -0.0266
   8523SM  H15A11295   6.315   4.680  13.845 -2.1063 -0.4297 -0.9872
   8523SM  H15B11296   6.474   4.623  13.802  2.5804  3.5105 -5.0057
   8523SM  H15C11297   6.318   4.555  13.730 -1.4676  0.5171  0.7790
   8523SM   C1411298   6.437   4.672  13.524  0.5184  0.2893 -0.0530
   8523SM  H14A11299   6.377   4.588  13.492  0.1827  0.7605 -0.6839
   8523SM  H14B11300   6.540   4.646  13.546 -0.0922 -0.3547  2.2592
   8523SM  H14C11301   6.419   4.743  13.444 -0.5540 -0.8641 -0.8648
   8523SM   C1311302   6.237   4.781  13.635  0.2373 -0.3143 -0.3130
   8523SM  H13A11303   6.228   4.858  13.560 -2.0866  0.2605  0.4843
   8523SM  H13B11304   6.201   4.818  13.729  0.1932 -3.1768  0.9173
   8523SM  H13C11305   6.177   4.701  13.593 -1.3058  0.8253 -0.3503
   8523SM   C1211306   6.474   4.854  13.690  0.0637 -0.5431 -0.5448
   8523SM  H12A11307   6.469   4.924  13.608 -1.2896 -0.5818 -0.5210
   8523SM  H12B11308   6.579   4.835  13.701 -0.0291 -0.2899  0.9309
   8523SM   C1111309   6.433   4.941  13.810 -0.5511  0.2551 -0.2293
   8523SM  H11A11310   6.511   5.017  13.831  0.2390 -0.5397 -0.2115
   8523SM  H11B11311   6.454   4.872  13.895 -2.3392  0.3123  0.2892
   8523SM     P11312   6.270   5.131  13.733 -0.3647  0.0703 -0.2463
   8523SM   O1311313   6.353   5.136  13.613  0.2865  0.5005  0.3345
   8523SM   O1411314   6.121   5.138  13.716  0.0969  0.5097 -0.2866
   8523SM   O1111315   6.315   5.253  13.833 -0.2322 -0.6271 -0.8075
   8523SM   O1211316   6.303   4.999  13.819 -1.2927 -0.0283  1.2891
   8523SM   C1S11317   6.243   5.273  13.954 -0.2021 -0.0391 -0.1405
   8523SM   H1S11318   6.295   5.210  14.029  0.7899  0.9604  0.0302
   8523SM   H1T11319   6.139   5.232  13.958  0.8476 -2.8461  1.3566
   8523SM    NF11320   6.210   5.413  14.149 -0.0984  0.3191 -0.0268
   8523SM   HNF11321   6.117   5.447  14.165 -0.0717 -0.6359  2.7531
   8523SM   C2S11322   6.260   5.409  14.014  0.3620 -0.5091  0.2523
   8523SM   H2S11323   6.371   5.422  14.019  0.0630  2.4672  0.7560
   8523SM   C3S11324   6.197   5.512  13.916 -0.3987 -0.3583 -0.2987
   8523SM   H3S11325   6.089   5.503  13.938 -1.0510  2.5355 -1.7618
   8523SM    O311326   6.205   5.478  13.777  0.0456 -0.3384  0.6815
   8523SM   HO311327   6.252   5.394  13.782  1.0647  0.1172 -0.5682
   8523SM   C4S11328   6.225   5.654  13.942  1.1316  0.3116  0.1415
   8523SM   H4S11329   6.153   5.698  14.013 -0.3183 -0.4956 -0.7855
   8523SM   C5S11330   6.328   5.730  13.889 -0.0541 -0.5152  0.4178
   8523SM   H5S11331   6.407   5.681  13.830  1.7596  0.1434  2.1761
   8523SM   C6S11332   6.350   5.877  13.917  0.3461  0.1021  0.1495
   8523SM   H6S11333   6.364   5.923  13.817  3.1517 -1.1622 -0.1371
   8523SM   H6T11334   6.450   5.887  13.965  1.0575  0.1221 -1.2940
   8523SM   C7S11335   6.250   5.958  13.998 -0.0133 -0.2572  0.4193
   8523SM   H7S11336   6.237   5.904  14.095 -0.0705 -2.2448 -0.6363
   8523SM   H7T11337   6.162   5.953  13.930 -0.1307 -1.6832  0.6328
   8523SM   C8S11338   6.297   6.101  14.027 -0.2188  0.6547  0.4222
   8523SM   H8S11339   6.298   6.161  13.933 -0.9173 -1.1455 -0.7913
   8523SM   H8T11340   6.394   6.093  14.079 -0.0025 -0.5639 -0.1501
   8523SM   C9S11341   6.206   6.175  14.124  0.4220 -0.4580 -0.2862
   8523SM   H9S11342   6.101   6.154  14.093  0.2302 -1.6140  1.0325
   8523SM   H9T11343   6.208   6.285  14.110 -1.3308  0.0207  2.5274
   8523SM  C10S11344   6.215   6.124  14.268 -0.3349 -0.0688  0.2773
   8523SM  H10S11345   6.315   6.160  14.301 -1.0197  1.6639  0.5866
   8523SM  H10T11346   6.207   6.014  14.280  0.2070 -0.0334  1.0407
   8523SM  C11S11347   6.128   6.195  14.362  1.0000 -0.5139 -0.2971
   8523SM  H11S11348   6.019   6.178  14.349  0.5266  1.7293  0.3089
   8523SM  H11T11349   6.133   6.305  14.347 -1.4488 -0.4420 -0.9352
   8523SM  C12S11350   6.163   6.163  14.511  0.4727 -1.0178 -0.2214
   8523SM  H12S11351   6.259   6.215  14.529 -1.7843  3.1045  1.1664
   8523SM  H12T11352   6.164   6.052  14.522 -0.3325 -0.9861  0.2671
   8523SM  C13S11353   6.069   6.222  14.611  0.2243  0.3872  0.8650
   8523SM  H13S11354   5.979   6.158  14.597  1.2891 -0.5379 -3.1607
   8523SM  H13T11355   6.058   6.331  14.592  0.2235  0.0530 -1.2505
   8523SM  C14S11356   6.133   6.205  14.750  0.0932 -0.7859 -0.0749
   8523SM  H14S11357   6.235   6.248  14.755 -0.1353 -0.1643 -0.6258
   8523SM  H14T11358   6.143   6.095  14.764 -2.0456 -1.0546 -0.3478
   8523SM  C15S11359   6.047   6.262  14.868 -0.1619 -0.2590  0.5925
   8523SM  H15S11360   5.946   6.217  14.870 -0.3893  0.1676 -0.6011
   8523SM  H15T11361   6.019   6.367  14.845 -0.3597  0.1620  2.5866
   8523SM  C16S11362   6.116   6.268  15.001 -0.2559  0.4302  0.4286
   8523SM  H16S11363   6.224   6.280  14.981 -0.6367  1.3637 -1.1826
   8523SM  H16T11364   6.096   6.172  15.055  1.6260  0.0079  0.4208
   8523SM  C17S11365   6.067   6.384  15.098 -0.1231 -0.5924 -0.8899
   8523SM  H17S11366   5.958   6.386  15.078 -0.3890  0.0979  0.5215
   8523SM  H17T11367   6.108   6.484  15.075  0.4771 -0.4337  0.7619
   8523SM  C18S11368   6.082   6.354  15.254  0.3478 -0.1898  0.7913
   8523SM  H18S11369   6.140   6.434  15.305  1.8633 -0.5861 -0.2275
   8523SM  H18T11370   6.135   6.257  15.263 -2.7777 -2.0721  0.4834
   8523SM  H18U11371   5.982   6.345  15.302  0.3169 -2.1127  0.4483
   8523SM   C1F11372   6.262   5.350  14.259  0.3064  0.3773 -0.7933
   8523SM    OF11373   6.380   5.319  14.258 -0.0757 -0.4915 -0.1419
   8523SM   C2F11374   6.180   5.327  14.384 -0.2156 -0.1785  0.1111
   8523SM   H2F11375   6.102   5.250  14.368  0.0805 -0.3826 -0.3641
   8523SM   H2G11376   6.120   5.418  14.405  0.7461  0.1740  1.4764
   8523SM   C3F11377   6.263   5.280  14.511  0.8083 -0.6278  0.2773
   8523SM   H3F11378   6.343   5.357  14.518  1.8998 -1.1536 -3.5549
   8523SM   H3G11379   6.308   5.183  14.482  1.8188 -0.7107  2.0155
   8523SM   C4F11380   6.188   5.255  14.643  0.2430 -0.9667 -0.5063
   8523SM   H4F11381   6.106   5.183  14.621 -0.9635  0.4736 -0.9076
   8523SM   H4G11382   6.130   5.348  14.659 -0.4019 -1.0103 -2.3674
   8523SM   C5F11383   6.271   5.241  14.767  0.0416 -0.5465  0.0017
   8523SM   H5F11384   6.202   5.235  14.854  0.4985  0.0200  0.4076
   8523SM   H5G11385   6.331   5.332  14.789  0.8428 -1.4444  1.6783
   8523SM   C6F11386   6.359   5.111  14.757 -0.0491 -0.3755  0.3139
   8523SM   H6F11387   6.418   5.105  14.851 -0.9026 -1.0329  0.8268
   8523SM   H6G11388   6.425   5.131  14.670 -0.4182 -0.5501 -0.0124
   8523SM   C7F11389   6.289   4.968  14.735  0.7334  0.2213  0.2965
   8523SM   H7F11390   6.239   4.961  14.636 -0.3007  1.1334  0.7287
   8523SM   H7G11391   6.209   4.972  14.812  0.2266  2.0281 -0.2777
   8523SM   C8F11392   6.391   4.855  14.755 -0.4783  0.5419  0.8608
   8523SM   H8F11393   6.470   4.874  14.679 -0.0975  1.8863  1.5520
   8523SM   H8G11394   6.350   4.752  14.744  0.1714  0.4697 -1.3211
   8523SM   C9F11395   6.446   4.848  14.898 -0.1078 -0.3359  0.3217
   8523SM   H9F11396   6.498   4.941  14.929  0.3869 -0.5436  0.1083
   8523SM   H9G11397   6.520   4.765  14.900  0.7738  0.4301  2.3318
   8523SM  C10F11398   6.337   4.824  15.003  0.3054  0.9068 -0.4761
   8523SM  H10F11399   6.275   4.746  14.954  2.4600 -0.1588 -1.6711
   8523SM  H10G11400   6.278   4.915  15.026 -0.6317 -0.1660  1.6419
   8523SM  C11F11401   6.389   4.756  15.136  0.2887 -0.1958  0.2958
   8523SM  H11F11402   6.487   4.801  15.161  1.3339 -0.1626 -3.2805
   8523SM  H11G11403   6.410   4.648  15.121  0.1954 -0.4041  1.5633
   8523SM  C12F11404   6.276   4.763  15.236 -0.4043 -0.2990  0.5841
   8523SM  H12F11405   6.189   4.704  15.200 -0.9685 -0.4174  2.0958
   8523SM  H12G11406   6.259   4.872  15.251  2.6744  0.4464 -0.7417
   8523SM  C13F11407   6.312   4.690  15.372  0.4648  0.1537  0.1503
   8523SM  H13F11408   6.402   4.747  15.402  0.7448  0.0055 -0.4069
   8523SM  H13G11409   6.336   4.582  15.363  0.0654  0.0991 -0.2775
   8523SM  C14F11410   6.205   4.711  15.477 -0.1644  0.1400  0.0213
   8523SM  H14F11411   6.144   4.804  15.468 -0.3013  0.0604  0.1312
   8523SM  H14G11412   6.265   4.717  15.570 -0.5744 -1.5809  0.4248
   8523SM  C15F11413   6.117   4.593  15.502 -0.1553 -0.6020  0.0630
   8523SM  H15F11414   6.168   4.500  15.533 -1.2429 -1.4330 -0.5673
   8523SM  H15G11415   6.068   4.569  15.405 -2.8581 -2.5121  1.7627
   8523SM  C16F11416   5.999   4.623  15.604 -0.5164 -0.0568 -0.2437
   8523SM  H16F11417   5.950   4.720  15.583  1.7940  0.8261 -2.0035
   8523SM  H16G11418   6.040   4.616  15.708  1.8478  3.5495 -0.7693
   8523SM  C17F11419   5.890   4.524  15.571  0.2983 -0.1538  0.5146
   8523SM  H17F11420   5.932   4.436  15.517  2.2865  1.4801 -0.7685
   8523SM  H17G11421   5.815   4.575  15.508  0.7144  0.3250  0.4012
   8523SM  C18F11422   5.817   4.495  15.703 -0.3285  0.0220  0.2676
   8523SM  H18F11423   5.789   4.590  15.754 -1.5658 -0.4642  0.5398
   8523SM  H18G11424   5.886   4.439  15.769 -0.2749 -1.0484 -0.6657
   8523SM  C19F11425   5.699   4.398  15.693 -0.2590 -0.2680  0.7262
   8523SM  H19F11426   5.646   4.396  15.791  1.2714 -1.4886  1.5738
   8523SM  H19G11427   5.734   4.295  15.673 -1.1164 -1.0066  2.7364
   8523SM  C20F11428   5.595   4.446  15.584 -0.6033 -0.2832 -0.3395
   8523SM  H20F11429   5.633   4.457  15.480  0.8401  1.4069  0.3128
   8523SM  H20G11430   5.571   4.551  15.612 -0.6285 -0.5742  0.7432
   8523SM  C21F11431   5.478   4.358  15.562 -0.1588 -0.1543  0.1910
   8523SM  H21F11432   5.401   4.410  15.501 -0.3778 -0.3448  0.3068
   8523SM  H21G11433   5.429   4.339  15.660  1.4406  1.1116  1.2831
   8523SM  C22F11434   5.516   4.224  15.492  0.6326 -0.0999 -0.2543
   8523SM  H22F11435   5.600   4.172  15.543 -0.1058 -0.9689  0.1091
   8523SM  H22G11436   5.542   4.254  15.388 -1.5221 -0.5538 -0.9903
   8523SM  C23F11437   5.397   4.125  15.493 -0.4865  0.1994  0.6701
   8523SM  H23F11438   5.425   4.028  15.446  0.9272  0.3973  1.0587
   8523SM  H23G11439   5.306   4.170  15.449 -1.5083 -0.4343  2.0570
   8523SM  H23H11440   5.362   4.102  15.596 -1.1567 -0.7084  0.2555
   8623SM     N11441   3.612   2.069  14.017  0.3675  0.3373  0.3579
   8623SM   C1511442   3.701   2.151  14.101  0.0074 -0.9648  0.2605
   8623SM  H15A11443   3.653   2.175  14.195  2.9878 -0.7315  1.8410
   8623SM  H15B11444   3.729   2.237  14.042 -2.0914  0.6154  1.4136
   8623SM  H15C11445   3.787   2.097  14.137  0.9178 -0.8608 -1.6428
   8623SM   C1411446   3.612   1.929  14.078  0.1087  0.4166 -0.1945
   8623SM  H14A11447   3.592   1.945  14.183 -1.0097 -0.7960 -0.2047
   8623SM  H14B11448   3.696   1.864  14.064 -0.0686 -0.1532  1.2455
   8623SM  H14C11449   3.529   1.874  14.036 -0.2183  1.7887 -1.4501
   8623SM   C1311450   3.472   2.120  14.020  0.2061 -0.2421  0.0944
   8623SM  H13A11451   3.398   2.060  13.968 -0.2728  0.2987  0.1321
   8623SM  H13B11452   3.483   2.217  13.974  3.4653 -0.9993 -0.9697
   8623SM  H13C11453   3.438   2.130  14.122 -0.2297 -2.1979  0.1702
   8623SM   C1211454   3.661   2.058  13.874 -0.2303 -0.1407 -0.1042
   8623SM  H12A11455   3.599   1.994  13.813  0.3798 -0.2160 -0.6562
   8623SM  H12B11456   3.761   2.018  13.869  0.3374  0.8935  1.9905
   8623SM   C1111457   3.670   2.196  13.796 -0.1302 -0.1755 -0.2411
   8623SM  H11A11458   3.584   2.260  13.824 -1.4162 -1.4968 -1.0480
   8623SM  H11B11459   3.679   2.184  13.686  0.6475  1.2354 -0.3594
   8623SM     P11460   3.932   2.214  13.795  0.0455 -0.0112 -0.3507
   8623SM   O1311461   3.962   2.082  13.850  0.2164  1.0736  0.5081
   8623SM   O1411462   3.946   2.246  13.651 -0.4584  0.4625 -0.2005
   8623SM   O1111463   4.025   2.309  13.874 -0.2050  0.5561 -0.0661
   8623SM   O1211464   3.790   2.263  13.847  0.3260  0.0996  0.2832
   8623SM   C1S11465   4.029   2.305  14.017  0.5536  0.0409  0.2510
   8623SM   H1S11466   4.063   2.203  14.047 -1.9162 -1.3558 -1.4079
   8623SM   H1T11467   3.926   2.325  14.053  0.6552  0.0018  0.5688
   8623SM    NF11468   4.127   2.429  14.211  0.4788  0.3363 -0.0310
   8623SM   HNF11469   4.089   2.510  14.255 -0.7540 -0.0595 -0.3120
   8623SM   C2S11470   4.129   2.417  14.064 -0.1789 -0.0809 -0.5316
   8623SM   H2S11471   4.231   2.386  14.032 -0.0908 -0.9667  0.5163
   8623SM   C3S11472   4.103   2.560  13.993 -0.0043 -0.0212 -0.0014
   8623SM   H3S11473   4.001   2.590  14.025  0.4569 -0.0908  1.6091
   8623SM    O311474   4.097   2.555  13.854 -0.3832 -0.3617  0.2207
   8623SM   HO311475   4.092   2.461  13.833  0.1579 -0.2311 -0.5470
   8623SM   C4S11476   4.202   2.658  14.037 -0.0767 -0.6154 -0.4714
   8623SM   H4S11477   4.302   2.615  14.020 -0.3417 -0.6788 -2.0604
   8623SM   C5S11478   4.193   2.781  14.089  0.5642  0.1872  0.3429
   8623SM   H5S11479   4.097   2.812  14.134 -0.8587 -0.1880 -2.2769
   8623SM   C6S11480   4.299   2.879  14.107 -0.0429  0.1917  1.0505
   8623SM   H6S11481   4.283   2.974  14.052  1.3130  0.1914  0.6180
   8623SM   H6T11482   4.388   2.839  14.054 -0.1113  0.0464  1.0441
   8623SM   C7S11483   4.315   2.899  14.260  0.1944 -0.3257  0.8744
   8623SM   H7S11484   4.349   2.805  14.308  0.7993 -1.9836 -2.4854
   8623SM   H7T11485   4.214   2.925  14.298 -0.9196  1.2645 -2.6917
   8623SM   C8S11486   4.416   3.011  14.291 -0.2501  0.0840  0.4658
   8623SM   H8S11487   4.395   3.100  14.228  1.6375  0.4440  0.2829
   8623SM   H8T11488   4.515   2.978  14.253 -0.7523  0.9930 -1.7591
   8623SM   C9S11489   4.435   3.057  14.436 -0.0068 -0.1487 -0.1954
   8623SM   H9S11490   4.453   2.967  14.500  2.2443 -0.0748 -0.6353
   8623SM   H9T11491   4.339   3.109  14.457  0.0962  0.1340 -0.4208
   8623SM  C10S11492   4.559   3.154  14.454 -0.3644  0.6114  0.0774
   8623SM  H10S11493   4.535   3.244  14.393 -3.3124  0.3188  0.6462
   8623SM  H10T11494   4.650   3.108  14.410 -0.0794 -1.8048  2.9386
   8623SM  C11S11495   4.586   3.184  14.604 -0.3092  0.6595 -0.0595
   8623SM  H11S11496   4.495   3.215  14.661  1.0195  3.3144  0.8244
   8623SM  H11T11497   4.653   3.273  14.614  0.6011 -0.0201  0.0172
   8623SM  C12S11498   4.648   3.071  14.686  0.7681  1.0826 -0.0178
   8623SM  H12S11499   4.751   3.048  14.649  0.8650 -0.5498  1.1933
   8623SM  H12T11500   4.587   2.979  14.694  2.6452 -0.1095  1.1890
   8623SM  C13S11501   4.673   3.118  14.830 -0.4845  0.7721  0.4049
   8623SM  H13S11502   4.576   3.121  14.885 -0.6100  0.8511  0.1825
   8623SM  H13T11503   4.703   3.225  14.827 -0.0832  0.6439 -0.2895
   8623SM  C14S11504   4.777   3.029  14.908 -0.4242 -0.1598  0.8017
   8623SM  H14S11505   4.875   3.014  14.858  0.2097 -1.9349  2.4512
   8623SM  H14T11506   4.749   2.922  14.919  1.4319 -0.7973 -0.2954
   8623SM  C15S11507   4.809   3.082  15.048  0.2973 -0.0896  0.5105
   8623SM  H15S11508   4.709   3.083  15.097  0.7017  0.2867  1.3614
   8623SM  H15T11509   4.837   3.188  15.028  1.2788 -0.2449  1.0045
   8623SM  C16S11510   4.919   3.019  15.125 -0.5200  0.1642 -0.5168
   8623SM  H16S11511   5.012   3.039  15.068 -0.2488  0.7858  0.1297
   8623SM  H16T11512   4.901   2.910  15.136 -1.3948  0.4768  1.6297
   8623SM  C17S11513   4.933   3.083  15.269  0.5247  0.0977 -1.2310
   8623SM  H17S11514   5.001   3.029  15.338 -1.0655  0.3613  0.6251
   8623SM  H17T11515   4.834   3.055  15.311  1.7610 -1.0128  1.1533
   8623SM  C18S11516   4.951   3.232  15.283 -0.1456  0.0257  0.3454
   8623SM  H18S11517   4.865   3.273  15.226 -0.4701 -1.4848 -0.2842
   8623SM  H18T11518   5.050   3.267  15.247 -0.2468  0.1426  0.1771
   8623SM  H18U11519   4.939   3.254  15.391  1.6681 -0.4157  0.6710
   8623SM   C1F11520   4.161   2.322  14.284  0.4666 -0.5505 -0.0411
   8623SM    OF11521   4.246   2.242  14.256  0.5304  0.1212  0.2421
   8623SM   C2F11522   4.086   2.317  14.419  0.1548  0.0350 -0.4263
   8623SM   H2F11523   4.057   2.423  14.435  2.3444  0.4371  1.5171
   8623SM   H2G11524   4.160   2.294  14.498  1.6915  1.8107 -1.2808
   8623SM   C3F11525   3.982   2.203  14.423  0.0602 -0.2239 -0.2606
   8623SM   H3F11526   4.034   2.105  14.415 -1.5738 -1.2130  0.8039
   8623SM   H3G11527   3.915   2.212  14.335  0.9757  1.0835 -0.8672
   8623SM   C4F11528   3.900   2.208  14.554  0.4248  0.0354 -0.0790
   8623SM   H4F11529   3.971   2.234  14.635  0.3238 -2.0170  0.7165
   8623SM   H4G11530   3.861   2.106  14.576 -0.3637 -0.6555 -3.9476
   8623SM   C5F11531   3.796   2.317  14.542  0.4873  0.5648  0.1464
   8623SM   H5F11532   3.755   2.316  14.439 -0.1389 -2.1454  0.3275
   8623SM   H5G11533   3.854   2.411  14.550  0.5149  0.5469  0.1578
   8623SM   C6F11534   3.680   2.285  14.634  0.4649 -0.0307 -1.0548
   8623SM   H6F11535   3.719   2.247  14.731 -1.2072  1.5091  0.3053
   8623SM   H6G11536   3.628   2.199  14.587  1.5146 -1.1654 -0.2087
   8623SM   C7F11537   3.576   2.394  14.669  0.1282 -0.1889  0.1917
   8623SM   H7F11538   3.549   2.444  14.573  1.4763  0.6321  0.2244
   8623SM   H7G11539   3.639   2.467  14.723 -1.5990  1.1429  0.4662
   8623SM   C8F11540   3.451   2.350  14.739  0.6087 -0.0219 -0.6891
   8623SM   H8F11541   3.408   2.440  14.787 -0.0145 -0.3860 -0.5489
   8623SM   H8G11542   3.479   2.286  14.825 -0.1490  0.6682  0.0872
   8623SM   C9F11543   3.354   2.294  14.647  0.6348  0.7602  0.7386
   8623SM   H9F11544   3.389   2.207  14.588  0.2275  1.8741 -1.2547
   8623SM   H9G11545   3.324   2.372  14.574 -0.2274 -0.4702 -0.2727
   8623SM  C10F11546   3.220   2.249  14.710 -0.0745  0.0543 -0.5090
   8623SM  H10F11547   3.146   2.225  14.631  0.0295  1.2339 -0.9901
   8623SM  H10G11548   3.176   2.339  14.759 -1.6301 -0.8081 -0.2813
   8623SM  C11F11549   3.230   2.137  14.811  0.4143  0.1339  0.2888
   8623SM  H11F11550   3.306   2.171  14.885  0.6931  3.0267 -1.2037
   8623SM  H11G11551   3.276   2.051  14.758  0.3873  1.5424 -2.1357
   8623SM  C12F11552   3.093   2.102  14.868 -0.2379 -0.1687 -0.6507
   8623SM  H12F11553   3.053   2.013  14.814 -1.2663  0.2547 -0.5970
   8623SM  H12G11554   3.032   2.194  14.863  0.4840  0.3025 -0.7908
   8623SM  C13F11555   3.105   2.078  15.020 -0.3100  0.2501 -0.4984
   8623SM  H13F11556   3.176   2.154  15.056 -0.4398  0.3340 -0.4201
   8623SM  H13G11557   3.147   1.975  15.027  0.4572  0.5915 -0.0819
   8623SM  C14F11558   2.976   2.093  15.098  0.3909  0.0212  0.0166
   8623SM  H14F11559   2.909   2.013  15.059 -0.0872 -0.2563  1.3482
   8623SM  H14G11560   2.942   2.197  15.078  1.7390  0.3954 -0.4148
   8623SM  C15F11561   3.006   2.073  15.242 -0.3245 -0.1347  0.1239
   8623SM  H15F11562   3.090   2.145  15.257 -1.5282  1.3295  0.0493
   8623SM  H15G11563   3.063   1.980  15.267  1.5271  1.2424  1.3222
   8623SM  C16F11564   2.895   2.119  15.332 -0.1504  0.6316 -0.2369
   8623SM  H16F11565   2.833   2.203  15.295  0.6293  0.3692 -2.2290
   8623SM  H16G11566   2.949   2.165  15.418 -0.7538  0.4677  0.2427
   8623SM  C17F11567   2.792   2.007  15.373  0.4467  0.0514 -0.7112
   8623SM  H17F11568   2.858   1.932  15.422  0.8894  1.7904  1.5625
   8623SM  H17G11569   2.746   1.962  15.283 -0.4618  0.6326 -0.5480
   8623SM  C18F11570   2.682   2.069  15.473  0.1446 -0.7788  0.6092
   8623SM  H18F11571   2.638   2.162  15.431 -1.2817 -1.1655  1.1948
   8623SM  H18G11572   2.722   2.104  15.570 -0.2003  2.9904 -0.4420
   8623SM  C19F11573   2.568   1.972  15.508  0.5984 -0.4706  0.1138
   8623SM  H19F11574   2.622   1.882  15.545  2.6511 -0.9686 -3.6465
   8623SM  H19G11575   2.523   1.923  15.419  0.3294  0.4654 -0.2705
   8623SM  C20F11576   2.479   2.018  15.621 -0.5732  0.1214 -0.6598
   8623SM  H20F11577   2.419   2.108  15.593  1.2272  1.7365  0.3939
   8623SM  H20G11578   2.538   2.045  15.711  0.1550  2.0135 -1.6331
   8623SM  C21F11579   2.370   1.921  15.661  0.4947  0.8451  0.7791
   8623SM  H21F11580   2.411   1.827  15.703 -2.2620 -0.0548  1.6685
   8623SM  H21G11581   2.303   1.900  15.575  1.6646  3.0691 -0.7625
   8623SM  C22F11582   2.295   1.961  15.785 -0.1865  0.6296  0.1697
   8623SM  H22F11583   2.245   2.060  15.772 -0.8370 -0.0136 -2.8679
   8623SM  H22G11584   2.370   1.963  15.867 -0.7468 -0.7508  0.7564
   8623SM  C23F11585   2.180   1.864  15.823  0.9579  0.0310 -0.2542
   8623SM  H23F11586   2.234   1.775  15.861  0.2592  0.0818  0.8953
   8623SM  H23G11587   2.109   1.845  15.739 -0.9624 -2.1928  1.7121
   8623SM  H23H11588   2.118   1.904  15.906  0.5486  1.9695 -1.4188
   8723SM     N11589   4.702   1.578  13.609  0.1990  0.1428 -0.1686
   8723SM   C1511590   4.555   1.585  13.584  0.1030  0.4087 -0.0007
   8723SM  H15A11591   4.503   1.617  13.673 -2.8662  0.3029 -1.6071
   8723SM  H15B11592   4.519   1.491  13.544  1.8841  0.7029 -2.5273
   8723SM  H15C11593   4.536   1.658  13.508  3.3076  1.0342 -0.3715
   8723SM   C1411594   4.721   1.473  13.714 -0.4562  0.4856 -0.2329
   8723SM  H14A11595   4.824   1.466  13.746 -1.3805  2.5096  3.9078
   8723SM  H14B11596   4.687   1.375  13.683 -0.2901  0.2820  0.2038
   8723SM  H14C11597   4.657   1.481  13.801  0.0806 -0.9874  0.3382
   8723SM   C1311598   4.780   1.538  13.490  0.2468  0.6257 -0.3535
   8723SM  H13A11599   4.773   1.603  13.404 -0.7107 -0.6547 -1.2938
   8723SM  H13B11600   4.743   1.447  13.444  0.8304 -0.8444  1.9108
   8723SM  H13C11601   4.883   1.519  13.516 -0.0040 -1.0661 -0.4598
   8723SM   C1211602   4.765   1.714  13.653 -0.1085  0.0248 -0.7641
   8723SM  H12A11603   4.749   1.782  13.571 -0.7574  0.7857 -0.0312
   8723SM  H12B11604   4.873   1.702  13.656  0.0787  1.5708 -0.3659
   8723SM   C1111605   4.717   1.776  13.785 -0.6705 -0.4935  0.8519
   8723SM  H11A11606   4.789   1.852  13.821  0.3750 -0.7767 -0.5734
   8723SM  H11B11607   4.708   1.695  13.861 -1.7618 -1.0771  0.1320
   8723SM     P11608   4.564   1.966  13.688 -0.0827 -0.0875  0.2951
   8723SM   O1311609   4.654   1.981  13.571 -0.8467  0.5478  0.0879
   8723SM   O1411610   4.420   1.976  13.654  0.0407 -1.1265  0.1635
   8723SM   O1111611   4.595   2.076  13.796 -0.5875 -0.2380  0.0927
   8723SM   O1211612   4.588   1.828  13.757  0.5868 -0.3252  0.1908
   8723SM   C1S11613   4.571   2.048  13.936 -0.3278  0.7325 -0.0102
   8723SM   H1S11614   4.650   1.974  13.963 -1.5692 -0.8497 -0.5381
   8723SM   H1T11615   4.472   2.004  13.958  0.6179 -1.6693 -0.1657
   8723SM    NF11616   4.558   2.123  14.168  0.0152 -0.5464  0.2388
   8723SM   HNF11617   4.464   2.142  14.195  0.6022  1.1927  1.1581
   8723SM   C2S11618   4.597   2.164  14.030  0.3781  0.6273 -0.7505
   8723SM   H2S11619   4.707   2.175  14.036  0.8794 -3.4011  0.9728
   8723SM   C3S11620   4.551   2.304  13.982  0.3827 -1.0134  0.6803
   8723SM   H3S11621   4.440   2.297  13.982  0.0796  2.2636  2.1627
   8723SM    O311622   4.610   2.342  13.854  0.8245  0.3931  0.4512
   8723SM   HO311623   4.631   2.252  13.826  1.0284 -0.3074  2.6674
   8723SM   C4S11624   4.594   2.415  14.076  0.1871  0.6047 -0.0565
   8723SM   H4S11625   4.702   2.434  14.081 -0.0143  2.2285 -1.1433
   8723SM   C5S11626   4.509   2.474  14.166  0.1923  0.2615  0.3650
   8723SM   H5S11627   4.410   2.429  14.182  0.3591 -0.3614 -0.2775
   8723SM   C6S11628   4.555   2.570  14.271  0.4874 -0.2967 -0.3629
   8723SM   H6S11629   4.568   2.521  14.370 -2.1082  1.0220  0.7471
   8723SM   H6T11630   4.479   2.648  14.290  1.0706 -0.0311  0.9752
   8723SM   C7S11631   4.700   2.630  14.236  0.6886  0.2660  0.1737
   8723SM   H7S11632   4.699   2.670  14.132  0.9918  0.6218  0.3053
   8723SM   H7T11633   4.769   2.544  14.246  0.1995 -0.2830 -0.9926
   8723SM   C8S11634   4.746   2.742  14.328  0.8360  0.1839  1.0075
   8723SM   H8S11635   4.723   2.726  14.435 -1.7131  0.2511  0.5344
   8723SM   H8T11636   4.689   2.833  14.299 -1.3916 -1.7090 -0.9961
   8723SM   C9S11637   4.892   2.782  14.307  0.1693  0.1152  0.1341
   8723SM   H9S11638   4.905   2.821  14.204 -0.1903  0.2226  0.1259
   8723SM   H9T11639   4.960   2.694  14.304  1.6514  1.1017 -5.1032
   8723SM  C10S11640   4.925   2.892  14.409  0.0183 -0.6563  0.1901
   8723SM  H10S11641   4.897   2.858  14.511 -2.4498 -1.2014 -0.5987
   8723SM  H10T11642   4.860   2.979  14.386  0.7134 -0.7176 -2.3254
   8723SM  C11S11643   5.062   2.945  14.393 -0.1632  0.0166 -0.5245
   8723SM  H11S11644   5.085   2.967  14.287 -2.8884  3.0887 -0.6282
   8723SM  H11T11645   5.138   2.873  14.432  0.4331 -1.6032 -4.2695
   8723SM  C12S11646   5.072   3.082  14.458  0.2702 -0.0080 -0.1430
   8723SM  H12S11647   4.985   3.145  14.428  0.0689  0.5990  1.5872
   8723SM  H12T11648   5.161   3.135  14.417 -0.6217  1.7986  0.1328
   8723SM  C13S11649   5.094   3.076  14.612 -0.6585 -0.2322 -0.3221
   8723SM  H13S11650   5.181   3.007  14.618  0.1825  0.8535  0.3003
   8723SM  H13T11651   5.006   3.036  14.667 -0.3002 -0.6707 -0.0641
   8723SM  C14S11652   5.141   3.205  14.678  0.0691  0.2853 -0.2148
   8723SM  H14S11653   5.057   3.277  14.667 -1.0928 -1.0298 -0.2584
   8723SM  H14T11654   5.232   3.250  14.632  1.5937 -2.1418  0.2560
   8723SM  C15S11655   5.158   3.177  14.826 -0.7821 -0.1031  0.4095
   8723SM  H15S11656   5.236   3.099  14.843 -0.0097  0.0814 -1.9680
   8723SM  H15T11657   5.061   3.141  14.866  0.4273 -2.4873  1.4419
   8723SM  C16S11658   5.189   3.296  14.917  0.4733  0.4829  0.3512
   8723SM  H16S11659   5.088   3.330  14.949  0.4619  2.3782 -1.4636
   8723SM  H16T11660   5.232   3.384  14.864  1.0216  0.9460  1.5412
   8723SM  C17S11661   5.280   3.256  15.034  0.0290 -0.1684  0.0893
   8723SM  H17S11662   5.377   3.222  14.992 -0.7564 -0.4205 -1.5680
   8723SM  H17T11663   5.238   3.169  15.090  0.9662 -1.9230 -1.8090
   8723SM  C18S11664   5.309   3.384  15.120  0.7070  0.0104 -0.6172
   8723SM  H18S11665   5.414   3.383  15.156  0.2152 -1.1999  0.8488
   8723SM  H18T11666   5.232   3.388  15.200 -1.0832 -0.2504 -2.2447
   8723SM  H18U11667   5.305   3.473  15.053 -0.4854 -0.0422 -0.6512
   8723SM   C1F11668   4.625   2.027  14.229 -0.1914  0.1699 -0.7159
   8723SM    OF11669   4.745   2.017  14.210  0.1203  0.0095 -0.1843
   8723SM   C2F11670   4.555   1.932  14.320  0.2247 -0.5983 -0.7226
   8723SM   H2F11671   4.551   1.829  14.280 -0.4901 -0.4548 -1.0342
   8723SM   H2G11672   4.447   1.958  14.322  0.8238  2.2632 -0.5372
   8723SM   C3F11673   4.619   1.925  14.458  0.3479 -0.3783 -1.2430
   8723SM   H3F11674   4.721   1.888  14.431  1.0997  1.8509 -1.6811
   8723SM   H3G11675   4.567   1.850  14.521 -1.5956  0.9361 -1.2167
   8723SM   C4F11676   4.636   2.058  14.534  0.4682 -0.8417  0.0988
   8723SM   H4F11677   4.660   2.142  14.466 -2.3682  0.2157  0.2870
   8723SM   H4G11678   4.717   2.056  14.610  0.3096 -1.6805  0.2646
   8723SM   C5F11679   4.506   2.094  14.603  0.5107  0.0979 -0.2072
   8723SM   H5F11680   4.452   2.004  14.638  0.2430 -0.4479 -1.9003
   8723SM   H5G11681   4.438   2.147  14.532  3.2100  2.2248 -1.3568
   8723SM   C6F11682   4.522   2.192  14.720 -0.5823  0.2492  0.7440
   8723SM   H6F11683   4.605   2.265  14.704  0.0959 -0.0531  2.6199
   8723SM   H6G11684   4.559   2.116  14.792 -0.6103 -1.4603 -0.9601
   8723SM   C7F11685   4.397   2.265  14.761  0.0594 -0.4523 -0.2014
   8723SM   H7F11686   4.321   2.185  14.776 -1.9921  1.5678  0.7568
   8723SM   H7G11687   4.377   2.342  14.683  2.5118  0.0134 -0.4397
   8723SM   C8F11688   4.396   2.345  14.891  1.2313 -0.8258  0.3857
   8723SM   H8F11689   4.296   2.392  14.908  1.6590  0.4241 -0.4236
   8723SM   H8G11690   4.464   2.431  14.879 -0.9258  0.8865 -0.1898
   8723SM   C9F11691   4.458   2.272  15.014 -0.0400  0.3790  0.3489
   8723SM   H9F11692   4.567   2.270  14.995 -0.3159  1.4396 -1.6997
   8723SM   H9G11693   4.418   2.168  15.021  1.6887 -0.5812 -2.4599
   8723SM  C10F11694   4.449   2.353  15.142  0.3928 -0.0225 -0.7686
   8723SM  H10F11695   4.465   2.461  15.122 -3.9117  0.8788 -0.3866
   8723SM  H10G11696   4.531   2.321  15.209 -0.0977 -1.5269 -0.8552
   8723SM  C11F11697   4.320   2.321  15.220 -0.2309 -0.5818  0.2519
   8723SM  H11F11698   4.325   2.215  15.252 -2.0428 -0.5667  0.6658
   8723SM  H11G11699   4.237   2.333  15.148  1.1329  3.5010 -0.9038
   8723SM  C12F11700   4.296   2.423  15.335  0.1384  0.2998 -0.2410
   8723SM  H12F11701   4.285   2.525  15.292  2.4369 -0.2420 -2.3276
   8723SM  H12G11702   4.382   2.432  15.406  1.9011  2.3732 -2.4761
   8723SM  C13F11703   4.160   2.396  15.400  0.5597 -0.0586 -0.8919
   8723SM  H13F11704   4.147   2.292  15.437 -0.5289  0.2734 -0.2802
   8723SM  H13G11705   4.090   2.420  15.317 -0.3352 -0.8776 -0.3932
   8723SM  C14F11706   4.125   2.504  15.512 -0.8502 -0.7143  0.4170
   8723SM  H14F11707   4.016   2.516  15.528 -1.4911 -0.5396 -3.2670
   8723SM  H14G11708   4.167   2.601  15.478  0.5102 -1.0421  1.0723
   8723SM  C15F11709   4.185   2.459  15.646  0.2144  0.5841 -0.5303
   8723SM  H15F11710   4.155   2.531  15.725  0.0885  0.1020 -0.1324
   8723SM  H15G11711   4.296   2.449  15.646  0.2960  1.0791  1.4189
   8723SM  C16F11712   4.135   2.320  15.699 -0.0555  0.3842  0.5864
   8723SM  H16F11713   4.198   2.237  15.659  0.8018  1.0323  0.5770
   8723SM  H16G11714   4.035   2.299  15.657  1.2902 -0.6060 -2.3967
   8723SM  C17F11715   4.143   2.306  15.850 -0.1357  0.3473 -0.7251
   8723SM  H17F11716   4.089   2.390  15.901 -1.1035 -0.0147 -1.1276
   8723SM  H17G11717   4.243   2.316  15.897 -1.2733 -0.3785  2.0682
   8723SM  C18F11718   4.072   2.178  15.897  0.2732 -0.1441  0.3580
   8723SM  H18F11719   4.100   2.085  15.844 -1.2496 -0.2890 -0.2592
   8723SM  H18G11720   3.967   2.201  15.867  1.3529  2.6650 -1.7817
   8723SM  C19F11721   4.081   2.163  16.052  0.3595  0.4879 -0.6680
   8723SM  H19F11722   3.991   2.106  16.085  0.6147 -0.3767 -1.4233
   8723SM  H19G11723   4.063   2.264  16.095 -0.2385 -0.3188  1.0917
   8723SM  C20F11724   4.214   2.114  16.100  0.3267  0.0481  0.0559
   8723SM  H20F11725   4.212   2.112  16.211  1.0811  1.9037  0.1377
   8723SM  H20G11726   4.296   2.187  16.079  0.2472 -0.0433 -0.5808
   8723SM  C21F11727   4.249   1.978  16.047 -0.0226  0.2190  0.3449
   8723SM  H21F11728   4.277   1.970  15.940  0.2772 -1.9232  0.5297
   8723SM  H21G11729   4.161   1.909  16.049  0.2705 -0.1558  0.6685
   8723SM  C22F11730   4.348   1.895  16.125 -0.0820 -0.2883  0.2987
   8723SM  H22F11731   4.446   1.936  16.093  0.0215  1.0451  2.1300
   8723SM  H22G11732   4.330   1.792  16.089 -3.6898  0.3783 -0.1722
   8723SM  C23F11733   4.356   1.913  16.278 -0.4770 -0.3094 -0.3635
   8723SM  H23F11734   4.257   1.895  16.324 -0.8314  2.6426  0.2645
   8723SM  H23G11735   4.375   2.020  16.301  1.1156 -0.4279 -0.9890
   8723SM  H23H11736   4.438   1.853  16.323 -1.0881  0.2751  1.6173
   8823SM     N11737   1.454   3.029  12.840  0.2957  0.3947  0.0007
   8823SM   C1511738   1.320   3.076  12.788 -0.2901  0.1197  0.0406
   8823SM  H15A11739   1.316   3.183  12.775  1.7469  0.0453 -1.5336
   8823SM  H15B11740   1.244   3.051  12.861 -0.9322 -0.2887 -0.7466
   8823SM  H15C11741   1.293   3.024  12.697  0.0396 -2.7086  1.4351
   8823SM   C1411742   1.446   2.876  12.859  0.2039 -0.6378  0.0265
   8823SM  H14A11743   1.440   2.839  12.758  1.9089  0.3835 -0.4782
   8823SM  H14B11744   1.360   2.857  12.922 -0.9483 -0.9322 -1.5710
   8823SM  H14C11745   1.537   2.849  12.910 -0.2559  0.3833  1.4871
   8823SM   C1311746   1.545   3.069  12.730 -0.8021 -0.1877  0.6570
   8823SM  H13A11747   1.639   3.025  12.758 -1.5673 -1.6839  1.0053
   8823SM  H13B11748   1.545   3.176  12.718 -1.1625 -0.4420 -2.1864
   8823SM  H13C11749   1.516   3.023  12.636  2.2136  0.0816 -0.4898
   8823SM   C1211750   1.491   3.107  12.966 -0.4139 -0.5543 -0.2216
   8823SM  H12A11751   1.449   3.206  12.951 -2.0023 -1.0130  0.8744
   8823SM  H12B11752   1.598   3.118  12.973 -0.5244 -0.1234  1.1374
   8823SM   C1111753   1.424   3.077  13.104 -0.5445  0.5914  0.1611
   8823SM  H11A11754   1.486   3.129  13.180 -0.9103  2.5555 -0.8280
   8823SM  H11B11755   1.419   2.969  13.128  0.9190  0.5303  0.2846
   8823SM     P11756   1.247   3.250  13.182  0.2515 -0.0438 -0.1806
   8823SM   O1311757   1.334   3.366  13.142 -0.2798  0.5611  0.4692
   8823SM   O1411758   1.102   3.276  13.166  0.2447  0.1752  0.7052
   8823SM   O1111759   1.262   3.203  13.333  0.3319 -0.5320 -0.3453
   8823SM   O1211760   1.288   3.121  13.106 -0.0664  0.3087  0.7683
   8823SM   C1S11761   1.208   3.076  13.368  0.1357  0.9778 -0.0447
   8823SM   H1S11762   1.289   3.001  13.361 -0.7031  0.1251 -0.8229
   8823SM   H1T11763   1.118   3.039  13.314 -0.0689 -0.1734  1.0523
   8823SM    NF11764   1.108   2.944  13.559 -0.4792  0.6043 -0.6487
   8823SM   HNF11765   1.012   2.951  13.586 -0.4915 -1.2138 -0.0480
   8823SM   C2S11766   1.162   3.069  13.517  1.2399 -0.5810  0.2878
   8823SM   H2S11767   1.252   3.080  13.581  1.9648 -0.6188 -0.7082
   8823SM   C3S11768   1.063   3.186  13.560  0.0966  0.2973 -0.4746
   8823SM   H3S11769   0.971   3.169  13.500  0.4074 -1.0190 -0.6154
   8823SM    O311770   1.096   3.321  13.514  0.4959  0.1162 -0.5233
   8823SM   HO311771   1.170   3.301  13.456 -0.7208  1.1328 -2.5045
   8823SM   C4S11772   1.022   3.182  13.704  0.2443  0.9204 -0.6286
   8823SM   H4S11773   0.934   3.119  13.725 -2.1052  3.9434 -0.6836
   8823SM   C5S11774   1.071   3.258  13.804  0.5687  0.0586  0.4394
   8823SM   H5S11775   1.158   3.324  13.787  0.6629  0.0374  0.8352
   8823SM   C6S11776   1.020   3.267  13.946 -0.1616  0.4115  0.1838
   8823SM   H6S11777   1.098   3.227  14.014 -0.7148 -0.7187  0.1893
   8823SM   H6T11778   0.929   3.204  13.950  1.1299 -1.5726 -0.2378
   8823SM   C7S11779   0.983   3.404  13.978 -0.1918 -0.2114 -0.0453
   8823SM   H7S11780   0.905   3.438  13.906 -1.5577 -0.1684  1.4114
   8823SM   H7T11781   1.071   3.472  13.972  0.0159 -0.5863 -1.6878
   8823SM   C8S11782   0.928   3.413  14.127 -0.8552 -0.1846 -0.7379
   8823SM   H8S11783   0.829   3.362  14.131 -1.0743  0.2737  2.1429
   8823SM   H8T11784   0.916   3.516  14.167  1.0215 -1.1328  2.6152
   8823SM   C9S11785   1.021   3.346  14.232 -0.3424  0.2472 -0.0372
   8823SM   H9S11786   1.126   3.368  14.205 -0.5099  1.4306  0.2073
   8823SM   H9T11787   1.015   3.235  14.237  0.3079  0.2084 -0.0320
   8823SM  C10S11788   0.997   3.402  14.374  0.9390  0.4728 -0.2541
   8823SM  H10S11789   1.001   3.512  14.382 -1.5035  0.6853 -1.2388
   8823SM  H10T11790   1.076   3.366  14.444  0.1523  1.1131  0.9900
   8823SM  C11S11791   0.858   3.370  14.440  0.1965  0.1510 -0.5204
   8823SM  H11S11792   0.821   3.266  14.436  0.2076  0.1549 -0.7727
   8823SM  H11T11793   0.784   3.434  14.387 -1.1663 -0.8268  0.1393
   8823SM  C12S11794   0.858   3.407  14.586 -0.1501  0.8026 -0.3596
   8823SM  H12S11795   0.925   3.493  14.608  1.2156 -0.3830  0.2886
   8823SM  H12T11796   0.899   3.318  14.639  2.2854  0.0819 -3.2274
   8823SM  C13S11797   0.712   3.426  14.638 -0.3059 -0.1486  0.2383
   8823SM  H13S11798   0.653   3.332  14.631 -1.9317  0.6353  2.3720
   8823SM  H13T11799   0.661   3.503  14.576 -0.2172  0.4476  0.8994
   8823SM  C14S11800   0.694   3.478  14.786 -0.1869  0.1512 -0.2174
   8823SM  H14S11801   0.768   3.559  14.804  0.8331 -0.8722  0.3968
   8823SM  H14T11802   0.714   3.400  14.863 -0.8995  2.0998  2.0456
   8823SM  C15S11803   0.549   3.526  14.809 -0.4476  0.2245 -1.0247
   8823SM  H15S11804   0.484   3.442  14.777  0.2219 -0.5614 -0.3596
   8823SM  H15T11805   0.532   3.612  14.740 -2.0101 -0.3642 -1.4244
   8823SM  C16S11806   0.523   3.587  14.941 -0.9479  0.3609 -0.4999
   8823SM  H16S11807   0.477   3.688  14.929 -0.5697  0.4683 -1.0849
   8823SM  H16T11808   0.618   3.617  14.992 -1.8431 -0.5795  1.8732
   8823SM  C17S11809   0.443   3.491  15.035 -0.9333  0.1856 -0.2987
   8823SM  H17S11810   0.480   3.386  15.034 -0.5667  0.2448 -3.6348
   8823SM  H17T11811   0.344   3.490  14.986 -2.1352  0.5520  1.9923
   8823SM  C18S11812   0.438   3.550  15.179  0.9857 -0.8984  0.0147
   8823SM  H18S11813   0.391   3.480  15.252 -2.0981  0.5435 -0.4114
   8823SM  H18T11814   0.377   3.643  15.183  3.1301  0.5215  1.4403
   8823SM  H18U11815   0.539   3.577  15.216  0.0068 -0.1338  2.2763
   8823SM   C1F11816   1.176   2.825  13.559  0.0294  0.4263 -0.0290
   8823SM    OF11817   1.293   2.817  13.526 -0.5064 -0.0138 -0.0836
   8823SM   C2F11818   1.097   2.698  13.602  0.2565 -0.0006 -0.1708
   8823SM   H2F11819   1.139   2.612  13.546 -0.4106 -0.1589 -0.4370
   8823SM   H2G11820   0.991   2.713  13.573 -0.6389 -0.4294  2.5271
   8823SM   C3F11821   1.128   2.675  13.752  0.9751  0.2627  0.3610
   8823SM   H3F11822   1.068   2.752  13.806 -0.5901 -0.6390 -0.0355
   8823SM   H3G11823   1.235   2.693  13.777  0.4112  2.2163  1.6333
   8823SM   C4F11824   1.082   2.538  13.796 -0.7310 -0.0035  0.1404
   8823SM   H4F11825   1.154   2.467  13.750 -0.9713  0.8703 -1.6770
   8823SM   H4G11826   0.983   2.512  13.754 -1.2023 -1.3699  1.9511
   8823SM   C5F11827   1.082   2.513  13.952  0.6313  0.1836 -0.4704
   8823SM   H5F11828   0.994   2.446  13.967  1.4531 -0.6490  0.8781
   8823SM   H5G11829   1.049   2.607  13.999  0.9004  0.9016 -1.6717
   8823SM   C6F11830   1.216   2.464  14.021  0.6900 -0.5233 -0.4637
   8823SM   H6F11831   1.238   2.362  13.983  1.3479 -0.9363  0.9512
   8823SM   H6G11832   1.197   2.460  14.131  0.6619  1.5015 -0.3493
   8823SM   C7F11833   1.341   2.559  14.005  0.0124 -0.1546  0.0650
   8823SM   H7F11834   1.313   2.665  14.019 -1.1274 -0.3606 -0.5397
   8823SM   H7G11835   1.375   2.548  13.900  0.6028 -0.8158  0.3203
   8823SM   C8F11836   1.463   2.528  14.095  0.1006  0.1950 -0.2165
   8823SM   H8F11837   1.552   2.582  14.056  0.3108  0.6338  0.8159
   8823SM   H8G11838   1.482   2.419  14.088 -1.3637 -0.0897 -0.0552
   8823SM   C9F11839   1.434   2.555  14.241  0.0400 -0.0528  0.3122
   8823SM   H9F11840   1.334   2.516  14.269 -0.5535 -0.5858 -2.3256
   8823SM   H9G11841   1.421   2.664  14.251 -0.1414  0.1247 -1.5735
   8823SM  C10F11842   1.538   2.501  14.341  0.7720 -0.5687 -0.4067
   8823SM  H10F11843   1.520   2.559  14.434 -0.4649  0.2851 -1.1594
   8823SM  H10G11844   1.644   2.521  14.316  1.0000  1.0483  1.5370
   8823SM  C11F11845   1.511   2.353  14.365 -0.0312  0.1146  0.5882
   8823SM  H11F11846   1.529   2.296  14.271 -1.4479  2.0925 -0.9791
   8823SM  H11G11847   1.401   2.338  14.370 -0.8497  4.1420 -1.1225
   8823SM  C12F11848   1.583   2.285  14.477 -0.4102 -0.6908  0.1337
   8823SM  H12F11849   1.561   2.327  14.578  1.7331 -0.1945  0.4383
   8823SM  H12G11850   1.686   2.320  14.453 -1.3728 -0.0215 -3.7317
   8823SM  C13F11851   1.578   2.131  14.471 -0.3758  0.0829 -0.4967
   8823SM  H13F11852   1.595   2.109  14.364 -2.4033  0.2353 -0.8860
   8823SM  H13G11853   1.476   2.099  14.502  0.2474 -2.2960 -0.6933
   8823SM  C14F11854   1.681   2.053  14.553 -0.1663  0.0129  0.1076
   8823SM  H14F11855   1.777   2.104  14.532 -0.4313 -0.1460 -1.6276
   8823SM  H14G11856   1.690   1.954  14.504 -0.1623  0.0839 -0.0351
   8823SM  C15F11857   1.654   2.048  14.698  0.6378  0.3326 -0.0320
   8823SM  H15F11858   1.625   2.150  14.731 -2.3528 -0.3720 -0.1425
   8823SM  H15G11859   1.734   2.008  14.763  0.3698 -0.7797 -0.3665
   8823SM  C16F11860   1.526   1.969  14.729 -0.8483  0.5517  0.7585
   8823SM  H16F11861   1.563   1.865  14.742 -1.3798  0.0590 -1.2585
   8823SM  H16G11862   1.456   1.966  14.642 -0.1471  0.6166  0.1804
   8823SM  C17F11863   1.446   2.025  14.845  0.3520  0.1818 -0.2048
   8823SM  H17F11864   1.516   2.036  14.932  0.7264 -2.0022 -0.1814
   8823SM  H17G11865   1.379   1.947  14.887  0.4390  0.2538  0.0716
   8823SM  C18F11866   1.363   2.143  14.811 -0.0767  0.1462  0.4195
   8823SM  H18F11867   1.291   2.111  14.733 -0.8398 -2.8133  2.1703
   8823SM  H18G11868   1.431   2.221  14.771  0.2202 -0.5496 -0.4493
   8823SM  C19F11869   1.301   2.201  14.933  0.4611  0.0123 -0.3066
   8823SM  H19F11870   1.387   2.243  14.990 -2.6102  3.5425  2.2642
   8823SM  H19G11871   1.248   2.129  14.997 -0.8063 -0.2878 -1.6481
   8823SM  C20F11872   1.207   2.323  14.901  1.0547 -0.1901  0.7026
   8823SM  H20F11873   1.139   2.302  14.816  1.1619 -1.1785  0.8494
   8823SM  H20G11874   1.274   2.407  14.873  1.1504  0.1637  1.9557
   8823SM  C21F11875   1.122   2.375  15.020  0.0257  0.3276 -0.0571
   8823SM  H21F11876   1.055   2.292  15.051  2.6703 -1.6505  0.7541
   8823SM  H21G11877   1.061   2.462  14.988  2.7561  2.8255  1.1586
   8823SM  C22F11878   1.199   2.422  15.144 -0.7560  0.2588  0.1726
   8823SM  H22F11879   1.289   2.484  15.123  0.2767 -0.0531  3.1875
   8823SM  H22G11880   1.257   2.335  15.183 -0.9797  0.8836  1.9957
   8823SM  C23F11881   1.103   2.482  15.239 -0.3752  0.0460 -0.1279
   8823SM  H23F11882   1.159   2.515  15.328  0.3876  0.5155 -0.7722
   8823SM  H23G11883   1.029   2.405  15.271 -1.4977  1.6646  1.3110
   8823SM  H23H11884   1.046   2.562  15.188 -0.8232 -0.2495 -0.1054
   8923SM     N11885   5.445   3.076  13.174  0.6261 -0.3972 -0.4936
   8923SM   C1511886   5.293   3.056  13.215  0.2269 -0.2533  0.5888
   8923SM  H15A11887   5.282   2.980  13.292  0.6416 -1.2118 -0.2689
   8923SM  H15B11888   5.225   3.040  13.132 -0.7777  3.2481  0.5695
   8923SM  H15C11889   5.257   3.148  13.258 -0.1277 -1.2044  2.4181
   8923SM   C1411890   5.495   2.952  13.112 -0.5030 -0.0350 -0.2463
   8923SM  H14A11891   5.421   2.920  13.040 -0.4439 -1.0799  0.1515
   8923SM  H14B11892   5.521   2.879  13.187  1.1699  1.4414  0.6868
   8923SM  H14C11893   5.578   2.977  13.048 -1.3414  0.5017 -1.1512
   8923SM   C1311894   5.446   3.201  13.081 -0.4020 -0.0615  0.0644
   8923SM  H13A11895   5.540   3.222  13.032  0.0885  2.7424  2.0023
   8923SM  H13B11896   5.427   3.286  13.144 -0.3678 -0.1416  0.1822
   8923SM  H13C11897   5.373   3.198  13.001  1.0766  1.3689 -1.4385
   8923SM   C1211898   5.530   3.099  13.296  0.3064 -0.8471  0.3008
   8923SM  H12A11899   5.630   3.116  13.258 -0.3051 -2.9447 -2.5613
   8923SM  H12B11900   5.544   3.003  13.344  0.5679 -1.6506 -1.3293
   8923SM   C1111901   5.489   3.213  13.395 -0.1672  0.2704 -0.0722
   8923SM  H11A11902   5.550   3.206  13.488  0.1283  0.9362 -0.2106
   8923SM  H11B11903   5.383   3.189  13.418  0.1786 -0.7738  0.5236
   8923SM     P11904   5.641   3.414  13.340  0.0975 -0.1212 -0.1503
   8923SM   O1311905   5.743   3.309  13.366 -0.6429 -0.0249 -0.0800
   8923SM   O1411906   5.657   3.483  13.214 -0.6354  0.0339  0.3824
   8923SM   O1111907   5.616   3.504  13.468 -0.0227 -0.3090 -0.5560
   8923SM   O1211908   5.500   3.337  13.340  0.1012 -0.0263 -0.1982
   8923SM   C1S11909   5.533   3.483  13.578  0.1449 -0.2598 -0.8593
   8923SM   H1S11910   5.542   3.378  13.612  2.7512  0.0089 -0.5102
   8923SM   H1T11911   5.426   3.499  13.552  0.3585  1.4910 -0.8035
   8923SM    NF11912   5.489   3.519  13.817 -0.0117 -0.1790 -0.5001
   8923SM   HNF11913   5.409   3.575  13.839  0.0015 -0.3623  0.0472
   8923SM   C2S11914   5.571   3.569  13.709 -0.9046  0.1913 -0.0616
   8923SM   H2S11915   5.679   3.553  13.728 -0.7871  0.5727 -0.4073
   8923SM   C3S11916   5.537   3.714  13.669  0.4371  0.2325  0.3797
   8923SM   H3S11917   5.426   3.721  13.674  0.4053 -0.9510  3.2995
   8923SM    O311918   5.567   3.760  13.537  0.2863  0.6108  0.3641
   8923SM   HO311919   5.596   3.680  13.491  1.2915  0.1377  1.7546
   8923SM   C4S11920   5.585   3.813  13.771  0.4393  0.0481  0.0343
   8923SM   H4S11921   5.515   3.827  13.855 -0.3416 -1.2878 -0.3573
   8923SM   C5S11922   5.706   3.877  13.773  0.7599  0.7205  0.4143
   8923SM   H5S11923   5.777   3.868  13.690  0.0985  0.5749 -0.1425
   8923SM   C6S11924   5.759   3.971  13.885  0.8055  0.7654 -0.0543
   8923SM   H6S11925   5.769   4.075  13.847  0.8605  0.4376 -0.9767
   8923SM   H6T11926   5.862   3.945  13.915  0.5800  0.4670  0.4621
   8923SM   C7S11927   5.677   3.965  14.027 -0.0602 -0.4668  0.6315
   8923SM   H7S11928   5.671   3.857  14.052 -2.1130 -0.2304  1.3637
   8923SM   H7T11929   5.573   4.001  14.018 -0.4164 -1.8116 -1.3276
   8923SM   C8S11930   5.758   4.036  14.128 -0.0298 -0.6622 -0.0057
   8923SM   H8S11931   5.779   4.138  14.090 -1.2641 -0.5602 -0.4610
   8923SM   H8T11932   5.854   3.983  14.141 -1.4531 -2.8425  2.7100
   8923SM   C9S11933   5.680   4.050  14.261 -0.6115  0.2022  0.6065
   8923SM   H9S11934   5.671   3.951  14.312 -2.9053  0.3433  0.5745
   8923SM   H9T11935   5.579   4.089  14.239 -1.0876 -2.1649 -1.8916
   8923SM  C10S11936   5.757   4.143  14.354 -0.6738 -0.2797 -0.5032
   8923SM  H10S11937   5.764   4.240  14.301  0.2926 -1.0695 -1.8988
   8923SM  H10T11938   5.862   4.107  14.362 -0.3764  0.9346  2.0582
   8923SM  C11S11939   5.688   4.156  14.488 -0.3140 -0.1512 -0.2073
   8923SM  H11S11940   5.681   4.056  14.535 -2.7144  0.2618  0.4421
   8923SM  H11T11941   5.581   4.176  14.466 -0.5283 -1.4963 -0.4366
   8923SM  C12S11942   5.747   4.255  14.584  0.5535 -0.1627 -0.2489
   8923SM  H12S11943   5.704   4.356  14.567  1.8456  0.9625  2.4791
   8923SM  H12T11944   5.856   4.270  14.565  0.7145  2.4121  2.0922
   8923SM  C13S11945   5.723   4.226  14.736 -0.2526 -0.3129  0.0306
   8923SM  H13S11946   5.779   4.133  14.758 -2.6193 -1.6415  0.6899
   8923SM  H13T11947   5.616   4.200  14.741  0.2077 -2.3467 -0.0881
   8923SM  C14S11948   5.767   4.338  14.834  0.4833 -0.7146  0.8242
   8923SM  H14S11949   5.705   4.425  14.805 -0.2887 -1.4480  0.2672
   8923SM  H14T11950   5.875   4.363  14.820  0.1695 -0.7925 -2.2554
   8923SM  C15S11951   5.736   4.315  14.977  0.3300 -0.3139 -0.4454
   8923SM  H15S11952   5.782   4.222  15.016 -1.2603 -0.7923  0.3780
   8923SM  H15T11953   5.629   4.287  14.973  0.3877 -1.6035  3.0333
   8923SM  C16S11954   5.768   4.431  15.075 -0.1068  0.2654  0.2297
   8923SM  H16S11955   5.738   4.524  15.023 -1.0072 -1.1789 -2.0044
   8923SM  H16T11956   5.877   4.427  15.096 -0.1995 -1.3740  0.5665
   8923SM  C17S11957   5.690   4.439  15.203 -0.2313 -0.1790 -0.0172
   8923SM  H17S11958   5.735   4.518  15.266 -1.5426  0.9372 -0.4185
   8923SM  H17T11959   5.694   4.343  15.259  2.4587 -0.3090 -0.3263
   8923SM  C18S11960   5.541   4.464  15.186 -0.4339 -0.6098 -0.3751
   8923SM  H18S11961   5.521   4.560  15.135  1.1488  1.2649  2.2804
   8923SM  H18T11962   5.481   4.457  15.279 -0.9752 -0.0073 -0.6717
   8923SM  H18U11963   5.491   4.377  15.139  1.0814 -1.8943  0.3007
   8923SM   C1F11964   5.510   3.395  13.862  0.5478 -1.0112  0.7973
   8923SM    OF11965   5.613   3.341  13.840 -0.1884  0.4111 -0.4765
   8923SM   C2F11966   5.394   3.327  13.926  0.0501  0.2179  0.2316
   8923SM   H2F11967   5.317   3.328  13.846  1.9659  0.0754 -1.7159
   8923SM   H2G11968   5.364   3.383  14.017  0.6162  2.3502 -0.8361
   8923SM   C3F11969   5.442   3.188  13.969 -0.2978  0.3536 -0.5548
   8923SM   H3F11970   5.492   3.131  13.887  0.3375  2.0776 -1.4151
   8923SM   H3G11971   5.357   3.123  14.000 -0.6998  0.2912 -1.7392
   8923SM   C4F11972   5.536   3.179  14.087 -0.0903  0.9497 -0.5759
   8923SM   H4F11973   5.629   3.240  14.078  1.1394 -0.5612  1.0893
   8923SM   H4G11974   5.561   3.071  14.096 -0.3401  0.7671 -1.9766
   8923SM   C5F11975   5.464   3.207  14.215  0.6380  0.3827  0.0762
   8923SM   H5F11976   5.387   3.129  14.230 -0.2131  0.5670 -2.8010
   8923SM   H5G11977   5.413   3.305  14.221 -1.3644 -0.6705  1.1625
   8923SM   C6F11978   5.554   3.194  14.343  0.6522 -0.4745 -0.1636
   8923SM   H6F11979   5.654   3.233  14.315 -0.3345  3.2077  0.9597
   8923SM   H6G11980   5.575   3.089  14.376  0.6276  0.1835  2.1272
   8923SM   C7F11981   5.504   3.264  14.465 -0.0128  0.1746  0.4604
   8923SM   H7F11982   5.404   3.219  14.483  0.3152 -0.7208  0.1089
   8923SM   H7G11983   5.482   3.371  14.445  0.0886  0.2061  0.5189
   8923SM   C8F11984   5.592   3.243  14.587 -0.8915 -0.2618 -0.4865
   8923SM   H8F11985   5.697   3.264  14.557 -0.1978  0.4553  2.2173
   8923SM   H8G11986   5.593   3.137  14.620 -0.1567 -0.3170 -0.6658
   8923SM   C9F11987   5.549   3.319  14.713 -0.9703  0.3784 -0.3785
   8923SM   H9F11988   5.461   3.264  14.751 -0.7294  0.5719  0.5081
   8923SM   H9G11989   5.528   3.423  14.680  1.0239  0.8762 -0.2259
   8923SM  C10F11990   5.664   3.323  14.817 -0.4594 -0.4055  0.1270
   8923SM  H10F11991   5.744   3.378  14.762 -0.2594 -1.2177 -0.4152
   8923SM  H10G11992   5.681   3.217  14.846 -1.3530 -0.4016  0.6985
   8923SM  C11F11993   5.633   3.420  14.931 -0.1395  0.3894  0.0761
   8923SM  H11F11994   5.530   3.405  14.968 -0.0860  0.0151  0.0787
   8923SM  H11G11995   5.620   3.528  14.905  1.8217  1.0449  1.5077
   8923SM  C12F11996   5.742   3.423  15.043  0.1153  0.0155  0.7724
   8923SM  H12F11997   5.724   3.513  15.105  0.5801 -0.4907  1.6648
   8923SM  H12G11998   5.835   3.439  14.984 -0.8932 -1.3912 -1.3648
   8923SM  C13F11999   5.743   3.286  15.116 -0.0167  0.5183  0.5169
   8923SM  H13F12000   5.787   3.213  15.045  1.4710  0.7203  1.2083
   8923SM  H13G12001   5.639   3.271  15.152  0.1271  1.1266  1.2105
   8923SM  C14F12002   5.838   3.300  15.241  0.2779 -0.0185  0.6877
   8923SM  H14F12003   5.827   3.207  15.300  4.2807 -1.3732 -0.3787
   8923SM  H14G12004   5.801   3.395  15.286 -0.6727  0.4866 -1.0447
   8923SM  C15F12005   5.978   3.322  15.192 -0.2886  0.2050  0.0750
   8923SM  H15F12006   5.990   3.415  15.133 -0.6656 -0.2057 -0.6691
   8923SM  H15G12007   5.996   3.234  15.126  0.9454  1.8013 -1.8356
   8923SM  C16F12008   6.092   3.342  15.298 -0.0757  0.2469 -0.1284
   8923SM  H16F12009   6.187   3.312  15.249  0.7119  1.2857  0.7225
   8923SM  H16G12010   6.089   3.278  15.388  3.0576  0.0528 -0.0479
   8923SM  C17F12011   6.084   3.483  15.361 -0.7305  0.0245  0.2849
   8923SM  H17F12012   5.987   3.491  15.413 -1.1535  1.9364 -0.7166
   8923SM  H17G12013   6.085   3.562  15.283 -0.9434 -2.0127 -1.8768
   8923SM  C18F12014   6.181   3.502  15.480  0.6091 -0.4095 -0.3107
   8923SM  H18F12015   6.287   3.517  15.449  1.2325  1.7208  2.4645
   8923SM  H18G12016   6.175   3.406  15.537  0.2189 -1.1637 -1.5942
   8923SM  C19F12017   6.129   3.619  15.566 -0.1643 -0.4809  0.5342
   8923SM  H19F12018   6.031   3.595  15.613 -0.9706  1.1624 -0.2341
   8923SM  H19G12019   6.123   3.709  15.501  1.9001 -1.4938 -1.1842
   8923SM  C20F12020   6.224   3.651  15.680 -0.2871  0.3256  0.1967
   8923SM  H20F12021   6.329   3.662  15.647 -0.4157 -1.0441 -0.7625
   8923SM  H20G12022   6.235   3.568  15.753  2.5945 -0.4415 -0.9576
   8923SM  C21F12023   6.190   3.784  15.747 -0.7009 -0.5071 -0.8173
   8923SM  H21F12024   6.080   3.798  15.743 -0.7898 -1.2006 -0.9584
   8923SM  H21G12025   6.223   3.874  15.690 -0.5948  2.3691  3.3454
   8923SM  C22F12026   6.246   3.799  15.892 -0.2154 -0.2599 -0.3884
   8923SM  H22F12027   6.225   3.701  15.941  0.2354  0.0090  0.3611
   8923SM  H22G12028   6.196   3.882  15.945  1.0788  0.4967 -0.3262
   8923SM  C23F12029   6.398   3.818  15.893 -0.9038  0.5220 -0.1146
   8923SM  H23F12030   6.442   3.819  15.995  1.4992  2.0577 -1.0634
   8923SM  H23G12031   6.420   3.917  15.848  1.2156  1.2518  2.3032
   8923SM  H23H12032   6.456   3.732  15.852 -1.5645 -0.1599  0.3540
   9023SM     N12033   4.488   2.544  13.312  0.2936  0.5147 -0.1392
   9023SM   C1512034   4.424   2.436  13.246  0.9588 -0.0720  0.4789
   9023SM  H15A12035   4.485   2.351  13.220  0.2042 -0.4013 -0.2271
   9023SM  H15B12036   4.383   2.464  13.150 -1.6782 -0.8245  1.3074
   9023SM  H15C12037   4.342   2.397  13.304  0.1680  1.7732  0.6756
   9023SM   C1412038   4.599   2.602  13.234 -0.1409 -0.6346  0.6489
   9023SM  H14A12039   4.566   2.636  13.136  2.2736  0.6884  0.2136
   9023SM  H14B12040   4.681   2.534  13.217 -1.5489 -2.0255 -0.9982
   9023SM  H14C12041   4.638   2.692  13.280  1.0417 -0.0778 -1.3070
   9023SM   C1312042   4.390   2.655  13.326  0.0186 -0.5458  0.3639
   9023SM  H13A12043   4.437   2.749  13.352  0.8780 -0.9204  0.1917
   9023SM  H13B12044   4.327   2.647  13.414 -1.5120 -0.5596 -0.6796
   9023SM  H13C12045   4.320   2.672  13.245  1.6321  3.7117 -0.4200
   9023SM   C1212046   4.537   2.498  13.452 -0.0358  0.0686  0.2879
   9023SM  H12A12047   4.600   2.412  13.431 -0.3940  0.0202 -0.6244
   9023SM  H12B12048   4.458   2.475  13.522 -1.3191  0.1234 -1.1141
   9023SM   C1112049   4.626   2.595  13.540 -0.5863 -0.4677 -0.3083
   9023SM  H11A12050   4.710   2.626  13.474 -0.1584 -0.9391  0.0039
   9023SM  H11B12051   4.670   2.540  13.626 -0.6884  0.9128  0.6668
   9023SM     P12052   4.605   2.861  13.566  0.3013  0.3261  0.0311
   9023SM   O1312053   4.646   2.878  13.425  0.2921  0.1496 -0.0894
   9023SM   O1412054   4.501   2.953  13.610  0.3392  0.1829 -0.0077
   9023SM   O1112055   4.723   2.881  13.666 -0.7987  0.3284 -0.6493
   9023SM   O1212056   4.554   2.711  13.594 -0.4122  0.2536  0.6087
   9023SM   C1S12057   4.809   2.993  13.665  0.0587  0.2359 -0.6484
   9023SM   H1S12058   4.748   3.085  13.673  1.1812  1.0678 -1.3753
   9023SM   H1T12059   4.868   2.993  13.571  1.0299  0.2132 -0.0481
   9023SM    NF12060   4.973   3.119  13.809  0.6955  0.1298 -0.4021
   9023SM   HNF12061   5.070   3.123  13.785  1.0949 -0.4264  1.0561
   9023SM   C2S12062   4.909   2.990  13.787 -0.1517  0.1367  0.6075
   9023SM   H2S12063   4.852   2.969  13.880  0.6886 -0.5562  0.9752
   9023SM   C3S12064   5.010   2.870  13.753  0.6297 -0.5984  0.0938
   9023SM   H3S12065   5.056   2.893  13.655 -1.8555  0.2709 -0.9473
   9023SM    O312066   4.948   2.742  13.722 -0.0997 -0.3217 -0.4050
   9023SM   HO312067   4.858   2.768  13.703 -1.0525 -1.6297  1.9678
   9023SM   C4S12068   5.118   2.853  13.860  0.1637  0.0557 -0.2749
   9023SM   H4S12069   5.215   2.900  13.840  0.6206 -1.0966 -0.8979
   9023SM   C5S12070   5.111   2.763  13.965  0.3631 -0.4313 -0.0384
   9023SM   H5S12071   5.030   2.689  13.956 -0.4652  0.2115  1.7484
   9023SM   C6S12072   5.223   2.726  14.062  0.4409  0.7783  0.7800
   9023SM   H6S12073   5.270   2.639  14.011 -0.6758  0.7479 -0.2697
   9023SM   H6T12074   5.190   2.682  14.159  2.0453 -0.5184  0.7727
   9023SM   C7S12075   5.329   2.841  14.075 -0.2514  0.9220 -0.5011
   9023SM   H7S12076   5.275   2.931  14.111 -0.4700  0.6252 -0.0692
   9023SM   H7T12077   5.365   2.869  13.974 -0.0462  1.2211 -0.3452
   9023SM   C8S12078   5.455   2.813  14.171 -0.0726  0.4720  0.1866
   9023SM   H8S12079   5.541   2.882  14.165 -0.3943  0.7709 -1.5858
   9023SM   H8T12080   5.504   2.716  14.149  1.0509  0.9390  0.5810
   9023SM   C9S12081   5.403   2.805  14.318  0.3208 -0.2959 -0.4365
   9023SM   H9S12082   5.348   2.709  14.322  1.4716 -0.9919 -0.7726
   9023SM   H9T12083   5.341   2.895  14.339  0.4604 -0.7564  2.3959
   9023SM  C10S12084   5.513   2.806  14.422  0.6065 -0.0491 -0.4932
   9023SM  H10S12085   5.588   2.880  14.388  1.8930 -1.5007 -0.9091
   9023SM  H10T12086   5.557   2.705  14.405 -0.7649 -0.6142 -0.8993
   9023SM  C11S12087   5.463   2.820  14.565  0.6134 -0.4103  0.4083
   9023SM  H11S12088   5.398   2.734  14.593 -1.0146  0.6291 -0.0300
   9023SM  H11T12089   5.404   2.914  14.568  0.5569 -0.3565 -1.3379
   9023SM  C12S12090   5.581   2.832  14.659 -0.1664  0.2838  0.0938
   9023SM  H12S12091   5.624   2.932  14.640 -1.3408  1.1881  1.8942
   9023SM  H12T12092   5.647   2.743  14.657 -0.7634 -0.2122  1.3585
   9023SM  C13S12093   5.534   2.845  14.807 -0.5376  0.2211 -0.3284
   9023SM  H13S12094   5.478   2.750  14.824 -0.0258 -0.3119 -1.5369
   9023SM  H13T12095   5.454   2.922  14.800 -0.5545  0.1928 -0.4452
   9023SM  C14S12096   5.644   2.861  14.912  0.1610  0.3895 -0.0962
   9023SM  H14S12097   5.668   2.970  14.914 -1.8075  0.8611  2.3189
   9023SM  H14T12098   5.728   2.800  14.872  1.2900 -0.2076  2.9419
   9023SM  C15S12099   5.604   2.813  15.052 -0.8659  0.0573 -0.3476
   9023SM  H15S12100   5.550   2.718  15.030  0.5888 -1.0001  0.4969
   9023SM  H15T12101   5.529   2.884  15.093 -0.8590  0.4860 -1.0548
   9023SM  C16S12102   5.718   2.780  15.147 -0.5793 -0.0289  0.1234
   9023SM  H16S12103   5.774   2.707  15.085 -1.9734 -0.3736 -0.7514
   9023SM  H16T12104   5.692   2.734  15.245  0.4819 -0.0197  0.4267
   9023SM  C17S12105   5.805   2.904  15.198  0.5141  0.3128  0.4543
   9023SM  H17S12106   5.743   2.986  15.240  2.7651  1.4028  1.8149
   9023SM  H17T12107   5.840   2.946  15.101 -1.4989 -1.6977 -1.2746
   9023SM  C18S12108   5.935   2.878  15.268  0.0495  0.2319 -0.0861
   9023SM  H18S12109   5.971   2.780  15.230  1.0682  0.3814  0.4619
   9023SM  H18T12110   5.924   2.868  15.378  0.0409  2.2628  0.1338
   9023SM  H18U12111   6.008   2.960  15.250  1.4944 -1.1467 -0.7707
   9023SM   C1F12112   4.897   3.219  13.861  0.6944 -0.1539  0.4648
   9023SM    OF12113   4.778   3.205  13.880 -0.1641  0.3133 -0.0370
   9023SM   C2F12114   4.969   3.348  13.889  0.2191 -0.3886  0.4984
   9023SM   H2F12115   4.955   3.416  13.802  2.3307  1.0160  1.2077
   9023SM   H2G12116   5.077   3.324  13.897  0.1373 -0.9985 -0.0637
   9023SM   C3F12117   4.920   3.417  14.021  0.0323  0.0862  0.6209
   9023SM   H3F12118   4.810   3.430  14.029  0.1395  0.3202  1.8988
   9023SM   H3G12119   4.956   3.522  14.024 -0.2731  0.2004  0.3871
   9023SM   C4F12120   4.977   3.345  14.149 -0.4030  0.3035 -0.4035
   9023SM   H4F12121   5.087   3.334  14.138 -0.2349 -1.6338  2.3045
   9023SM   H4G12122   4.938   3.241  14.156 -1.0304  0.6230  1.1356
   9023SM   C5F12123   4.950   3.420  14.277 -0.8373  0.2406  0.0757
   9023SM   H5F12124   4.994   3.522  14.268  1.9038 -0.6598  2.0414
   9023SM   H5G12125   5.007   3.367  14.356 -1.7244 -1.2383 -0.2362
   9023SM   C6F12126   4.800   3.441  14.320 -0.0931  0.5276 -0.3596
   9023SM   H6F12127   4.751   3.345  14.295  1.3857 -0.2703 -0.3152
   9023SM   H6G12128   4.745   3.525  14.271 -1.6127 -0.9169 -1.2052
   9023SM   C7F12129   4.795   3.457  14.476  0.0447  0.1486  0.2502
   9023SM   H7F12130   4.852   3.373  14.521  0.2916  0.2187  0.0682
   9023SM   H7G12131   4.690   3.467  14.511 -0.0950  0.2912 -0.1986
   9023SM   C8F12132   4.871   3.588  14.529  0.2783 -0.0006 -0.7415
   9023SM   H8F12133   4.815   3.670  14.479  1.8982  1.4597 -0.2834
   9023SM   H8G12134   4.979   3.597  14.504  0.1323  1.7204 -0.8907
   9023SM   C9F12135   4.847   3.603  14.680  0.4910 -0.2352  0.2290
   9023SM   H9F12136   4.742   3.571  14.699 -0.0495  1.5904  0.4865
   9023SM   H9G12137   4.849   3.708  14.715 -0.8805  0.3929 -1.4571
   9023SM  C10F12138   4.951   3.524  14.773 -0.1894  0.4503 -0.3764
   9023SM  H10F12139   5.052   3.534  14.727  0.4064 -0.4529  0.7027
   9023SM  H10G12140   4.938   3.414  14.777 -0.9088  0.3563 -3.1817
   9023SM  C11F12141   4.957   3.582  14.920 -0.1443 -0.3348  0.6585
   9023SM  H11F12142   5.032   3.664  14.926  0.8759 -1.2496  0.8166
   9023SM  H11G12143   5.005   3.505  14.985 -0.2278  0.2773  1.4568
   9023SM  C12F12144   4.817   3.627  14.978 -0.0713 -0.3209  0.0682
   9023SM  H12F12145   4.742   3.555  14.939  0.0116 -0.3134 -0.1076
   9023SM  H12G12146   4.804   3.731  14.944  2.7586 -0.2617 -1.1661
   9023SM  C13F12147   4.803   3.608  15.129 -0.3269 -0.2111 -0.6408
   9023SM  H13F12148   4.805   3.504  15.168  0.0949 -0.9110 -2.4434
   9023SM  H13G12149   4.705   3.647  15.164  0.3473 -0.8398  2.2583
   9023SM  C14F12150   4.909   3.698  15.201  0.0065 -0.4904  0.2884
   9023SM  H14F12151   4.871   3.802  15.186 -4.0495 -1.4445  2.5193
   9023SM  H14G12152   5.013   3.691  15.161 -0.2685  0.9209 -0.7894
   9023SM  C15F12153   4.920   3.684  15.355 -0.1583 -0.5018 -0.0951
   9023SM  H15F12154   4.958   3.586  15.389  1.2632  0.4794  1.2532
   9023SM  H15G12155   4.817   3.680  15.398 -1.3404 -0.7647 -2.7185
   9023SM  C16F12156   4.994   3.808  15.406  1.1381  0.2850 -1.1246
   9023SM  H16F12157   4.939   3.900  15.376 -2.5450 -1.1922  0.4288
   9023SM  H16G12158   5.101   3.806  15.378  1.3038 -1.5125 -0.5295
   9023SM  C17F12159   4.988   3.808  15.557  0.9078 -0.3355  0.3151
   9023SM  H17F12160   5.016   3.707  15.595  0.7729 -0.6321 -0.3561
   9023SM  H17G12161   4.882   3.824  15.587  0.3206  1.4806 -2.3802
   9023SM  C18F12162   5.079   3.917  15.614 -0.5728 -0.7033  0.1004
   9023SM  H18F12163   5.068   4.000  15.540 -2.0571 -2.3020 -1.5882
   9023SM  H18G12164   5.186   3.889  15.606 -0.9485 -1.8883 -1.2955
   9023SM  C19F12165   5.047   3.962  15.760  0.5372  0.2066  0.3613
   9023SM  H19F12166   4.961   4.032  15.750 -0.7996 -1.2678  1.0894
   9023SM  H19G12167   5.133   4.025  15.792 -0.1654  0.7474  1.2423
   9023SM  C20F12168   5.030   3.849  15.859 -0.2725 -0.2030  0.1783
   9023SM  H20F12169   5.112   3.778  15.837 -0.1982 -0.2649  0.6328
   9023SM  H20G12170   4.942   3.784  15.840  0.5837 -0.8402 -1.8638
   9023SM  C21F12171   5.049   3.886  16.003  0.4817  0.2160 -0.3183
   9023SM  H21F12172   4.970   3.962  16.025 -0.6175 -0.4550 -1.7176
   9023SM  H21G12173   5.149   3.931  16.020  0.0749  1.3219 -0.8072
   9023SM  C22F12174   5.044   3.768  16.099 -0.1310 -0.4165  0.5723
   9023SM  H22F12175   5.078   3.791  16.202  0.0001 -2.3116  0.9851
   9023SM  H22G12176   5.110   3.689  16.058 -1.3566 -1.1386 -0.0611
   9023SM  C23F12177   4.900   3.709  16.112 -0.9504  0.1663  0.5023
   9023SM  H23F12178   4.906   3.611  16.164 -0.4672 -0.3081 -0.4247
   9023SM  H23G12179   4.855   3.686  16.013  0.2393  0.2063 -0.0683
   9023SM  H23H12180   4.832   3.778  16.166 -1.2173  0.3114 -0.0075
   9123SM     N12181   6.993   6.144  13.408  0.8489  0.0466 -0.2271
   9123SM   C1512182   6.873   6.064  13.391  0.9521  0.0849  0.6111
   9123SM  H15A12183   6.867   6.021  13.292 -1.6206 -0.8661  1.0924
   9123SM  H15B12184   6.785   6.124  13.407  0.7708  0.6270 -2.1076
   9123SM  H15C12185   6.872   5.980  13.460 -1.2476 -2.0888 -1.8858
   9123SM   C1412186   7.107   6.056  13.377 -0.6090  0.4920 -0.2171
   9123SM  H14A12187   7.126   6.040  13.272  3.1640 -0.8551  0.5031
   9123SM  H14B12188   7.099   5.959  13.424 -1.1987  0.8739  0.4933
   9123SM  H14C12189   7.196   6.100  13.420 -2.3957  2.2670  1.8648
   9123SM   C1312190   6.999   6.252  13.310  0.0498 -0.3873  0.3303
   9123SM  H13A12191   7.009   6.218  13.208 -0.0850  2.1367 -0.6163
   9123SM  H13B12192   7.088   6.310  13.331 -0.1216  0.7873 -1.8234
   9123SM  H13C12193   6.910   6.313  13.300  1.2153  1.3464  0.1665
   9123SM   C1212194   6.992   6.203  13.550 -0.6048 -0.4216 -0.4843
   9123SM  H12A12195   6.967   6.122  13.617 -0.9310 -1.2477 -1.5850
   9123SM  H12B12196   6.908   6.270  13.564 -0.0220 -0.0247  1.3696
   9123SM   C1112197   7.117   6.277  13.606  0.6162  0.3194  0.1151
   9123SM  H11A12198   7.083   6.317  13.703  1.3317  0.4095  0.3384
   9123SM  H11B12199   7.146   6.369  13.550  1.0482  0.5154  0.6535
   9123SM     P12200   7.260   6.095  13.725 -0.1407  0.0391 -0.0944
   9123SM   O1312201   7.314   5.970  13.674  0.7027 -0.1980 -0.3591
   9123SM   O1412202   7.341   6.168  13.823 -0.2026 -0.4926  0.6144
   9123SM   O1112203   7.115   6.077  13.795  0.4081 -0.4068 -0.1207
   9123SM   O1212204   7.232   6.188  13.602 -0.2973 -0.1459 -0.3757
   9123SM   C1S12205   7.058   5.944  13.815  0.1699  0.0026 -0.5323
   9123SM   H1S12206   7.137   5.868  13.831  2.1356  2.0747  0.0555
   9123SM   H1T12207   7.000   5.917  13.724 -0.3182 -0.8569  0.0152
   9123SM    NF12208   6.968   5.801  13.987  0.6829  0.2775  0.0469
   9123SM   HNF12209   6.886   5.746  13.977  1.5039 -1.3169  1.4786
   9123SM   C2S12210   6.966   5.936  13.940 -0.1883  0.3806  0.2299
   9123SM   H2S12211   7.019   5.991  14.021  1.6637  0.2350 -0.8270
   9123SM   C3S12212   6.832   6.007  13.911 -0.4368 -0.2605  0.0573
   9123SM   H3S12213   6.790   5.940  13.833 -1.6650  1.7692 -1.1140
   9123SM    O312214   6.863   6.133  13.844  0.1874 -0.4585 -0.1620
   9123SM   HO312215   6.958   6.142  13.834  0.4622 -0.2048  2.0318
   9123SM   C4S12216   6.738   6.016  14.026 -0.4884  0.5273 -0.2719
   9123SM   H4S12217   6.672   5.929  14.026  1.9739 -1.4852 -1.6226
   9123SM   C5S12218   6.738   6.113  14.125  0.2589 -0.3130  0.7385
   9123SM   H5S12219   6.823   6.182  14.124  0.6784 -0.8304  0.5646
   9123SM   C6S12220   6.642   6.124  14.240  0.1915 -0.0385 -0.3346
   9123SM   H6S12221   6.561   6.050  14.219  0.6712 -0.4735 -0.6885
   9123SM   H6T12222   6.595   6.225  14.241 -1.5005 -0.7568  2.0802
   9123SM   C7S12223   6.698   6.096  14.376  0.4106  0.5276 -0.2426
   9123SM   H7S12224   6.779   6.168  14.403  1.7876 -1.0765  0.0815
   9123SM   H7T12225   6.732   5.991  14.382 -3.4457 -1.1032 -2.9630
   9123SM   C8S12226   6.595   6.105  14.492 -0.6085  0.3323  0.0604
   9123SM   H8S12227   6.524   6.023  14.467  2.4615 -2.3273 -0.7530
   9123SM   H8T12228   6.541   6.202  14.488 -2.4846 -0.6647 -0.1397
   9123SM   C9S12229   6.654   6.079  14.632  0.2721  0.4701 -0.4008
   9123SM   H9S12230   6.733   6.155  14.649 -0.0132  0.3449  1.7565
   9123SM   H9T12231   6.709   5.982  14.624 -1.4200 -0.6162  0.6284
   9123SM  C10S12232   6.554   6.076  14.743  0.0819 -0.1491 -0.4638
   9123SM  H10S12233   6.471   6.008  14.713  0.1174  0.4890 -2.1482
   9123SM  H10T12234   6.504   6.173  14.764 -0.3307 -0.3779 -0.3770
   9123SM  C11S12235   6.615   6.034  14.876 -0.0109  0.0466 -0.0961
   9123SM  H11S12236   6.706   6.096  14.893  1.0014 -1.9404  2.3752
   9123SM  H11T12237   6.649   5.928  14.873 -3.9815 -1.4239  0.9513
   9123SM  C12S12238   6.519   6.051  14.995  0.1743  0.0993  0.3162
   9123SM  H12S12239   6.445   5.969  14.998  0.7386 -0.5366 -1.6682
   9123SM  H12T12240   6.462   6.146  14.984  1.7291  0.9091 -1.4457
   9123SM  C13S12241   6.594   6.051  15.133  0.6687  0.1005 -0.1757
   9123SM  H13S12242   6.686   6.110  15.114  1.2124  0.2641  2.5278
   9123SM  H13T12243   6.633   5.950  15.159  1.0531  0.0048 -1.0900
   9123SM  C14S12244   6.506   6.100  15.248 -0.5093 -0.8805 -0.2008
   9123SM  H14S12245   6.488   6.209  15.239 -1.6511 -1.2074 -2.4802
   9123SM  H14T12246   6.579   6.093  15.331  2.6497  0.2330 -2.7178
   9123SM  C15S12247   6.377   6.014  15.256 -0.1092  0.4206  0.2298
   9123SM  H15S12248   6.414   5.910  15.268 -0.2231  0.3689  0.1381
   9123SM  H15T12249   6.315   6.032  15.166 -0.4787  0.9039  0.5743
   9123SM  C16S12250   6.290   6.045  15.384 -0.0054  0.5188 -0.0399
   9123SM  H16S12251   6.278   6.155  15.372 -0.1088  0.9276  2.9584
   9123SM  H16T12252   6.338   6.025  15.482  1.4016 -0.9399 -0.9730
   9123SM  C17S12253   6.154   5.974  15.405 -0.2275 -0.5065  0.1570
   9123SM  H17S12254   6.183   5.867  15.407 -1.3983 -0.8306  0.7416
   9123SM  H17T12255   6.095   5.984  15.311 -0.8485  0.0851  0.6022
   9123SM  C18S12256   6.065   6.028  15.521 -0.5031 -0.0705 -0.3693
   9123SM  H18S12257   5.969   5.976  15.544  0.0567 -1.1965 -0.5465
   9123SM  H18T12258   6.019   6.127  15.501 -0.9346 -0.0023  0.8738
   9123SM  H18U12259   6.128   6.028  15.613 -2.0809 -0.1794  0.7608
   9123SM   C1F12260   7.070   5.736  14.049  0.0325  0.0355  0.7608
   9123SM    OF12261   7.184   5.782  14.054 -0.1623  0.2557 -0.4976
   9123SM   C2F12262   7.033   5.604  14.112 -0.3059 -0.0701 -0.0193
   9123SM   H2F12263   7.040   5.531  14.029  0.7493 -0.5378  0.4608
   9123SM   H2G12264   6.929   5.613  14.150 -0.5685 -0.8904 -0.5071
   9123SM   C3F12265   7.116   5.557  14.231  0.3152  0.8657 -0.0021
   9123SM   H3F12266   7.108   5.616  14.324  1.9706  0.8086  0.2090
   9123SM   H3G12267   7.224   5.551  14.208 -0.1493 -1.5194 -1.9876
   9123SM   C4F12268   7.062   5.422  14.283  0.5235 -0.2012  0.2338
   9123SM   H4F12269   6.951   5.415  14.284  0.4806 -0.0458 -1.0253
   9123SM   H4G12270   7.095   5.419  14.389  0.4783 -1.4106  0.2295
   9123SM   C5F12271   7.116   5.302  14.202 -0.2359  0.3821 -0.1535
   9123SM   H5F12272   7.225   5.311  14.184 -0.4280 -0.5949 -2.0124
   9123SM   H5G12273   7.067   5.308  14.102  0.8558  1.3070 -0.6618
   9123SM   C6F12274   7.088   5.167  14.261 -0.0442 -0.9688 -0.1037
   9123SM   H6F12275   7.142   5.091  14.200  0.6492 -1.3030  0.9066
   9123SM   H6G12276   6.980   5.140  14.270  0.1533 -2.2286 -1.1711
   9123SM   C7F12277   7.141   5.138  14.401  0.2837  0.1132 -0.7429
   9123SM   H7F12278   7.115   5.032  14.423  2.1321 -0.6473 -1.9665
   9123SM   H7G12279   7.100   5.200  14.483  2.2963 -2.3706  2.3566
   9123SM   C8F12280   7.294   5.137  14.419  0.7661 -0.3136 -0.0838
   9123SM   H8F12281   7.327   5.241  14.398  1.2902 -0.4341  0.1096
   9123SM   H8G12282   7.342   5.079  14.337 -1.3323 -1.0276 -0.8490
   9123SM   C9F12283   7.342   5.073  14.545  0.2298  0.6415 -0.1159
   9123SM   H9F12284   7.453   5.067  14.547  0.2796  1.0159 -1.1054
   9123SM   H9G12285   7.303   4.970  14.557  1.3998 -0.1405 -2.4212
   9123SM  C10F12286   7.298   5.151  14.670  0.0632 -0.2911  1.0755
   9123SM  H10F12287   7.187   5.142  14.679  0.0664  0.9007  2.6974
   9123SM  H10G12288   7.323   5.258  14.682 -2.8771  0.5531  0.4701
   9123SM  C11F12289   7.351   5.079  14.801  0.0225  0.0252 -0.2117
   9123SM  H11F12290   7.461   5.085  14.811  0.0329 -1.4798  0.7958
   9123SM  H11G12291   7.321   4.972  14.794  4.0171 -1.2209 -0.7826
   9123SM  C12F12292   7.301   5.148  14.927  0.5925 -0.1480  0.2166
   9123SM  H12F12293   7.194   5.126  14.947  0.7087 -1.9888 -1.0009
   9123SM  H12G12294   7.306   5.258  14.913 -1.1901 -0.0339  0.2599
   9123SM  C13F12295   7.377   5.115  15.065  0.0287  0.1808 -0.7066
   9123SM  H13F12296   7.320   5.174  15.140 -0.0138  0.6200 -1.0769
   9123SM  H13G12297   7.483   5.147  15.071 -0.2929  1.0742  0.3848
   9123SM  C14F12298   7.369   4.968  15.116 -0.4919  0.8088  0.0392
   9123SM  H14F12299   7.442   4.896  15.074 -1.4181 -0.8242  1.1085
   9123SM  H14G12300   7.270   4.930  15.081 -0.2320  1.9792 -2.0787
   9123SM  C15F12301   7.394   4.943  15.260  0.3710 -0.5359 -0.3488
   9123SM  H15F12302   7.328   5.016  15.312  1.2312  0.6205 -0.8620
   9123SM  H15G12303   7.496   4.975  15.290  0.5978  2.1972 -3.4505
   9123SM  C16F12304   7.365   4.807  15.310  0.8419 -0.4442 -0.1618
   9123SM  H16F12305   7.441   4.737  15.269  1.0433  0.3666 -1.2139
   9123SM  H16G12306   7.267   4.779  15.266  0.5457  0.1479  0.1118
   9123SM  C17F12307   7.377   4.799  15.462  0.5130 -0.2143 -0.5772
   9123SM  H17F12308   7.287   4.857  15.494 -1.8948 -3.4490 -1.0010
   9123SM  H17G12309   7.471   4.850  15.493 -0.2298  0.3957  0.7754
   9123SM  C18F12310   7.370   4.660  15.526 -0.5046 -0.1717 -0.2637
   9123SM  H18F12311   7.446   4.597  15.475  0.5768 -0.8914  2.1252
   9123SM  H18G12312   7.274   4.613  15.496 -0.0842 -0.6248 -0.9228
   9123SM  C19F12313   7.392   4.660  15.676 -0.1850 -0.2493 -0.9267
   9123SM  H19F12314   7.301   4.695  15.729  0.3434  1.2143 -0.9380
   9123SM  H19G12315   7.482   4.721  15.701 -0.6662 -0.4636  1.6985
   9123SM  C20F12316   7.425   4.521  15.730  0.9029  0.0668  0.0142
   9123SM  H20F12317   7.531   4.497  15.703  0.9684  1.5054 -1.1308
   9123SM  H20G12318   7.350   4.450  15.689  0.3426 -0.1148  1.3119
   9123SM  C21F12319   7.420   4.509  15.882 -0.6451 -0.2989 -0.0604
   9123SM  H21F12320   7.322   4.552  15.910  0.3836  2.8653 -0.8355
   9123SM  H21G12321   7.497   4.576  15.926  0.8673 -1.8658 -0.2175
   9123SM  C22F12322   7.443   4.369  15.943  0.1381 -0.2883  0.5266
   9123SM  H22F12323   7.464   4.375  16.051 -0.0678  1.4803  0.5119
   9123SM  H22G12324   7.530   4.313  15.903 -1.6741 -3.5395  0.8390
   9123SM  C23F12325   7.315   4.280  15.937 -0.5696 -0.1759  0.2051
   9123SM  H23F12326   7.334   4.191  16.001  1.1195 -1.0127 -1.3823
   9123SM  H23G12327   7.296   4.240  15.836 -0.7069 -1.8170  0.8498
   9123SM  H23H12328   7.230   4.343  15.974 -0.0762 -0.7565  2.5126
   9223SM     N12329   5.033   2.030  13.362 -0.4337  0.6213 -0.0703
   9223SM   C1512330   5.062   2.127  13.256  0.2053 -0.2399 -0.9141
   9223SM  H15A12331   5.047   2.079  13.160 -1.0422  0.1833 -0.9573
   9223SM  H15B12332   5.160   2.170  13.260 -0.5806  1.5317  0.4123
   9223SM  H15C12333   4.996   2.212  13.263  1.1037  0.3705  0.2434
   9223SM   C1412334   5.067   2.088  13.499  0.1652 -0.0108  1.3771
   9223SM  H14A12335   5.003   2.174  13.507  2.2544  2.3673 -3.3561
   9223SM  H14B12336   5.172   2.113  13.504 -0.1483  1.2216  2.3290
   9223SM  H14C12337   5.066   2.009  13.573  2.8088 -2.1388 -0.6201
   9223SM   C1312338   4.887   1.991  13.359  0.3579  0.3811 -0.1529
   9223SM  H13A12339   4.862   1.945  13.264 -0.9010  0.5851  0.0593
   9223SM  H13B12340   4.819   2.072  13.381  0.1377  0.2682 -0.4126
   9223SM  H13C12341   4.871   1.914  13.433  0.4968  0.7987  0.3181
   9223SM   C1212342   5.120   1.901  13.333 -0.1432 -0.3124 -0.7682
   9223SM  H12A12343   5.223   1.919  13.361 -0.4779  0.8569 -0.2255
   9223SM  H12B12344   5.123   1.888  13.225  0.0557  0.0358 -0.8060
   9223SM   C1112345   5.076   1.772  13.402  0.1394  0.3821  0.3561
   9223SM  H11A12346   5.143   1.685  13.384 -2.1404 -1.8436  1.9655
   9223SM  H11B12347   4.976   1.744  13.364  1.8367 -0.6164 -4.0347
   9223SM     P12348   5.204   1.786  13.624 -0.2515  0.1243 -0.1666
   9223SM   O1312349   5.228   1.643  13.661  0.6000 -0.7483 -0.6655
   9223SM   O1412350   5.317   1.850  13.554  0.2267 -0.1280 -0.3867
   9223SM   O1112351   5.178   1.862  13.754 -0.1471 -0.3766  0.4296
   9223SM   O1212352   5.064   1.787  13.545  0.3980 -0.0204 -0.5122
   9223SM   C1S12353   5.052   1.849  13.822 -0.8879 -0.0454 -0.7448
   9223SM   H1S12354   5.022   1.744  13.842  1.2522 -0.4164  0.8925
   9223SM   H1T12355   4.975   1.901  13.761 -0.2349  1.0530 -0.6446
   9223SM    NF12356   4.962   1.876  14.061  0.5879  0.1941 -0.3264
   9223SM   HNF12357   4.896   1.935  14.105  0.1276 -0.7545  0.2791
   9223SM   C2S12358   5.058   1.929  13.959  0.4848  0.3442 -0.6496
   9223SM   H2S12359   5.162   1.920  13.995 -0.0938 -0.8013  0.8418
   9223SM   C3S12360   5.030   2.077  13.924  0.1787 -0.6748 -0.4671
   9223SM   H3S12361   4.922   2.084  13.895  0.0400 -3.2942 -0.7766
   9223SM    O312362   5.123   2.134  13.836 -0.3264  0.2862  0.3412
   9223SM   HO312363   5.179   2.065  13.798 -0.4835  0.3524 -0.0161
   9223SM   C4S12364   5.037   2.167  14.052 -0.0696  0.1582 -0.1046
   9223SM   H4S12365   4.950   2.154  14.118 -1.5754  0.6725 -1.9004
   9223SM   C5S12366   5.135   2.242  14.098 -0.1752  0.0683  0.3838
   9223SM   H5S12367   5.228   2.246  14.040 -0.2372  0.6133  0.3159
   9223SM   C6S12368   5.140   2.317  14.224 -0.0930  0.1262  0.2730
   9223SM   H6S12369   5.190   2.415  14.211  1.0714 -0.4773  0.0550
   9223SM   H6T12370   5.210   2.264  14.292 -0.1260  0.8268  0.8674
   9223SM   C7S12371   5.009   2.325  14.308 -0.7396 -0.2000  0.8106
   9223SM   H7S12372   4.979   2.219  14.323  0.2188 -0.3223  2.0345
   9223SM   H7T12373   4.925   2.370  14.251 -1.1493 -0.7862  0.9426
   9223SM   C8S12374   5.026   2.408  14.433  0.1714  0.5563  0.4452
   9223SM   H8S12375   4.925   2.448  14.456 -0.9819 -1.1734 -1.3470
   9223SM   H8T12376   5.090   2.496  14.412 -0.4624  0.7544 -0.7664
   9223SM   C9S12377   5.069   2.347  14.567  0.1895  0.7088  0.5739
   9223SM   H9S12378   5.175   2.316  14.567 -0.0678 -0.2559  1.7264
   9223SM   H9T12379   5.024   2.248  14.590  1.6318 -0.1784 -0.2646
   9223SM  C10S12380   5.057   2.433  14.690  0.1133 -0.1336 -0.4390
   9223SM  H10S12381   5.086   2.381  14.785 -0.6197 -0.0012 -0.1336
   9223SM  H10T12382   4.952   2.453  14.720  1.0654 -0.1711  3.4184
   9223SM  C11S12383   5.111   2.575  14.679  0.3278  0.2094  0.3223
   9223SM  H11S12384   5.067   2.633  14.594 -0.2728 -0.0027  0.4807
   9223SM  H11T12385   5.221   2.562  14.673  0.5310  1.4104  1.1859
   9223SM  C12S12386   5.078   2.651  14.807 -0.4497 -0.4241 -0.2342
   9223SM  H12S12387   4.974   2.623  14.835 -1.1469 -1.3216 -3.3484
   9223SM  H12T12388   5.081   2.759  14.781  0.0832 -0.0346  1.3377
   9223SM  C13S12389   5.173   2.614  14.924 -0.0859 -1.1031 -0.2634
   9223SM  H13S12390   5.280   2.612  14.894 -0.0900  2.4609 -1.0422
   9223SM  H13T12391   5.142   2.510  14.948 -0.7769 -0.9665 -0.5174
   9223SM  C14S12392   5.139   2.701  15.049 -0.0758 -0.4400 -0.0886
   9223SM  H14S12393   5.030   2.683  15.066 -0.2077 -0.0127 -0.4787
   9223SM  H14T12394   5.153   2.804  15.010 -2.0914 -0.0066  0.1853
   9223SM  C15S12395   5.222   2.673  15.175  0.7645  0.3903 -0.2090
   9223SM  H15S12396   5.195   2.744  15.256 -0.7421  1.1158 -1.2950
   9223SM  H15T12397   5.330   2.693  15.160  0.7123 -1.1250 -3.7083
   9223SM  C16S12398   5.217   2.527  15.227 -0.5093 -0.2534  0.3371
   9223SM  H16S12399   5.246   2.450  15.152 -0.6180 -1.7322  1.7576
   9223SM  H16T12400   5.118   2.495  15.267 -0.2482 -1.8595 -0.2417
   9223SM  C17S12401   5.317   2.497  15.341  0.2226 -0.1507  0.0641
   9223SM  H17S12402   5.418   2.504  15.296 -0.7102 -1.1051 -2.3302
   9223SM  H17T12403   5.301   2.392  15.372 -2.0241 -0.0583 -0.6265
   9223SM  C18S12404   5.303   2.592  15.448  0.3872 -0.5894 -0.4002
   9223SM  H18S12405   5.362   2.561  15.537 -0.6541 -1.8929 -0.1269
   9223SM  H18T12406   5.195   2.598  15.475 -0.1578  2.2881 -2.7203
   9223SM  H18U12407   5.326   2.696  15.418  2.5342 -0.5323  1.1870
   9223SM   C1F12408   4.978   1.752  14.103  0.0836 -0.2463  0.0159
   9223SM    OF12409   5.089   1.703  14.077 -0.7413 -0.4047  0.3166
   9223SM   C2F12410   4.872   1.681  14.186  0.3662  0.3081 -0.7517
   9223SM   H2F12411   4.770   1.701  14.146 -0.2815 -0.5268  0.4241
   9223SM   H2G12412   4.877   1.732  14.284  0.9483  3.0846 -2.1330
   9223SM   C3F12413   4.887   1.527  14.191  0.0242 -0.1293 -0.3757
   9223SM   H3F12414   4.995   1.504  14.200  0.4610  0.9793 -2.2429
   9223SM   H3G12415   4.876   1.477  14.092 -2.6567 -2.5823  1.0155
   9223SM   C4F12416   4.789   1.451  14.286  0.0012  0.1748  0.7425
   9223SM   H4F12417   4.833   1.443  14.388 -0.8018 -1.4516  0.9947
   9223SM   H4G12418   4.776   1.352  14.238 -0.0471  0.2707  0.5547
   9223SM   C5F12419   4.652   1.516  14.298 -0.1646  1.0213 -0.6250
   9223SM   H5F12420   4.597   1.508  14.202 -1.7431 -0.6730  0.3762
   9223SM   H5G12421   4.660   1.623  14.330  1.1610  0.4673  1.0315
   9223SM   C6F12422   4.564   1.448  14.405 -0.5171 -0.5175 -0.3338
   9223SM   H6F12423   4.631   1.437  14.493 -1.7540  0.1982  0.7294
   9223SM   H6G12424   4.534   1.346  14.372  0.2973 -0.7334 -0.4505
   9223SM   C7F12425   4.440   1.527  14.445  0.2309 -0.0946  0.1905
   9223SM   H7F12426   4.464   1.634  14.467 -0.3186 -0.2181  1.4736
   9223SM   H7G12427   4.395   1.489  14.540  0.2519  0.9547  0.6437
   9223SM   C8F12428   4.329   1.524  14.337 -0.4066 -0.3448 -0.7655
   9223SM   H8F12429   4.318   1.419  14.302  0.3748 -0.0500 -1.9745
   9223SM   H8G12430   4.373   1.581  14.252  0.5964  1.1298  0.6842
   9223SM   C9F12431   4.203   1.586  14.383 -0.4140 -0.2736  0.1945
   9223SM   H9F12432   4.191   1.566  14.492 -0.7757 -0.5915  0.0997
   9223SM   H9G12433   4.115   1.546  14.328  0.5145 -2.6092  0.2905
   9223SM  C10F12434   4.203   1.740  14.357  0.1779  0.1809  0.2687
   9223SM  H10F12435   4.094   1.759  14.350  0.0490 -0.7484 -0.4528
   9223SM  H10G12436   4.256   1.783  14.270 -0.4580 -0.9638 -0.7147
   9223SM  C11F12437   4.222   1.827  14.483 -0.4771  0.2591  0.6511
   9223SM  H11F12438   4.217   1.934  14.451 -2.6058  0.5483  1.7733
   9223SM  H11G12439   4.326   1.804  14.515  0.0986  1.3529 -0.3280
   9223SM  C12F12440   4.116   1.808  14.588  0.1651 -0.6295 -0.3442
   9223SM  H12F12441   4.114   1.707  14.634 -1.5584 -0.9541 -1.0558
   9223SM  H12G12442   4.021   1.821  14.532 -0.3666 -2.4828  0.0787
   9223SM  C13F12443   4.123   1.910  14.700  0.1018 -0.2795  0.9589
   9223SM  H13F12444   4.094   2.011  14.667  2.6354 -0.4939 -2.4459
   9223SM  H13G12445   4.231   1.909  14.729  1.4322  1.7925 -3.1922
   9223SM  C14F12446   4.045   1.864  14.824  0.1703  0.2820 -0.1239
   9223SM  H14F12447   4.088   1.774  14.874 -0.9037 -0.2377 -0.0924
   9223SM  H14G12448   3.941   1.833  14.798  0.1164  0.0160  0.3985
   9223SM  C15F12449   4.047   1.962  14.941 -0.2684  0.0516 -0.3142
   9223SM  H15F12450   4.029   2.064  14.902  0.2413  0.5891  0.8238
   9223SM  H15G12451   4.152   1.965  14.977 -0.2872 -1.8022 -0.0200
   9223SM  C16F12452   3.949   1.928  15.060 -0.1505  0.3527 -0.0318
   9223SM  H16F12453   3.960   2.014  15.130  0.2224 -1.8286  2.7570
   9223SM  H16G12454   3.980   1.841  15.121 -2.3852  0.5077  1.4516
   9223SM  C17F12455   3.798   1.914  15.030 -0.0583 -0.4331 -0.5202
   9223SM  H17F12456   3.750   1.902  15.129 -0.3782  1.0522 -0.4651
   9223SM  H17G12457   3.799   1.819  14.972  1.6569 -0.8759  0.1734
   9223SM  C18F12458   3.730   2.025  14.942  0.2056  0.0600 -0.0390
   9223SM  H18F12459   3.799   2.048  14.858 -0.1610  2.5536  0.2600
   9223SM  H18G12460   3.711   2.119  14.998 -1.5371  1.0431 -2.1326
   9223SM  C19F12461   3.595   1.983  14.882  1.2587 -0.3047  0.5804
   9223SM  H19F12462   3.548   2.069  14.831  0.1352 -0.2102  1.7198
   9223SM  H19G12463   3.518   1.969  14.961 -0.7071  1.4877 -0.8933
   9223SM  C20F12464   3.608   1.870  14.782 -0.3647  0.8364 -0.0097
   9223SM  H20F12465   3.645   1.779  14.835 -1.4856  3.0910  5.3554
   9223SM  H20G12466   3.677   1.900  14.701 -0.3234 -1.1047 -0.7373
   9223SM  C21F12467   3.480   1.820  14.713  0.3860 -0.0379  0.1314
   9223SM  H21F12468   3.499   1.749  14.629  0.1765 -1.2706  1.1019
   9223SM  H21G12469   3.422   1.903  14.666  0.2641  0.1489  0.6080
   9223SM  C22F12470   3.378   1.762  14.812 -0.3551 -0.4752 -0.9682
   9223SM  H22F12471   3.361   1.855  14.870  1.2451 -1.3315  1.0203
   9223SM  H22G12472   3.424   1.691  14.885  1.7170  2.1066  0.3923
   9223SM  C23F12473   3.260   1.704  14.744  0.1513  0.3059  0.2722
   9223SM  H23F12474   3.205   1.777  14.680 -1.4051  0.0664  1.2813
   9223SM  H23G12475   3.192   1.675  14.827 -0.6734  0.8079 -0.2120
   9223SM  H23H12476   3.282   1.614  14.683  2.2595 -0.5164  2.1118
   9323SM     N12477   6.679   5.550  13.331  0.0452 -0.4208  0.4539
   9323SM   C1512478   6.657   5.644  13.214  0.7587 -0.0699 -0.0858
   9323SM  H15A12479   6.690   5.743  13.242 -2.8332  1.0372  0.7816
   9323SM  H15B12480   6.551   5.652  13.194  0.9559 -1.5749 -2.0113
   9323SM  H15C12481   6.704   5.602  13.127 -1.6095 -3.1137 -0.0561
   9323SM   C1412482   6.628   5.413  13.294 -0.3302 -0.0156  0.0500
   9323SM  H14A12483   6.524   5.420  13.266 -0.1267  0.3514 -0.6312
   9323SM  H14B12484   6.634   5.348  13.381  0.0150  0.2552  0.2312
   9323SM  H14C12485   6.689   5.382  13.211  1.8209 -1.1992  1.9270
   9323SM   C1312486   6.826   5.541  13.351 -0.3377 -0.5905 -0.2966
   9323SM  H13A12487   6.841   5.473  13.433  0.2427  0.2925  0.3556
   9323SM  H13B12488   6.867   5.640  13.370 -0.2895 -0.0970 -2.7492
   9323SM  H13C12489   6.873   5.498  13.264  0.6037 -0.2126  0.0032
   9323SM   C1212490   6.611   5.598  13.456  0.0760  0.8201  0.1361
   9323SM  H12A12491   6.506   5.613  13.435 -0.6084 -2.5131  0.5125
   9323SM  H12B12492   6.651   5.693  13.487  0.7200  0.6691 -0.2173
   9323SM   C1112493   6.604   5.509  13.585  1.3530 -0.9374 -0.5067
   9323SM  H11A12494   6.549   5.414  13.567 -0.9605 -0.1381  1.6834
   9323SM  H11B12495   6.543   5.570  13.655  1.9056  1.6513 -2.1238
   9323SM     P12496   6.810   5.581  13.733 -0.1456 -0.3165 -0.3494
   9323SM   O1312497   6.942   5.519  13.758 -0.3238  0.0778  1.2511
   9323SM   O1412498   6.810   5.717  13.677  0.0120 -0.2679 -0.1975
   9323SM   O1112499   6.727   5.580  13.873 -0.8182 -0.0648  0.6404
   9323SM   O1212500   6.736   5.481  13.634  0.5814 -0.0294 -0.3541
   9323SM   C1S12501   6.653   5.463  13.911 -0.1359  0.1413 -0.2572
   9323SM   H1S12502   6.696   5.373  13.862  0.9129  1.2798 -1.5018
   9323SM   H1T12503   6.547   5.476  13.884 -0.2895 -1.0089 -0.2651
   9323SM    NF12504   6.622   5.329  14.110 -0.2817  0.0969 -0.5770
   9323SM   HNF12505   6.543   5.340  14.169 -0.1445  1.8683 -0.6743
   9323SM   C2S12506   6.675   5.454  14.064 -0.4089  0.0084  0.4864
   9323SM   H2S12507   6.783   5.436  14.082 -0.2186  0.9447  0.3849
   9323SM   C3S12508   6.634   5.580  14.143  0.8019  0.3672  0.1885
   9323SM   H3S12509   6.524   5.588  14.133  0.6981 -0.0041  0.9135
   9323SM    O312510   6.698   5.701  14.097  0.2818  0.1868 -0.6916
   9323SM   HO312511   6.702   5.672  14.005 -1.3932 -0.9386 -0.4615
   9323SM   C4S12512   6.647   5.556  14.297 -0.2786 -0.1471 -0.5044
   9323SM   H4S12513   6.562   5.507  14.348 -0.6201  1.4688  0.5269
   9323SM   C5S12514   6.748   5.597  14.380  0.4147  0.2176  1.2016
   9323SM   H5S12515   6.829   5.654  14.333  2.3519 -0.4253  3.5498
   9323SM   C6S12516   6.762   5.571  14.528 -0.0702  0.2890  0.0916
   9323SM   H6S12517   6.736   5.669  14.574  0.7592  0.0229  1.1870
   9323SM   H6T12518   6.863   5.543  14.565 -0.2122 -0.1302  0.1679
   9323SM   C7S12519   6.670   5.459  14.582  0.3134  0.1700  0.6673
   9323SM   H7S12520   6.691   5.369  14.521  1.0097  0.4304  0.5180
   9323SM   H7T12521   6.564   5.470  14.550 -0.0392 -2.1380  0.8477
   9323SM   C8S12522   6.669   5.408  14.728  0.6296 -0.2738 -0.1109
   9323SM   H8S12523   6.760   5.353  14.760 -0.3445 -1.2330  1.1168
   9323SM   H8T12524   6.590   5.332  14.747  2.3753 -2.2558 -0.5232
   9323SM   C9S12525   6.634   5.527  14.823 -0.3297 -0.2250  0.0758
   9323SM   H9S12526   6.548   5.588  14.789 -0.4303 -0.8940 -0.8971
   9323SM   H9T12527   6.725   5.590  14.808 -0.4680 -0.1150 -0.3020
   9323SM  C10S12528   6.632   5.491  14.971 -0.6399  0.4607 -0.1016
   9323SM  H10S12529   6.710   5.414  14.989 -0.2496  1.1178  1.1857
   9323SM  H10T12530   6.540   5.434  14.993  0.6983 -0.9636  2.1492
   9323SM  C11S12531   6.653   5.600  15.071  0.4904  0.3716  0.0895
   9323SM  H11S12532   6.567   5.669  15.062  0.4535  0.0941 -2.4264
   9323SM  H11T12533   6.742   5.662  15.052  1.3356 -0.2752  1.7271
   9323SM  C12S12534   6.640   5.539  15.215  0.2631 -0.0598  0.2232
   9323SM  H12S12535   6.721   5.466  15.233  0.9412  1.2665  3.3888
   9323SM  H12T12536   6.551   5.472  15.225  1.7426 -2.0105  0.9800
   9323SM  C13S12537   6.629   5.637  15.325  0.2906 -0.6719 -0.0218
   9323SM  H13S12538   6.548   5.711  15.307  2.9374  2.7926  1.2097
   9323SM  H13T12539   6.723   5.694  15.314 -0.3722  0.3887 -0.2948
   9323SM  C14S12540   6.612   5.570  15.463 -0.5367  0.4975  0.2574
   9323SM  H14S12541   6.528   5.497  15.464 -1.0540  1.0811 -0.2455
   9323SM  H14T12542   6.578   5.651  15.530  0.1778 -0.6096  2.0473
   9323SM  C15S12543   6.740   5.505  15.504 -1.0152 -0.2933 -0.8346
   9323SM  H15S12544   6.776   5.421  15.440  1.8323 -0.0127  0.2318
   9323SM  H15T12545   6.822   5.581  15.503 -1.4143  0.1438 -1.7797
   9323SM  C16S12546   6.751   5.439  15.646 -0.0016  0.0528  0.1020
   9323SM  H16S12547   6.845   5.382  15.659 -0.6737 -0.8995  0.9173
   9323SM  H16T12548   6.664   5.370  15.655 -1.6636  1.6975 -2.1974
   9323SM  C17S12549   6.708   5.541  15.752  0.2172 -1.1402 -0.3806
   9323SM  H17S12550   6.602   5.570  15.737  0.9483  1.9226 -0.2274
   9323SM  H17T12551   6.778   5.627  15.757 -0.7776 -0.3833  2.6831
   9323SM  C18S12552   6.713   5.475  15.883  0.0123 -0.2544 -0.5558
   9323SM  H18S12553   6.614   5.435  15.913  0.8539 -1.7433  0.4352
   9323SM  H18T12554   6.739   5.540  15.969 -1.7928 -0.5650  0.2626
   9323SM  H18U12555   6.795   5.399  15.877  2.0793  1.7345  0.8289
   9323SM   C1F12556   6.669   5.208  14.076  0.4911  0.3590 -0.3595
   9323SM    OF12557   6.754   5.188  13.997 -0.2127  0.7882 -0.5541
   9323SM   C2F12558   6.601   5.086  14.135 -1.1286 -0.3615 -0.4882
   9323SM   H2F12559   6.580   5.012  14.055  0.0490 -0.6771 -0.5180
   9323SM   H2G12560   6.500   5.106  14.177 -1.0323  3.1226 -1.5847
   9323SM   C3F12561   6.684   5.011  14.243  0.8605  0.0455 -0.4803
   9323SM   H3F12562   6.770   4.968  14.187  0.7481 -0.6239 -0.1448
   9323SM   H3G12563   6.622   4.922  14.266  0.0105  0.3520 -1.5142
   9323SM   C4F12564   6.713   5.092  14.373  0.0746 -0.2230  0.1846
   9323SM   H4F12565   6.617   5.114  14.424  0.2500 -0.2960  0.5520
   9323SM   H4G12566   6.760   5.188  14.344 -2.6638  1.3463  0.5805
   9323SM   C5F12567   6.810   5.027  14.470 -0.2406 -0.5662 -0.2966
   9323SM   H5F12568   6.902   4.993  14.418 -1.5729 -0.9148 -2.5939
   9323SM   H5G12569   6.759   4.930  14.486 -2.2526  0.7416  2.0478
   9323SM   C6F12570   6.818   5.097  14.606  0.6273 -0.2601  0.5410
   9323SM   H6F12571   6.717   5.128  14.640  1.9197  1.0977  3.5026
   9323SM   H6G12572   6.867   5.196  14.593 -2.6560  1.3316 -0.8720
   9323SM   C7F12573   6.893   5.013  14.709 -0.6432  0.4431  0.4160
   9323SM   H7F12574   7.000   4.991  14.689  0.2358  2.8567  1.9474
   9323SM   H7G12575   6.845   4.913  14.709  0.9871 -0.4230  2.8464
   9323SM   C8F12576   6.876   5.054  14.851 -0.4581  0.4922 -0.7412
   9323SM   H8F12577   6.769   5.046  14.882 -0.4246  1.0130 -0.4828
   9323SM   H8G12578   6.901   5.161  14.864  1.1515  0.0982 -0.3165
   9323SM   C9F12579   6.949   4.973  14.952 -0.4199 -0.1029 -0.0098
   9323SM   H9F12580   7.051   4.960  14.910 -1.2103 -1.3023 -1.6793
   9323SM   H9G12581   6.899   4.874  14.965  1.8406 -0.9738  3.2131
   9323SM  C10F12582   6.955   5.038  15.089  0.6277 -0.0169  0.2436
   9323SM  H10F12583   6.973   5.147  15.080  0.6923 -0.0452  0.0493
   9323SM  H10G12584   7.035   4.992  15.151 -0.3519  0.5172  1.9866
   9323SM  C11F12585   6.825   5.009  15.172 -0.2845  0.6196  0.4754
   9323SM  H11F12586   6.813   4.899  15.180 -0.0462  0.5494 -0.0739
   9323SM  H11G12587   6.739   5.045  15.110 -0.7176  1.8285  1.7329
   9323SM  C12F12588   6.819   5.070  15.309 -0.0955  0.3781 -0.2427
   9323SM  H12F12589   6.836   5.180  15.304 -1.2102  0.5447 -0.7852
   9323SM  H12G12590   6.895   5.031  15.380 -0.0586 -0.2259 -0.6055
   9323SM  C13F12591   6.670   5.052  15.361 -0.0913 -0.7278  0.1220
   9323SM  H13F12592   6.650   4.942  15.360 -1.5548 -0.4908  0.3552
   9323SM  H13G12593   6.597   5.092  15.287 -0.2752 -1.2575  0.0068
   9323SM  C14F12594   6.650   5.111  15.499  0.2414  0.2050  0.8613
   9323SM  H14F12595   6.632   5.220  15.494 -1.1390 -0.0459 -0.1844
   9323SM  H14G12596   6.740   5.087  15.560  0.2488 -0.3425  0.6437
   9323SM  C15F12597   6.533   5.044  15.570  0.4426 -1.1791 -0.3956
   9323SM  H15F12598   6.534   4.933  15.576  1.7211 -1.2731 -1.9066
   9323SM  H15G12599   6.446   5.085  15.513  1.4375  1.8561  0.0605
   9323SM  C16F12600   6.512   5.107  15.709  0.2559 -0.7154 -1.0152
   9323SM  H16F12601   6.469   5.210  15.716  0.9122 -0.5394  1.9683
   9323SM  H16G12602   6.608   5.119  15.764 -0.2495  2.8250 -0.6143
   9323SM  C17F12603   6.418   5.026  15.799 -0.2460 -0.1073  0.2735
   9323SM  H17F12604   6.409   5.070  15.901 -0.2186  1.2713 -0.3068
   9323SM  H17G12605   6.449   4.919  15.792  1.8539  0.5492 -1.5005
   9323SM  C18F12606   6.272   5.021  15.742  0.6089  1.0163 -0.6638
   9323SM  H18F12607   6.275   4.982  15.638 -0.4362  1.2921 -0.8098
   9323SM  H18G12608   6.234   5.126  15.745  2.1443  1.6398 -1.5406
   9323SM  C19F12609   6.172   4.928  15.831 -0.3996 -0.6335  0.4474
   9323SM  H19F12610   6.219   4.828  15.847 -2.5121 -1.5733  1.1412
   9323SM  H19G12611   6.090   4.910  15.758  0.0819  0.3942 -0.3644
   9323SM  C20F12612   6.116   5.002  15.948  0.3570  0.1578 -0.7829
   9323SM  H20F12613   6.069   5.101  15.930 -0.6780  0.2673  2.0384
   9323SM  H20G12614   6.201   5.008  16.018 -0.0638 -1.1416 -0.1250
   9323SM  C21F12615   6.008   4.917  16.020  0.7038  0.1238 -0.6189
   9323SM  H21F12616   6.031   4.811  15.994  1.4891 -0.3239  1.7147
   9323SM  H21G12617   5.908   4.941  15.979  1.5633  1.5812 -2.0147
   9323SM  C22F12618   6.011   4.930  16.173  0.0789 -0.4086 -0.0109
   9323SM  H22F12619   6.120   4.935  16.194 -0.1396 -0.5125  1.2109
   9323SM  H22G12620   5.969   4.843  16.228  1.6991 -0.6171  0.9462
   9323SM  C23F12621   5.959   5.068  16.229 -0.1910 -0.2451  0.8366
   9323SM  H23F12622   6.017   5.143  16.171 -1.0568 -0.4314 -0.3128
   9323SM  H23G12623   5.975   5.088  16.337 -0.6559 -0.6166  0.9803
   9323SM  H23H12624   5.854   5.091  16.198  0.2891  1.9575  0.7064
   9423SM     N12625   5.248   6.982  13.210  0.5097  0.2290 -1.0221
   9423SM   C1512626   5.204   7.113  13.156 -0.5705 -0.3598  0.2528
   9423SM  H15A12627   5.168   7.103  13.054  0.0312  1.1482 -0.1333
   9423SM  H15B12628   5.285   7.182  13.137  0.6321 -1.2885  1.7816
   9423SM  H15C12629   5.133   7.163  13.219  0.0065  2.3214 -1.0798
   9423SM   C1412630   5.315   7.010  13.337 -0.0217 -0.6594 -0.4505
   9423SM  H14A12631   5.245   7.042  13.412  0.4922 -0.2040 -0.1605
   9423SM  H14B12632   5.389   7.086  13.321 -0.5693 -0.5854 -3.0950
   9423SM  H14C12633   5.361   6.916  13.366  1.1026 -0.7562 -2.3432
   9423SM   C1312634   5.136   6.893  13.235  0.6435 -0.5391  0.2434
   9423SM  H13A12635   5.083   6.931  13.321  1.0595  1.4264 -0.3388
   9423SM  H13B12636   5.166   6.794  13.265  1.6577 -0.0807  0.7696
   9423SM  H13C12637   5.074   6.875  13.148 -0.1810 -1.8557  1.0674
   9423SM   C1212638   5.352   6.919  13.119 -0.0124  0.2398 -0.0304
   9423SM  H12A12639   5.440   6.982  13.112  0.3186 -0.3922 -2.6633
   9423SM  H12B12640   5.305   6.929  13.022  1.1931  2.9200 -0.4520
   9423SM   C1112641   5.398   6.773  13.149  0.1101  0.0995 -0.4931
   9423SM  H11A12642   5.471   6.745  13.069  0.7128 -0.1188  0.1268
   9423SM  H11B12643   5.311   6.705  13.139 -1.1968  0.5268  4.9652
   9423SM     P12644   5.449   6.602  13.337 -0.0224  0.3444  0.3087
   9423SM   O1312645   5.328   6.529  13.299 -0.0153  0.7033  0.3289
   9423SM   O1412646   5.579   6.537  13.310 -0.2016  0.2247 -0.2069
   9423SM   O1112647   5.446   6.633  13.492 -0.3373 -0.0249  0.2392
   9423SM   O1212648   5.442   6.756  13.282 -1.0677  0.1962  0.5016
   9423SM   C1S12649   5.334   6.696  13.563 -0.2526 -0.2481  0.6064
   9423SM   H1S12650   5.245   6.632  13.584 -1.1367  1.3119  1.9333
   9423SM   H1T12651   5.294   6.792  13.523 -0.2526  0.6723  2.6565
   9423SM    NF12652   5.275   6.758  13.797 -0.2665  0.3761  0.0635
   9423SM   HNF12653   5.277   6.851  13.834 -0.2936  0.0359  0.9485
   9423SM   C2S12654   5.383   6.727  13.708  0.0702  0.1786 -0.2537
   9423SM   H2S12655   5.426   6.627  13.730  0.7565  0.6714  0.7421
   9423SM   C3S12656   5.498   6.830  13.703  0.2192  0.2915  0.5919
   9423SM   H3S12657   5.452   6.917  13.653 -1.8638 -1.2115 -0.2917
   9423SM    O312658   5.620   6.799  13.633 -0.2214 -0.4180  0.0913
   9423SM   HO312659   5.603   6.716  13.588 -1.6158 -0.1462  0.0728
   9423SM   C4S12660   5.540   6.878  13.838  0.4685 -0.0806 -0.6304
   9423SM   H4S12661   5.601   6.812  13.901 -0.5955  1.3753  2.0946
   9423SM   C5S12662   5.510   6.991  13.898 -0.3816 -0.1317 -0.8075
   9423SM   H5S12663   5.431   7.058  13.859  0.2653  1.7353  0.9019
   9423SM   C6S12664   5.551   7.018  14.039 -0.3462 -0.0733  0.2029
   9423SM   H6S12665   5.612   7.111  14.048 -0.6112  0.2067 -0.8060
   9423SM   H6T12666   5.617   6.940  14.082 -0.3228 -0.2134 -0.0877
   9423SM   C7S12667   5.431   7.031  14.129  0.8531 -0.3364 -0.0126
   9423SM   H7S12668   5.383   6.931  14.134  1.0894 -0.5378 -1.3543
   9423SM   H7T12669   5.360   7.100  14.079  1.2880 -1.0379 -1.6778
   9423SM   C8S12670   5.471   7.094  14.263 -0.7441  0.5739  0.2157
   9423SM   H8S12671   5.553   7.168  14.246 -0.4000 -0.0419 -0.9543
   9423SM   H8T12672   5.516   7.019  14.331 -3.2032 -0.0560  1.2374
   9423SM   C9S12673   5.359   7.159  14.346  0.3265 -0.0880 -0.3569
   9423SM   H9S12674   5.273   7.090  14.358  1.2026 -1.3852 -1.2444
   9423SM   H9T12675   5.337   7.251  14.288  0.3447  1.2322  1.6349
   9423SM  C10S12676   5.405   7.198  14.488 -0.1293  0.4587 -0.2767
   9423SM  H10S12677   5.509   7.235  14.477  0.0721  0.7018  2.0296
   9423SM  H10T12678   5.402   7.104  14.546  2.4762  1.0722  0.9942
   9423SM  C11S12679   5.332   7.304  14.568  0.2148  0.1657 -0.5309
   9423SM  H11S12680   5.320   7.400  14.513  1.5847  0.9141  0.4050
   9423SM  H11T12681   5.384   7.321  14.665  0.5573 -2.1081 -0.2796
   9423SM  C12S12682   5.186   7.265  14.580  0.5300 -0.2928 -0.8096
   9423SM  H12S12683   5.180   7.192  14.664 -0.3237 -1.1357 -1.5904
   9423SM  H12T12684   5.141   7.215  14.492  1.9530 -4.2181  0.4739
   9423SM  C13S12685   5.097   7.389  14.604 -0.3027 -0.0703  0.2574
   9423SM  H13S12686   4.996   7.359  14.570  0.6574 -2.9368 -0.3307
   9423SM  H13T12687   5.125   7.485  14.555  1.5507 -0.5507  0.3027
   9423SM  C14S12688   5.090   7.431  14.754  0.6346  0.3510  0.2406
   9423SM  H14S12689   5.192   7.468  14.777  0.2046  0.0023  3.0018
   9423SM  H14T12690   5.079   7.338  14.815  2.2037 -0.0589 -0.0575
   9423SM  C15S12691   4.975   7.529  14.790 -0.5681  0.3020  0.5457
   9423SM  H15S12692   4.993   7.553  14.897  0.4439  0.7743  0.2786
   9423SM  H15T12693   4.876   7.480  14.783 -1.0317  1.0233  1.7790
   9423SM  C16S12694   4.987   7.662  14.714  0.0785  0.0588  0.1364
   9423SM  H16S12695   4.979   7.635  14.607 -1.9826 -1.8710  0.6902
   9423SM  H16T12696   5.091   7.702  14.716  1.4608 -2.9553 -2.8360
   9423SM  C17S12697   4.880   7.770  14.747  0.4746  0.1625  0.8584
   9423SM  H17S12698   4.901   7.864  14.693  1.4953 -0.9384 -0.7769
   9423SM  H17T12699   4.868   7.782  14.856  0.9532 -0.7344  1.0233
   9423SM  C18S12700   4.748   7.727  14.690  0.3122 -0.4823  0.1926
   9423SM  H18S12701   4.698   7.659  14.762 -0.1129 -0.9450 -0.5254
   9423SM  H18T12702   4.761   7.668  14.597 -0.7399  2.8371 -2.2747
   9423SM  H18U12703   4.680   7.814  14.676  0.0524 -0.5286  1.1428
   9423SM   C1F12704   5.191   6.666  13.842  0.1618 -0.8296 -0.4638
   9423SM    OF12705   5.202   6.548  13.811  0.6189  0.6986  0.4291
   9423SM   C2F12706   5.068   6.707  13.921  0.2905 -0.0467  0.1605
   9423SM   H2F12707   5.000   6.619  13.924 -0.7394  0.7420  0.7317
   9423SM   H2G12708   5.012   6.786  13.867  0.1844 -0.0816  0.2193
   9423SM   C3F12709   5.093   6.754  14.070 -1.4059  0.3005  0.5110
   9423SM   H3F12710   5.153   6.847  14.081  0.1617 -0.4188 -1.3927
   9423SM   H3G12711   5.151   6.673  14.118 -0.4530  0.1740 -0.7933
   9423SM   C4F12712   4.965   6.802  14.149  0.5304 -0.6884 -0.6035
   9423SM   H4F12713   4.897   6.715  14.142 -2.7305  1.8001 -3.6560
   9423SM   H4G12714   4.920   6.877  14.080 -1.2484 -1.4570 -0.3295
   9423SM   C5F12715   4.984   6.845  14.292  0.5810  0.5141  0.5742
   9423SM   H5F12716   5.054   6.931  14.300  1.4121 -0.1578  0.7277
   9423SM   H5G12717   5.046   6.769  14.346  2.3993  1.0009 -0.7393
   9423SM   C6F12718   4.857   6.873  14.376  0.2166  0.1629  0.0405
   9423SM   H6F12719   4.795   6.782  14.390  2.0919 -1.3032 -0.7733
   9423SM   H6G12720   4.792   6.953  14.335 -1.0837 -1.5681 -1.4464
   9423SM   C7F12721   4.890   6.910  14.517  0.2672 -0.0170 -0.0988
   9423SM   H7F12722   4.958   6.999  14.518  0.9856 -0.4617 -2.5511
   9423SM   H7G12723   4.953   6.826  14.553 -0.7193 -1.0402 -0.7228
   9423SM   C8F12724   4.763   6.927  14.604 -0.0605  0.3179 -0.1771
   9423SM   H8F12725   4.780   6.937  14.714 -2.0070  0.4870  0.1461
   9423SM   H8G12726   4.716   6.826  14.601 -1.9761  1.1444  0.3145
   9423SM   C9F12727   4.655   7.031  14.558 -1.2639 -0.0589  0.2430
   9423SM   H9F12728   4.573   7.052  14.629 -1.4344 -0.9761  0.3256
   9423SM   H9G12729   4.619   6.998  14.458 -0.4657 -0.7252  0.1689
   9423SM  C10F12730   4.729   7.167  14.539 -0.5449  0.0195 -0.8351
   9423SM  H10F12731   4.800   7.155  14.454  0.1308 -1.2004 -0.1243
   9423SM  H10G12732   4.788   7.196  14.629  0.5220 -1.0256 -1.1733
   9423SM  C11F12733   4.640   7.293  14.524  0.6384  0.0229 -0.0694
   9423SM  H11F12734   4.564   7.281  14.444  0.5450 -1.5178  0.2284
   9423SM  H11G12735   4.708   7.375  14.492  3.2577 -1.6745  0.8081
   9423SM  C12F12736   4.573   7.338  14.652 -0.6271 -0.0405 -0.0337
   9423SM  H12F12737   4.649   7.354  14.732 -0.3966  0.7373 -0.4056
   9423SM  H12G12738   4.521   7.248  14.693 -0.4416 -1.2484 -2.3116
   9423SM  C13F12739   4.486   7.465  14.640 -0.5567 -0.0554  0.0377
   9423SM  H13F12740   4.553   7.540  14.593 -1.2586  0.8906  0.5000
   9423SM  H13G12741   4.472   7.515  14.738  2.6270 -0.1283  0.6449
   9423SM  C14F12742   4.352   7.455  14.575 -0.9695  0.5226  0.7223
   9423SM  H14F12743   4.355   7.377  14.496 -0.4478  0.5597  0.7026
   9423SM  H14G12744   4.329   7.556  14.534 -0.3665 -0.0717 -1.1870
   9423SM  C15F12745   4.239   7.425  14.672 -0.6131  0.9611 -0.0629
   9423SM  H15F12746   4.247   7.477  14.770  1.9578  0.5393 -0.0038
   9423SM  H15G12747   4.240   7.316  14.697  1.4313  0.2374 -2.8346
   9423SM  C16F12748   4.107   7.465  14.607  0.0044 -0.4203  0.5630
   9423SM  H16F12749   4.076   7.402  14.521  0.2703 -1.4897  1.2284
   9423SM  H16G12750   4.114   7.569  14.568 -0.0059 -1.6140 -2.9404
   9423SM  C17F12751   3.991   7.451  14.703 -0.1447 -0.0563  0.9924
   9423SM  H17F12752   4.003   7.523  14.787  1.5332  2.0294 -0.9264
   9423SM  H17G12753   3.983   7.346  14.738  0.3581 -0.1876  0.7137
   9423SM  C18F12754   3.854   7.489  14.628  0.1617 -0.1835  0.8694
   9423SM  H18F12755   3.830   7.415  14.549 -0.5276  0.8754  0.0625
   9423SM  H18G12756   3.858   7.589  14.581 -1.8870 -0.2975  0.3605
   9423SM  C19F12757   3.737   7.476  14.721  0.1874 -0.2727 -0.5186
   9423SM  H19F12758   3.759   7.523  14.819  1.4113 -1.2601 -0.2992
   9423SM  H19G12759   3.716   7.369  14.742  1.5696 -0.4456  0.1064
   9423SM  C20F12760   3.609   7.547  14.671 -0.4889 -0.1462  0.4899
   9423SM  H20F12761   3.520   7.517  14.730 -0.6864  0.1878  0.3709
   9423SM  H20G12762   3.604   7.514  14.565 -0.2085 -1.6642  0.9241
   9423SM  C21F12763   3.634   7.696  14.658 -0.4883 -0.8243 -0.1852
   9423SM  H21F12764   3.720   7.716  14.591  1.4683 -2.3296  1.7020
   9423SM  H21G12765   3.686   7.726  14.752 -1.1390 -0.4276  0.0559
   9423SM  C22F12766   3.518   7.790  14.641  0.3084 -0.7591 -0.2393
   9423SM  H22F12767   3.463   7.786  14.737  0.9769  1.6534  0.2981
   9423SM  H22G12768   3.447   7.752  14.564  1.1617 -2.4824 -0.2197
   9423SM  C23F12769   3.552   7.928  14.602  0.1806 -0.1145 -0.2039
   9423SM  H23F12770   3.587   7.991  14.686 -0.5707  1.7193 -1.1821
   9423SM  H23G12771   3.463   7.978  14.556  1.1568  0.4685 -1.5440
   9423SM  H23H12772   3.636   7.925  14.529 -0.6399  0.3298 -1.2096
   9523SM     N12773   8.422   3.338  13.359  0.2558  0.6466  0.3170
   9523SM   C1512774   8.476   3.372  13.501  0.0235  0.0842  0.8884
   9523SM  H15A12775   8.409   3.333  13.577  0.3912 -0.8544  0.7396
   9523SM  H15B12776   8.482   3.478  13.519 -1.0050  0.6939 -1.8612
   9523SM  H15C12777   8.572   3.324  13.506  0.6702  1.1953 -0.3053
   9523SM   C1412778   8.290   3.406  13.346  0.2428 -0.2948 -0.0253
   9523SM  H14A12779   8.309   3.513  13.342  3.5102 -0.8076 -1.4684
   9523SM  H14B12780   8.215   3.366  13.412  1.1534 -1.1179  0.5310
   9523SM  H14C12781   8.241   3.376  13.254 -0.4843  0.1283  0.2119
   9523SM   C1312782   8.514   3.403  13.262 -0.0650  0.1259  0.2435
   9523SM  H13A12783   8.471   3.419  13.165  0.0389 -0.9062  0.0161
   9523SM  H13B12784   8.600   3.342  13.238  0.2593  0.3270  0.8668
   9523SM  H13C12785   8.549   3.498  13.300  2.6785 -0.1476 -1.3691
   9523SM   C1212786   8.409   3.187  13.332  0.5297 -0.3783  0.2447
   9523SM  H12A12787   8.404   3.171  13.226 -0.4319  2.4555 -0.2174
   9523SM  H12B12788   8.316   3.160  13.378  0.4084 -0.5305 -0.0892
   9523SM   C1112789   8.519   3.090  13.385 -0.0265 -0.0261  0.3098
   9523SM  H11A12790   8.494   2.985  13.358  1.1670 -1.0789  2.9082
   9523SM  H11B12791   8.521   3.098  13.496  0.7705 -0.2472  0.3160
   9523SM     P12792   8.771   3.037  13.353  0.0823  0.0656  0.2043
   9523SM   O1312793   8.756   2.912  13.275 -0.2353  0.1370  0.0991
   9523SM   O1412794   8.888   3.121  13.336 -0.1912  0.1737  0.1060
   9523SM   O1112795   8.762   2.988  13.499  0.1527 -0.2164 -0.6164
   9523SM   O1212796   8.644   3.118  13.332 -0.0525 -0.3325 -0.2291
   9523SM   C1S12797   8.872   2.936  13.574 -0.5749  0.1100 -0.7431
   9523SM   H1S12798   8.934   3.021  13.607 -2.6777  1.7731 -0.8937
   9523SM   H1T12799   8.929   2.861  13.514 -1.1306 -0.2401 -0.8511
   9523SM    NF12800   8.949   2.799  13.756  0.2565  0.4851  0.2685
   9523SM   HNF12801   8.973   2.703  13.741  1.0828  0.2119  2.8590
   9523SM   C2S12802   8.829   2.846  13.694  1.0243 -0.7245  0.8922
   9523SM   H2S12803   8.772   2.909  13.765  1.3135 -0.6057  1.0206
   9523SM   C3S12804   8.726   2.737  13.642 -0.5813 -0.4799  0.5188
   9523SM   H3S12805   8.789   2.672  13.578 -0.8469 -1.4585  1.2264
   9523SM    O312806   8.618   2.775  13.554 -0.1803  0.0136  0.0669
   9523SM   HO312807   8.648   2.859  13.520  1.0477  0.2873  1.7139
   9523SM   C4S12808   8.683   2.644  13.749  0.3301  0.0814  0.1284
   9523SM   H4S12809   8.715   2.540  13.735 -1.6445 -0.4778 -0.6302
   9523SM   C5S12810   8.594   2.665  13.844  0.3981  0.0281 -0.8643
   9523SM   H5S12811   8.541   2.762  13.844 -0.3425 -0.3661 -1.3992
   9523SM   C6S12812   8.544   2.558  13.938  0.1600  0.4243 -0.6688
   9523SM   H6S12813   8.479   2.483  13.888  1.1295 -0.0233 -1.2864
   9523SM   H6T12814   8.496   2.605  14.026 -0.2999 -2.1599  0.5566
   9523SM   C7S12815   8.646   2.465  13.999 -0.1141 -0.2834 -0.1464
   9523SM   H7S12816   8.737   2.519  14.034  0.1347 -0.3976 -0.6022
   9523SM   H7T12817   8.688   2.399  13.919 -2.1733 -1.9572  0.0719
   9523SM   C8S12818   8.604   2.378  14.126 -0.5458 -0.7072 -0.9686
   9523SM   H8S12819   8.599   2.454  14.206 -0.7977 -1.2663 -0.4440
   9523SM   H8T12820   8.690   2.310  14.144  0.2121  0.3312 -0.6398
   9523SM   C9S12821   8.473   2.299  14.122  0.2781 -0.5695  0.0018
   9523SM   H9S12822   8.454   2.242  14.029  0.7665 -1.6275  0.5335
   9523SM   H9T12823   8.384   2.364  14.130 -0.6171 -1.7016 -0.5491
   9523SM  C10S12824   8.471   2.198  14.241  0.6482 -0.0865  0.0741
   9523SM  H10S12825   8.486   2.260  14.332  0.4223  0.2767 -0.1346
   9523SM  H10T12826   8.549   2.118  14.235 -2.1049 -3.0434  0.9390
   9523SM  C11S12827   8.334   2.125  14.253  0.1849 -0.3351  0.1751
   9523SM  H11S12828   8.317   2.048  14.174 -2.3064 -0.1101  0.4272
   9523SM  H11T12829   8.250   2.197  14.243  0.3043 -0.2191  0.0210
   9523SM  C12S12830   8.324   2.070  14.396 -0.2434  0.4455  0.2978
   9523SM  H12S12831   8.322   2.147  14.476 -1.2594 -0.9126  1.6444
   9523SM  H12T12832   8.410   2.005  14.422  0.2527  0.9471 -0.0480
   9523SM  C13S12833   8.193   1.991  14.431  0.2511 -0.3037 -0.1610
   9523SM  H13S12834   8.113   2.061  14.397 -0.3440 -0.4441  0.9200
   9523SM  H13T12835   8.192   1.986  14.542 -0.9780  4.3746  0.2595
   9523SM  C14S12836   8.183   1.860  14.371  0.6248  0.2804 -0.3186
   9523SM  H14S12837   8.264   1.801  14.418 -0.2651 -0.2450  0.5883
   9523SM  H14T12838   8.212   1.862  14.263  3.1162 -1.2988  0.2306
   9523SM  C15S12839   8.052   1.787  14.385 -0.2224  0.4371  0.3298
   9523SM  H15S12840   7.966   1.856  14.366 -1.9975 -1.9350 -0.8491
   9523SM  H15T12841   8.053   1.747  14.489  3.2272 -0.8420 -0.0619
   9523SM  C16S12842   8.034   1.670  14.289 -0.4974  0.3070 -0.1556
   9523SM  H16S12843   8.120   1.600  14.285  1.1680  2.1676  1.2913
   9523SM  H16T12844   8.026   1.712  14.187 -0.6058 -0.5508 -0.5118
   9523SM  C17S12845   7.907   1.589  14.319  0.0679  1.1037 -0.2846
   9523SM  H17S12846   7.823   1.661  14.333 -0.5218  0.5963 -1.0537
   9523SM  H17T12847   7.900   1.530  14.412 -0.7350  0.4477 -0.7408
   9523SM  C18S12848   7.853   1.492  14.213 -0.4365  0.0802  0.5874
   9523SM  H18S12849   7.935   1.417  14.207  1.2835  1.9129  0.0636
   9523SM  H18T12850   7.833   1.543  14.116  2.3667  1.3076  0.5378
   9523SM  H18U12851   7.770   1.433  14.256 -0.4865 -0.2369  0.0628
   9523SM   C1F12852   9.023   2.880  13.833 -0.4390  0.1209 -0.3444
   9523SM    OF12853   8.979   2.990  13.868  0.2684  0.4825 -0.3561
   9523SM   C2F12854   9.160   2.824  13.872 -0.2739 -0.3920 -0.0063
   9523SM   H2F12855   9.228   2.813  13.785  0.8536 -1.0905  0.9344
   9523SM   H2G12856   9.143   2.719  13.904  0.3283 -0.2147  0.9415
   9523SM   C3F12857   9.221   2.904  13.990  0.0704  0.0348  0.0926
   9523SM   H3F12858   9.162   2.893  14.083 -1.3982  0.7038 -0.7267
   9523SM   H3G12859   9.231   3.014  13.972 -0.5702  0.3773  1.6675
   9523SM   C4F12860   9.353   2.852  14.037 -0.3304 -0.6259  0.3728
   9523SM   H4F12861   9.419   2.838  13.949 -0.3447 -1.5463  0.4908
   9523SM   H4G12862   9.346   2.748  14.076  1.9602 -0.7613  0.5704
   9523SM   C5F12863   9.422   2.948  14.133 -0.0603  0.8917 -0.8052
   9523SM   H5F12864   9.346   2.973  14.210 -1.1602 -0.6077 -1.3491
   9523SM   H5G12865   9.446   3.045  14.085 -1.9980  1.1105 -1.4353
   9523SM   C6F12866   9.546   2.883  14.199 -0.8685 -0.1383 -0.0219
   9523SM   H6F12867   9.617   2.867  14.115  2.3389 -0.8602  2.6122
   9523SM   H6G12868   9.540   2.779  14.236  0.5553 -0.6061 -1.0332
   9523SM   C7F12869   9.601   2.974  14.305  0.2160  0.5589 -0.1200
   9523SM   H7F12870   9.615   3.077  14.267  1.5345  0.5655  0.3195
   9523SM   H7G12871   9.702   2.948  14.343 -0.3189  1.4753  2.1049
   9523SM   C8F12872   9.517   2.985  14.434 -0.4926 -0.8833 -0.6205
   9523SM   H8F12873   9.496   2.880  14.465 -0.4813 -0.2383  1.7428
   9523SM   H8G12874   9.427   3.046  14.412  0.1878 -0.1931 -1.5931
   9523SM   C9F12875   9.610   3.057  14.544  0.0825  0.3679 -0.3221
   9523SM   H9F12876   9.636   3.159  14.507 -0.8491  0.1371 -1.7143
   9523SM   H9G12877   9.693   2.987  14.564 -1.1290 -0.3042  2.8312
   9523SM  C10F12878   9.537   3.061  14.679 -0.9574 -0.2340 -0.1939
   9523SM  H10F12879   9.496   2.958  14.690 -1.8702  0.1593  0.2602
   9523SM  H10G12880   9.443   3.119  14.668  0.0508  1.5570  0.2565
   9523SM  C11F12881   9.624   3.109  14.790  0.1194 -0.7956 -0.5081
   9523SM  H11F12882   9.569   3.187  14.847  1.2777 -0.9661  0.8833
   9523SM  H11G12883   9.704   3.172  14.745 -1.0000  2.2877  1.4773
   9523SM  C12F12884   9.683   2.999  14.876 -0.2061  0.0550 -0.3593
   9523SM  H12F12885   9.705   2.915  14.807 -2.0558 -1.4284  0.7557
   9523SM  H12G12886   9.604   2.956  14.940 -0.9354 -1.3627 -2.1275
   9523SM  C13F12887   9.820   3.036  14.944 -0.4340  0.2406 -0.1330
   9523SM  H13F12888   9.860   3.122  14.886  1.4090 -0.0836  0.5959
   9523SM  H13G12889   9.890   2.950  14.938  0.4428  1.0202 -2.1469
   9523SM  C14F12890   9.810   3.076  15.092  0.5583  0.0338 -0.5542
   9523SM  H14F12891   9.763   2.996  15.153 -1.5221  1.8575  0.3930
   9523SM  H14G12892   9.733   3.156  15.100 -0.6109 -1.0884 -0.1652
   9523SM  C15F12893   9.939   3.114  15.164  0.1202  1.1075  0.4953
   9523SM  H15F12894   9.912   3.150  15.266 -1.7005  3.0416 -0.5739
   9523SM  H15G12895   9.976   3.205  15.112 -2.1267  2.0981  0.5059
   9523SM  C16F12896  10.044   3.009  15.166 -0.0409 -0.0236  0.5696
   9523SM  H16F12897  10.116   3.053  15.238 -0.8300  0.7560  0.8998
   9523SM  H16G12898  10.104   3.001  15.073  0.9650  1.1734  1.0896
   9523SM  C17F12899  10.008   2.864  15.206 -0.0613  0.3164 -0.0813
   9523SM  H17F12900   9.983   2.815  15.110  0.8521  2.8186 -1.6883
   9523SM  H17G12901   9.922   2.852  15.275  0.2797 -1.2290  0.1131
   9523SM  C18F12902  10.130   2.785  15.262 -0.1437  0.7600 -0.2134
   9523SM  H18F12903  10.214   2.789  15.190  0.7119  0.3863  0.7285
   9523SM  H18G12904  10.101   2.680  15.284  0.3416  0.4622 -0.9704
   9523SM  C19F12905  10.190   2.829  15.401  0.6328  0.1498  0.4494
   9523SM  H19F12906  10.111   2.801  15.475 -0.3484  0.5912 -0.3951
   9523SM  H19G12907  10.192   2.939  15.389 -0.9505  0.1402 -0.1444
   9523SM  C20F12908  10.318   2.747  15.431 -0.4081 -0.0479  0.0475
   9523SM  H20F12909  10.392   2.784  15.357 -1.4044  1.0248 -0.4386
   9523SM  H20G12910  10.294   2.641  15.410  0.3059  0.0488 -1.3882
   9523SM  C21F12911  10.368   2.755  15.577 -0.4067  0.2342  0.0849
   9523SM  H21F12912  10.427   2.664  15.599  0.2479  0.1961 -1.6285
   9523SM  H21G12913  10.280   2.746  15.644 -1.0082  1.3551 -0.5145
   9523SM  C22F12914  10.457   2.883  15.593 -0.4103  0.6713  0.1544
   9523SM  H22F12915  10.506   2.905  15.496 -0.6025  0.6713  0.0569
   9523SM  H22G12916  10.535   2.861  15.669 -0.0817  0.6887 -0.1770
   9523SM  C23F12917  10.375   3.000  15.639  0.4708  0.0007  0.0908
   9523SM  H23F12918  10.435   3.093  15.633  0.1652  0.3123  1.5609
   9523SM  H23G12919  10.347   3.003  15.746  0.3926  1.0857  0.0507
   9523SM  H23H12920  10.286   3.025  15.577 -0.2381  1.6389  1.6729
   9623SM     N12921   1.861   0.445  13.519 -0.1731  0.4778  0.5206
   9623SM   C1512922   1.941   0.564  13.488 -0.1951  0.1104  0.0165
   9623SM  H15A12923   1.915   0.615  13.396 -1.7974  1.6748  1.2534
   9623SM  H15B12924   2.040   0.534  13.457 -0.9466 -1.3917 -1.0269
   9623SM  H15C12925   1.940   0.638  13.567  0.8334  0.3650 -0.1959
   9623SM   C1412926   1.745   0.467  13.607 -0.4591 -0.2197  0.3062
   9623SM  H14A12927   1.770   0.492  13.709 -1.1256 -0.4694  0.5383
   9623SM  H14B12928   1.679   0.381  13.617 -0.5741 -0.1276  0.3509
   9623SM  H14C12929   1.684   0.547  13.568 -1.0500 -0.2501  1.1266
   9623SM   C1312930   1.807   0.396  13.385 -0.2930 -1.2882 -0.5948
   9623SM  H13A12931   1.888   0.400  13.312  1.2563  0.3010  1.1101
   9623SM  H13B12932   1.733   0.455  13.334 -1.2088 -0.3419  1.7114
   9623SM  H13C12933   1.761   0.299  13.385 -1.9812 -0.5294 -0.3527
   9623SM   C1212934   1.948   0.332  13.566 -0.2308 -0.2351  0.0413
   9623SM  H12A12935   1.872   0.255  13.573 -0.5959  0.0468 -0.6700
   9623SM  H12B12936   1.999   0.350  13.659  0.2846 -2.4658  0.2611
   9623SM   C1112937   2.059   0.270  13.469  0.1211  0.0071 -0.1520
   9623SM  H11A12938   2.009   0.246  13.373  0.4907  3.2461 -1.2945
   9623SM  H11B12939   2.101   0.178  13.515  0.3456  0.5272  0.7288
   9623SM     P12940   2.274   0.337  13.340  0.3230 -0.5799 -0.6896
   9623SM   O1312941   2.258   0.206  13.276 -0.3700 -0.1761  0.6320
   9623SM   O1412942   2.271   0.455  13.256  0.3054  0.5937  0.2790
   9623SM   O1112943   2.411   0.327  13.422 -0.0861 -0.2082 -0.5489
   9623SM   O1212944   2.167   0.361  13.455 -0.0020 -0.5773  0.2460
   9623SM   C1S12945   2.393   0.335  13.566 -0.2067 -0.0571 -0.5751
   9623SM   H1S12946   2.327   0.251  13.596 -0.1017 -0.3259 -1.0857
   9623SM   H1T12947   2.355   0.436  13.592  0.5765 -0.3329  1.8379
   9623SM    NF12948   2.516   0.315  13.785  0.1409 -0.3229 -0.6087
   9623SM   HNF12949   2.538   0.398  13.835 -0.7472  0.1032 -0.9065
   9623SM   C2S12950   2.528   0.320  13.641  0.3661  0.3862 -0.0011
   9623SM   H2S12951   2.575   0.225  13.608 -1.7492 -0.5231 -0.5355
   9623SM   C3S12952   2.626   0.425  13.577  0.1815 -0.3650 -0.6390
   9623SM   H3S12953   2.578   0.525  13.579  0.6021 -0.1541 -0.8925
   9623SM    O312954   2.649   0.406  13.443  0.2880 -0.6863  0.6268
   9623SM   HO312955   2.561   0.387  13.410  0.1407 -0.1943  0.7365
   9623SM   C4S12956   2.760   0.437  13.641  0.0292 -0.5343  0.8104
   9623SM   H4S12957   2.832   0.367  13.598 -2.2093 -3.1815  1.1128
   9623SM   C5S12958   2.797   0.523  13.738 -0.3604 -1.2389  0.1796
   9623SM   H5S12959   2.724   0.583  13.793 -0.3072 -0.7237 -0.3041
   9623SM   C6S12960   2.936   0.523  13.785  0.3130  0.2373 -0.1257
   9623SM   H6S12961   2.995   0.565  13.700 -2.1294  1.6083 -1.2398
   9623SM   H6T12962   2.980   0.421  13.777 -1.6759 -0.5725 -1.5338
   9623SM   C7S12963   2.970   0.592  13.918  0.0980  0.2150  0.7355
   9623SM   H7S12964   2.948   0.699  13.901 -0.5643 -0.4327 -3.5237
   9623SM   H7T12965   3.075   0.575  13.949  0.8554  2.0625 -0.6908
   9623SM   C8S12966   2.860   0.559  14.026  0.6980  0.0915 -0.5936
   9623SM   H8S12967   2.888   0.461  14.070 -0.0982  0.4173  0.7136
   9623SM   H8T12968   2.758   0.556  13.980  0.0452  0.1106  0.7906
   9623SM   C9S12969   2.857   0.663  14.137  0.0794 -0.1193 -0.2682
   9623SM   H9S12970   2.783   0.629  14.212 -0.4780 -0.8496 -1.1204
   9623SM   H9T12971   2.823   0.762  14.098  0.3616 -0.7056 -2.0979
   9623SM  C10S12972   2.994   0.673  14.206 -0.3922  0.4464  0.0442
   9623SM  H10S12973   3.065   0.716  14.132 -0.6817  2.0147  0.6406
   9623SM  H10T12974   3.029   0.570  14.231 -0.2248  0.5067  0.0605
   9623SM  C11S12975   3.014   0.755  14.334 -0.0880 -0.4590  1.1106
   9623SM  H11S12976   2.999   0.862  14.308  1.7707 -0.6168 -0.9522
   9623SM  H11T12977   3.122   0.739  14.355  0.5799 -0.0481 -1.5955
   9623SM  C12S12978   2.926   0.703  14.449 -0.0235 -0.2873  0.2360
   9623SM  H12S12979   2.940   0.593  14.455 -0.4572 -0.3549  0.0253
   9623SM  H12T12980   2.823   0.721  14.414  0.1263 -0.1220 -0.1209
   9623SM  C13S12981   2.927   0.764  14.586 -0.6080 -0.0036 -0.4310
   9623SM  H13S12982   2.908   0.873  14.574  0.1090 -0.0310 -2.0368
   9623SM  H13T12983   3.025   0.757  14.637 -1.2240  1.0948  0.9510
   9623SM  C14S12984   2.837   0.700  14.693 -0.2572  0.8550  0.0094
   9623SM  H14S12985   2.873   0.595  14.691 -0.4837  0.7832 -0.3192
   9623SM  H14T12986   2.730   0.701  14.662 -0.1119 -0.7469 -0.6437
   9623SM  C15S12987   2.853   0.753  14.832 -0.9826  0.7245 -0.2084
   9623SM  H15S12988   2.960   0.758  14.864 -1.1944  3.8170  0.3794
   9623SM  H15T12989   2.801   0.684  14.902  1.8267 -1.9317 -0.5137
   9623SM  C16S12990   2.803   0.893  14.844 -0.4917 -0.1010 -0.3008
   9623SM  H16S12991   2.692   0.892  14.842 -0.4834 -0.9630 -1.0197
   9623SM  H16T12992   2.835   0.958  14.759 -0.4317 -0.6044 -0.6659
   9623SM  C17S12993   2.852   0.963  14.973 -0.0843  0.1603  0.0339
   9623SM  H17S12994   2.958   0.930  14.964 -0.6539 -1.5856 -0.6105
   9623SM  H17T12995   2.806   0.910  15.059  2.3517 -0.5717  0.9719
   9623SM  C18S12996   2.829   1.111  14.976 -0.1404 -0.3802 -0.7523
   9623SM  H18S12997   2.726   1.136  15.010  1.6562  1.8009  3.9521
   9623SM  H18T12998   2.834   1.153  14.874 -4.2147  1.4050 -0.4171
   9623SM  H18U12999   2.896   1.161  15.049 -1.5350  0.4293  0.0344
   9623SM   C1F13000   2.474   0.208  13.852 -0.3114  0.2462 -0.1747
   9623SM    OF13001   2.411   0.117  13.795  0.0813  0.1210  0.0322
   9623SM   C2F13002   2.495   0.217  13.994  0.2508 -0.0317 -0.2742
   9623SM   H2F13003   2.535   0.314  14.030  0.8110 -1.2010  2.5921
   9623SM   H2G13004   2.565   0.145  14.043  0.2158  0.2095  0.1396
   9623SM   C3F13005   2.368   0.189  14.081  0.4151 -0.2280  0.2152
   9623SM   H3F13006   2.325   0.094  14.042 -3.3555  1.3590  0.0488
   9623SM   H3G13007   2.289   0.266  14.070  0.3676 -0.1570  1.0388
   9623SM   C4F13008   2.397   0.173  14.229 -0.2668  0.6104  0.4974
   9623SM   H4F13009   2.475   0.249  14.253  0.4745 -0.4355  1.4847
   9623SM   H4G13010   2.453   0.077  14.225 -1.2550 -0.1731  3.2567
   9623SM   C5F13011   2.281   0.169  14.325 -0.0631  0.2593  0.0378
   9623SM   H5F13012   2.199   0.104  14.287  0.0454  0.1814 -0.0666
   9623SM   H5G13013   2.238   0.270  14.339 -0.0038  0.4576 -1.0948
   9623SM   C6F13014   2.317   0.115  14.469 -0.6344 -0.2067 -0.6629
   9623SM   H6F13015   2.386   0.192  14.509  1.8548 -0.8940 -3.2682
   9623SM   H6G13016   2.371   0.017  14.465 -0.7354 -0.2746 -0.3675
   9623SM   C7F13017   2.195   0.103  14.557 -0.0466 -0.1393  0.8374
   9623SM   H7F13018   2.122   0.038  14.505  1.2239  0.2115 -1.4978
   9623SM   H7G13019   2.144   0.201  14.565 -0.1768 -0.2521  1.4397
   9623SM   C8F13020   2.222   0.057  14.705 -0.3967 -0.1996  0.3319
   9623SM   H8F13021   2.283   0.128  14.765  0.4631 -1.8571  1.4874
   9623SM   H8G13022   2.270  -0.043  14.707 -0.2357 -0.1136  2.5161
   9623SM   C9F13023   2.089   0.051  14.779  0.0129  0.7961  0.6913
   9623SM   H9F13024   2.018  -0.016  14.726  1.3871  0.0769 -0.3179
   9623SM   H9G13025   2.057   0.157  14.768  0.9417  1.1106  0.9368
   9623SM  C10F13026   2.096   0.013  14.928  0.5407 -0.1689 -0.2107
   9623SM  H10F13027   2.162   0.082  14.984 -0.9594 -1.0891  2.9812
   9623SM  H10G13028   2.136  -0.090  14.931 -0.2269 -0.4644  0.0495
   9623SM  C11F13029   1.962  -0.000  15.002  0.6508  0.2109  1.2246
   9623SM  H11F13030   1.888  -0.059  14.945  2.1150 -1.8188  1.3025
   9623SM  H11G13031   1.926   0.104  15.015 -0.1360 -0.1231  1.8425
   9623SM  C12F13032   1.980  -0.073  15.137  0.1199 -0.2102 -0.4319
   9623SM  H12F13033   2.046  -0.021  15.210  0.2832  0.9802 -1.3949
   9623SM  H12G13034   2.020  -0.174  15.116 -0.0964 -0.0644 -1.6011
   9623SM  C13F13035   1.844  -0.090  15.207  0.1873 -0.1015  0.6662
   9623SM  H13F13036   1.783  -0.156  15.141  1.5867 -1.2369  0.4352
   9623SM  H13G13037   1.801   0.008  15.236 -0.8098 -0.6383  1.0223
   9623SM  C14F13038   1.874  -0.172  15.341  0.3302 -0.7544  0.0300
   9623SM  H14F13039   1.945  -0.105  15.394 -0.9143  1.2872 -0.7614
   9623SM  H14G13040   1.921  -0.270  15.325 -1.4492 -1.9857  1.8060
   9623SM  C15F13041   1.747  -0.204  15.418 -0.5481 -0.9345 -0.5185
   9623SM  H15F13042   1.692  -0.281  15.360 -0.2824 -1.8316  0.4045
   9623SM  H15G13043   1.687  -0.111  15.425  1.8762  0.6146  1.0885
   9623SM  C16F13044   1.768  -0.259  15.560  0.2595  1.0730 -0.1903
   9623SM  H16F13045   1.829  -0.352  15.557  0.0413  0.8765  0.9274
   9623SM  H16G13046   1.675  -0.290  15.612  1.3272 -1.2773  0.4694
   9623SM  C17F13047   1.860  -0.177  15.651  1.3523 -0.3054  0.1655
   9623SM  H17F13048   1.959  -0.162  15.602  1.5044  0.0007  0.5601
   9623SM  H17G13049   1.878  -0.241  15.740  1.7672 -0.0315  0.2803
   9623SM  C18F13050   1.788  -0.049  15.698 -0.4333  0.3554  0.5434
   9623SM  H18F13051   1.695  -0.085  15.745  0.1427 -1.4698  0.3414
   9623SM  H18G13052   1.766   0.009  15.605  0.4390 -0.7777 -0.3947
   9623SM  C19F13053   1.865   0.035  15.799 -0.3774  0.6276  0.7159
   9623SM  H19F13054   1.804   0.123  15.828 -1.4015 -0.1642  1.0316
   9623SM  H19G13055   1.951   0.077  15.742 -0.4494 -0.0163  0.1081
   9623SM  C20F13056   1.908  -0.034  15.930 -0.7253 -0.6580  0.2761
   9623SM  H20F13057   1.978  -0.115  15.903 -1.7939 -1.5442  0.0977
   9623SM  H20G13058   1.820  -0.078  15.982 -1.0180 -1.8699 -1.1740
   9623SM  C21F13059   1.971   0.064  16.028  0.2528  0.6970 -0.2678
   9623SM  H21F13060   1.892   0.135  16.061 -0.8416 -1.3036  1.7253
   9623SM  H21G13061   2.052   0.116  15.972 -0.0384  0.4289 -0.9435
   9623SM  C22F13062   2.039  -0.003  16.153  0.4570  0.4547  0.2072
   9623SM  H22F13063   1.967  -0.083  16.182  0.9794 -0.4430 -0.8894
   9623SM  H22G13064   2.061   0.067  16.237 -1.1656  0.7114  0.4611
   9623SM  C23F13065   2.164  -0.090  16.120 -0.1305  0.7556  0.1193
   9623SM  H23F13066   2.256  -0.029  16.108  1.0500 -1.3728 -2.9706
   9623SM  H23G13067   2.151  -0.132  16.018  0.7792  1.0106 -0.1092
   9623SM  H23H13068   2.179  -0.166  16.200 -0.2712  3.1600  2.5720
   9723SM     N13069   2.682   8.208  13.357  0.3675  0.1327  0.7820
   9723SM   C1513070   2.588   8.296  13.283  0.5619  0.4661 -0.0760
   9723SM  H15A13071   2.631   8.386  13.241  0.4182 -0.2025 -1.7129
   9723SM  H15B13072   2.508   8.336  13.344 -0.8921 -1.7927 -0.3777
   9723SM  H15C13073   2.541   8.249  13.198  0.7596  1.7856 -0.9541
   9723SM   C1413074   2.787   8.151  13.271  0.5569 -0.5565 -0.5753
   9723SM  H14A13075   2.742   8.102  13.186 -1.7843 -0.4983  0.5726
   9723SM  H14B13076   2.842   8.082  13.334  0.7760  0.6690  0.6160
   9723SM  H14C13077   2.856   8.226  13.234  0.4169 -0.4564 -0.6314
   9723SM   C1313078   2.749   8.286  13.466  0.0038 -0.4988  0.7737
   9723SM  H13A13079   2.800   8.212  13.526  0.1888 -0.8424  0.1997
   9723SM  H13B13080   2.678   8.349  13.518 -0.3083 -0.4835  0.3388
   9723SM  H13C13081   2.830   8.344  13.424 -1.8441  1.1742 -0.6858
   9723SM   C1213082   2.611   8.087  13.415  0.7669 -0.1589 -0.3620
   9723SM  H12A13083   2.543   8.121  13.492 -0.0483  1.8006 -1.8564
   9723SM  H12B13084   2.691   8.029  13.459  2.0020  0.6158 -1.5156
   9723SM   C1113085   2.524   7.994  13.317 -0.2664 -0.5915  0.6142
   9723SM  H11A13086   2.522   7.891  13.358 -0.7014 -0.8210  0.0278
   9723SM  H11B13087   2.581   7.986  13.222 -2.5541  0.9852 -0.9965
   9723SM     P13088   2.275   8.061  13.389 -0.0180 -0.2258 -0.7428
   9723SM   O1313089   2.197   8.187  13.381 -0.4323 -0.0092  1.1663
   9723SM   O1413090   2.197   7.939  13.374 -0.2535  0.6309 -0.4081
   9723SM   O1113091   2.332   8.074  13.531  0.3241  0.5950 -0.4823
   9723SM   O1213092   2.398   8.060  13.291  0.2605 -0.3023 -0.1080
   9723SM   C1S13093   2.347   7.957  13.618  0.6551 -0.7156  0.0919
   9723SM   H1S13094   2.431   7.892  13.586  1.9888  0.7985  0.4076
   9723SM   H1T13095   2.255   7.895  13.608  0.9161 -0.8090 -2.4026
   9723SM    NF13096   2.354   7.886  13.854 -0.0808 -0.7139  0.1979
   9723SM   HNF13097   2.272   7.852  13.900 -0.0551 -1.2551 -0.1565
   9723SM   C2S13098   2.348   7.999  13.769 -0.3796 -0.8032 -0.0412
   9723SM   H2S13099   2.438   8.062  13.783 -0.6145 -0.5989  0.6344
   9723SM   C3S13100   2.238   8.103  13.803 -0.3238 -0.0258 -0.5002
   9723SM   H3S13101   2.141   8.051  13.785  0.0844 -0.9293 -0.1361
   9723SM    O313102   2.226   8.220  13.718 -0.2018 -0.0333 -0.5460
   9723SM   HO313103   2.261   8.186  13.635  1.5444 -2.3391  1.0083
   9723SM   C4S13104   2.237   8.141  13.958 -0.2163 -0.0407  0.7158
   9723SM   H4S13105   2.185   8.057  14.008 -0.1115 -0.5889 -0.0770
   9723SM   C5S13106   2.269   8.253  14.022  0.0112 -0.2008  0.0488
   9723SM   H5S13107   2.300   8.330  13.950  0.9212 -2.2413 -1.8415
   9723SM   C6S13108   2.242   8.277  14.170 -0.5905 -0.1721  0.1201
   9723SM   H6S13109   2.172   8.363  14.176 -0.2634  0.0855  0.2720
   9723SM   H6T13110   2.334   8.304  14.226 -2.6441  1.5845  2.9394
   9723SM   C7S13111   2.166   8.170  14.249  0.5526 -0.3978  0.0890
   9723SM   H7S13112   2.212   8.069  14.253  1.6315  0.1095  1.2929
   9723SM   H7T13113   2.069   8.151  14.198  0.8580  0.7918 -0.9816
   9723SM   C8S13114   2.124   8.216  14.393 -0.1743 -0.4789  0.6036
   9723SM   H8S13115   2.056   8.303  14.386 -0.6632 -0.8808  0.2971
   9723SM   H8T13116   2.213   8.241  14.455 -1.6962  1.7374  2.0411
   9723SM   C9S13117   2.056   8.100  14.468 -0.0749 -0.5273 -0.3884
   9723SM   H9S13118   2.122   8.011  14.468 -1.6755 -1.7726 -0.3623
   9723SM   H9T13119   1.963   8.079  14.411  0.4118 -0.9320 -1.0461
   9723SM  C10S13120   2.007   8.133  14.616  0.2457  0.2379  0.3975
   9723SM  H10S13121   1.944   8.224  14.612 -2.0424 -1.2958 -0.1621
   9723SM  H10T13122   2.104   8.151  14.667  1.4722 -3.9747 -0.0190
   9723SM  C11S13123   1.938   8.014  14.684 -0.1972 -0.0922 -0.7988
   9723SM  H11S13124   2.019   7.938  14.681  1.2466  1.3265  0.3106
   9723SM  H11T13125   1.847   7.966  14.642 -2.1127  1.4077  1.3740
   9723SM  C12S13126   1.907   8.051  14.833 -0.1714  0.1171 -0.1028
   9723SM  H12S13127   1.799   8.069  14.817  0.0172  1.6277  0.1512
   9723SM  H12T13128   1.958   8.142  14.871 -0.1666 -0.9768  2.8267
   9723SM  C13S13129   1.937   7.939  14.933  0.4430  0.2234  0.0608
   9723SM  H13S13130   2.041   7.901  14.925  0.2609 -0.1044 -0.8935
   9723SM  H13T13131   1.875   7.854  14.897  0.9123 -0.8673  1.7386
   9723SM  C14S13132   1.899   7.968  15.079 -0.4763  0.7227  0.9463
   9723SM  H14S13133   1.794   8.003  15.068 -1.5234 -1.6301  2.6219
   9723SM  H14T13134   1.968   8.047  15.117  1.6782  1.0352 -3.0970
   9723SM  C15S13135   1.913   7.839  15.167 -0.3286  0.0640  0.5285
   9723SM  H15S13136   2.007   7.788  15.137  0.3405  1.2352  0.5840
   9723SM  H15T13137   1.821   7.780  15.144 -1.1224  0.3758  2.7015
   9723SM  C16S13138   1.929   7.872  15.310  0.0183 -0.6166 -0.7321
   9723SM  H16S13139   1.843   7.930  15.350 -0.6084 -0.5959 -2.0955
   9723SM  H16T13140   2.015   7.941  15.330 -0.3412 -0.5564  0.7254
   9723SM  C17S13141   1.945   7.753  15.411 -0.4899 -0.2002 -0.3445
   9723SM  H17S13142   1.971   7.801  15.507  0.8745 -0.4613 -0.5653
   9723SM  H17T13143   2.032   7.696  15.372  0.4077  1.0439 -0.2149
   9723SM  C18S13144   1.816   7.673  15.434 -0.2839 -0.2141  0.2352
   9723SM  H18S13145   1.785   7.628  15.337  1.5673 -0.8797 -0.0913
   9723SM  H18T13146   1.741   7.749  15.466  0.9026  1.2983 -0.4308
   9723SM  H18U13147   1.840   7.597  15.511  1.7377  1.1811  1.0661
   9723SM   C1F13148   2.461   7.815  13.871  0.2780  0.5562 -0.0524
   9723SM    OF13149   2.564   7.836  13.811  0.3496 -0.2198 -0.0477
   9723SM   C2F13150   2.440   7.695  13.950 -0.3701  0.6040  0.1516
   9723SM   H2F13151   2.440   7.609  13.880  1.0831 -1.4142  2.4672
   9723SM   H2G13152   2.340   7.707  13.998 -0.1827  0.8726  0.4779
   9723SM   C3F13153   2.539   7.680  14.064  0.1835  0.8117 -0.8143
   9723SM   H3F13154   2.541   7.777  14.118 -2.1961  0.6793 -0.3644
   9723SM   H3G13155   2.641   7.662  14.025 -0.6865 -1.6719 -2.1787
   9723SM   C4F13156   2.513   7.566  14.161 -0.0638 -0.2939 -0.2973
   9723SM   H4F13157   2.402   7.557  14.172  0.2605 -2.2700  2.1859
   9723SM   H4G13158   2.564   7.591  14.256 -2.0632 -0.7956  0.9699
   9723SM   C5F13159   2.558   7.430  14.116 -0.8672  0.4278  0.4384
   9723SM   H5F13160   2.544   7.413  14.007  0.9151  1.1296  0.0622
   9723SM   H5G13161   2.496   7.356  14.171 -0.3976 -0.4206 -0.1527
   9723SM   C6F13162   2.706   7.402  14.143 -0.1501  0.4389  0.2986
   9723SM   H6F13163   2.727   7.448  14.242 -1.1870 -1.2697  1.3629
   9723SM   H6G13164   2.765   7.448  14.062 -0.4780 -1.9472 -1.4101
   9723SM   C7F13165   2.743   7.248  14.145  0.3443  0.1364  0.0069
   9723SM   H7F13166   2.851   7.249  14.169 -0.3589  1.1225  3.8750
   9723SM   H7G13167   2.731   7.202  14.045  0.1148 -1.4263  0.7078
   9723SM   C8F13168   2.663   7.163  14.249 -1.0041 -0.1540 -0.1674
   9723SM   H8F13169   2.706   7.062  14.231  0.2103  0.3310 -0.0849
   9723SM   H8G13170   2.556   7.167  14.222 -0.4172  2.4667 -2.5701
   9723SM   C9F13171   2.677   7.196  14.400  0.0394 -0.4615  0.9658
   9723SM   H9F13172   2.636   7.116  14.466  1.6981 -1.0162  1.3910
   9723SM   H9G13173   2.620   7.290  14.416  0.6002  0.0451  0.0128
   9723SM  C10F13174   2.826   7.208  14.448 -0.9322 -0.8684 -0.0555
   9723SM  H10F13175   2.828   7.235  14.555  0.0948  2.5364 -0.8198
   9723SM  H10G13176   2.861   7.303  14.401 -0.4821 -0.3341  1.3293
   9723SM  C11F13177   2.918   7.082  14.424  0.1131 -0.8242  0.1914
   9723SM  H11F13178   2.908   7.051  14.318 -0.6437  0.5328 -0.1636
   9723SM  H11G13179   2.872   7.007  14.492 -1.8032  0.1744  0.0788
   9723SM  C12F13180   3.067   7.089  14.458 -0.2528 -0.5803  0.4571
   9723SM  H12F13181   3.086   7.121  14.562 -0.2883  1.8478 -0.2133
   9723SM  H12G13182   3.118   7.170  14.400  0.2067 -0.7737  0.5888
   9723SM  C13F13183   3.131   6.960  14.428 -0.1687  0.6686 -0.7264
   9723SM  H13F13184   3.124   6.933  14.320  1.1224 -1.4060 -0.3292
   9723SM  H13G13185   3.088   6.872  14.481  0.3397  2.1096  2.3024
   9723SM  C14F13186   3.284   6.969  14.465  0.2519 -0.1270 -0.2153
   9723SM  H14F13187   3.301   7.012  14.566  1.9516 -2.4747  0.6085
   9723SM  H14G13188   3.340   7.043  14.404  1.5517  0.1732  1.2798
   9723SM  C15F13189   3.352   6.833  14.452  0.3097  0.4057  0.4202
   9723SM  H15F13190   3.315   6.771  14.368  1.7321 -1.1299  0.8901
   9723SM  H15G13191   3.320   6.766  14.534 -0.4057 -2.5178 -2.0845
   9723SM  C16F13192   3.503   6.842  14.469  0.4738 -0.2707  0.2420
   9723SM  H16F13193   3.510   6.883  14.572 -0.6053 -0.5276  0.4319
   9723SM  H16G13194   3.544   6.916  14.397 -2.4576  2.1592  0.8539
   9723SM  C17F13195   3.567   6.697  14.458  0.1682  0.0996  0.1333
   9723SM  H17F13196   3.675   6.710  14.437  0.4050  1.0066  1.7903
   9723SM  H17G13197   3.509   6.656  14.372 -0.4703  0.9200  0.1581
   9723SM  C18F13198   3.535   6.606  14.577 -0.5823  0.3922  0.1207
   9723SM  H18F13199   3.445   6.542  14.565  1.0757 -2.1733  0.6497
   9723SM  H18G13200   3.534   6.670  14.668 -1.6127 -0.6584  0.8668
   9723SM  C19F13201   3.658   6.510  14.607 -0.5191  0.1742  0.2939
   9723SM  H19F13202   3.748   6.571  14.630  1.1500 -2.3945  0.9900
   9723SM  H19G13203   3.685   6.451  14.516  0.3706  0.1607  0.5538
   9723SM  C20F13204   3.632   6.403  14.717  0.1250  0.8138  0.0261
   9723SM  H20F13205   3.706   6.321  14.706  0.1264  0.4840  2.1345
   9723SM  H20G13206   3.540   6.341  14.707  0.0821  0.9575 -0.4991
   9723SM  C21F13207   3.642   6.458  14.863  0.1005  0.6929  0.1555
   9723SM  H21F13208   3.555   6.526  14.876  1.1419  2.0225  0.4027
   9723SM  H21G13209   3.730   6.526  14.870  0.0260  0.8225 -0.1756
   9723SM  C22F13210   3.651   6.348  14.973  0.6121  0.2804  0.1878
   9723SM  H22F13211   3.710   6.264  14.930  1.4188  0.9219  0.0182
   9723SM  H22G13212   3.544   6.324  14.990  0.8276 -1.0714 -0.2241
   9723SM  C23F13213   3.716   6.390  15.105  0.1789  0.5222  0.1821
   9723SM  H23F13214   3.677   6.491  15.131 -0.6672  0.9085 -2.2756
   9723SM  H23G13215   3.824   6.413  15.106  0.1168  0.8286  0.1229
   9723SM  H23H13216   3.687   6.322  15.187  3.1704 -0.3539  0.6289
   9823SM     N13217   5.841   1.020  13.165  0.2910 -0.1206  0.4888
   9823SM   C1513218   5.733   0.942  13.085 -0.1505  0.2031  1.5997
   9823SM  H15A13219   5.775   0.910  12.990 -0.3447  1.7907  0.9471
   9823SM  H15B13220   5.650   1.005  13.057  1.2571  0.9268 -1.3898
   9823SM  H15C13221   5.693   0.864  13.148 -1.4540  1.6430  2.6178
   9823SM   C1413222   5.939   0.916  13.221  0.9473  0.4475  0.7673
   9823SM  H14A13223   5.951   0.833  13.152  2.0403  3.0103 -2.3734
   9823SM  H14B13224   5.893   0.877  13.310 -0.2365  1.2175  0.5189
   9823SM  H14C13225   6.037   0.957  13.241  2.0160 -1.4803 -0.1769
   9823SM   C1313226   5.914   1.101  13.063 -0.5288  0.3496 -0.0287
   9823SM  H13A13227   6.009   1.131  13.104  0.1527 -2.5893  0.7791
   9823SM  H13B13228   5.857   1.178  13.013 -0.6213 -0.7664 -1.7151
   9823SM  H13C13229   5.930   1.033  12.981 -3.2733 -0.6737  0.1780
   9823SM   C1213230   5.785   1.111  13.273 -0.6694  0.7234 -0.2054
   9823SM  H12A13231   5.709   1.173  13.228  1.6426  2.2523 -2.2438
   9823SM  H12B13232   5.850   1.187  13.313  1.5564 -1.4769  0.5556
   9823SM   C1113233   5.712   1.053  13.394  0.4860  0.3702 -0.4741
   9823SM  H11A13234   5.622   0.998  13.361  0.8160 -0.5514  0.1005
   9823SM  H11B13235   5.679   1.136  13.459  3.7982 -0.0866  2.0904
   9823SM     P13236   5.911   1.037  13.565  0.2508  0.0495 -0.1993
   9823SM   O1313237   6.043   0.988  13.519  0.0601  0.4332  0.0125
   9823SM   O1413238   5.883   1.184  13.568 -0.3027 -0.1679 -0.7912
   9823SM   O1113239   5.881   0.981  13.709  0.4055  0.5031 -0.0226
   9823SM   O1213240   5.800   0.969  13.476  0.3411  0.0827 -0.0817
   9823SM   C1S13241   5.750   0.974  13.763  0.7579  0.1168 -0.6878
   9823SM   H1S13242   5.685   0.914  13.695 -2.2204 -1.2814  3.0062
   9823SM   H1T13243   5.703   1.075  13.772 -1.0472 -0.6685 -0.9000
   9823SM    NF13244   5.610   0.867  13.930 -0.4305  0.7604  0.6701
   9823SM   HNF13245   5.562   0.918  14.002 -0.6143  1.9784 -0.2747
   9823SM   C2S13246   5.743   0.911  13.902  0.3753 -0.8392  0.2782
   9823SM   H2S13247   5.807   0.820  13.906  1.4315 -0.0573  2.9659
   9823SM   C3S13248   5.799   1.008  14.015  0.1582 -0.6855 -0.5309
   9823SM   H3S13249   5.738   1.100  14.028  1.0024 -0.1320 -0.3690
   9823SM    O313250   5.933   1.048  13.987 -0.2296 -0.0201 -0.2807
   9823SM   HO313251   5.953   1.033  13.894  0.1282  0.3651 -0.2700
   9823SM   C4S13252   5.792   0.936  14.153 -0.9525  0.2577 -0.3519
   9823SM   H4S13253   5.691   0.953  14.192 -0.7386  3.1529 -0.8284
   9823SM   C5S13254   5.890   0.886  14.231 -0.2329 -0.9321  0.5156
   9823SM   H5S13255   5.994   0.891  14.196 -0.5228  0.5163 -0.2487
   9823SM   C6S13256   5.865   0.838  14.375  0.0955  0.4474  1.5754
   9823SM   H6S13257   5.952   0.855  14.441  1.3380 -0.0036  0.1224
   9823SM   H6T13258   5.860   0.727  14.371 -0.9846  0.5044 -0.5244
   9823SM   C7S13259   5.724   0.881  14.431  0.2281  0.8917  0.0760
   9823SM   H7S13260   5.641   0.856  14.361  0.0693  3.0251 -0.5733
   9823SM   H7T13261   5.728   0.990  14.453  2.3028  0.9163 -0.2016
   9823SM   C8S13262   5.711   0.825  14.573 -0.2692 -0.4716 -0.6649
   9823SM   H8S13263   5.803   0.856  14.628  0.1487  0.4512 -1.8513
   9823SM   H8T13264   5.723   0.715  14.580 -0.6243 -0.5863 -1.6853
   9823SM   C9S13265   5.579   0.877  14.644 -0.4124 -0.0532  0.1883
   9823SM   H9S13266   5.563   0.984  14.621  0.4015  0.3225  1.2302
   9823SM   H9T13267   5.588   0.875  14.755 -3.6692  0.8622  0.5611
   9823SM  C10S13268   5.457   0.788  14.614 -0.2879  0.2323  0.0264
   9823SM  H10S13269   5.499   0.685  14.617 -0.5376  0.1404  0.4153
   9823SM  H10T13270   5.430   0.791  14.506  0.2790  0.1506 -0.1197
   9823SM  C11S13271   5.338   0.804  14.706  0.1363  0.7354  0.2615
   9823SM  H11S13272   5.301   0.908  14.698 -1.1746  0.1839 -1.8152
   9823SM  H11T13273   5.372   0.778  14.808  0.2410 -1.7050 -0.3367
   9823SM  C12S13274   5.226   0.697  14.670 -0.1480 -0.6711 -0.0786
   9823SM  H12S13275   5.167   0.673  14.762  0.6548 -1.0402  0.3449
   9823SM  H12T13276   5.276   0.599  14.659  0.5498 -0.4216  0.7558
   9823SM  C13S13277   5.140   0.752  14.557  0.8191 -0.0981 -0.7473
   9823SM  H13S13278   5.215   0.799  14.490  0.9188 -0.4924 -0.9147
   9823SM  H13T13279   5.063   0.817  14.603 -0.5887 -1.1818 -1.4870
   9823SM  C14S13280   5.070   0.641  14.473 -0.4900 -0.0307  0.6814
   9823SM  H14S13281   4.991   0.582  14.523 -1.2154  0.5576  0.2492
   9823SM  H14T13282   5.148   0.567  14.446  0.6366  0.7620  1.6625
   9823SM  C15S13283   5.015   0.710  14.352 -0.3347 -0.6390 -0.2963
   9823SM  H15S13284   5.092   0.768  14.296 -0.9919  1.3368  0.7278
   9823SM  H15T13285   4.933   0.784  14.368 -0.6216 -1.0618  0.1915
   9823SM  C16S13286   4.982   0.605  14.248  0.0284  0.0449 -0.1606
   9823SM  H16S13287   4.885   0.574  14.292 -0.0353  1.5591  0.8563
   9823SM  H16T13288   5.046   0.514  14.250  1.8345  1.2670  0.3246
   9823SM  C17S13289   4.964   0.674  14.105  0.3823  0.3136 -0.0369
   9823SM  H17S13290   4.953   0.591  14.031 -3.8720  0.7839 -0.1789
   9823SM  H17T13291   5.064   0.713  14.076  0.2339  1.8834  1.4281
   9823SM  C18S13292   4.872   0.790  14.097  0.2503 -0.2616 -0.2468
   9823SM  H18S13293   4.825   0.811  13.999 -2.1269 -0.2924  0.8316
   9823SM  H18T13294   4.936   0.877  14.124  0.5571 -0.5213 -0.1234
   9823SM  H18U13295   4.798   0.770  14.177 -1.2120  1.1350 -1.2079
   9823SM   C1F13296   5.553   0.761  13.872  0.7870 -0.2621  0.3627
   9823SM    OF13297   5.620   0.690  13.801 -0.3328 -0.0629 -0.0365
   9823SM   C2F13298   5.405   0.733  13.900 -0.2212  0.7186 -0.3550
   9823SM   H2F13299   5.358   0.784  13.813 -0.0503 -0.7262 -1.3253
   9823SM   H2G13300   5.378   0.783  13.996 -1.7899 -0.3016 -0.2297
   9823SM   C3F13301   5.380   0.577  13.892 -0.1889  0.4558 -0.4160
   9823SM   H3F13302   5.386   0.545  13.786  1.7721  1.2100 -0.5849
   9823SM   H3G13303   5.280   0.556  13.935 -0.3040  0.0425 -0.8829
   9823SM   C4F13304   5.475   0.480  13.976  0.0315 -0.1356  0.4921
   9823SM   H4F13305   5.576   0.460  13.934 -0.7577 -0.4991 -1.3026
   9823SM   H4G13306   5.419   0.385  13.970  1.2905 -0.7961 -1.9005
   9823SM   C5F13307   5.492   0.524  14.127 -0.3483  0.6221  0.3070
   9823SM   H5F13308   5.398   0.565  14.169  0.2454  0.7643  1.5519
   9823SM   H5G13309   5.559   0.612  14.141  2.5377 -1.2379 -0.9016
   9823SM   C6F13310   5.549   0.417  14.225 -0.1560 -0.2691 -0.5346
   9823SM   H6F13311   5.650   0.384  14.191  0.4410 -0.4071  1.2773
   9823SM   H6G13312   5.480   0.331  14.214  0.0737 -0.1806 -3.5237
   9823SM   C7F13313   5.535   0.465  14.368 -0.4766 -0.1557 -0.2017
   9823SM   H7F13314   5.430   0.492  14.390 -0.4579  1.0084 -1.4339
   9823SM   H7G13315   5.601   0.553  14.382  2.7124 -2.4616  0.6539
   9823SM   C8F13316   5.582   0.357  14.469 -0.4451  0.1253 -1.0965
   9823SM   H8F13317   5.674   0.307  14.432  1.7296  1.0557  2.4805
   9823SM   H8G13318   5.500   0.284  14.485 -0.8569  0.5434 -1.2562
   9823SM   C9F13319   5.632   0.414  14.608  0.2404  0.3347 -0.3329
   9823SM   H9F13320   5.673   0.516  14.589  1.4473  0.2576  1.5752
   9823SM   H9G13321   5.712   0.349  14.650  0.4406  1.0430  0.4049
   9823SM  C10F13322   5.525   0.412  14.716  0.4310 -0.3043  0.4617
   9823SM  H10F13323   5.509   0.304  14.738 -2.8787 -0.3831 -1.5272
   9823SM  H10G13324   5.430   0.462  14.685  1.4231  2.8843  2.1089
   9823SM  C11F13325   5.572   0.482  14.847 -0.5577  0.8376  0.4535
   9823SM  H11F13326   5.583   0.592  14.831  0.3371  0.5973 -0.7680
   9823SM  H11G13327   5.670   0.431  14.858 -2.0714 -2.3134  0.2330
   9823SM  C12F13328   5.479   0.429  14.959 -0.0499  0.6004  0.3465
   9823SM  H12F13329   5.532   0.454  15.054 -2.0571 -0.2386  1.7550
   9823SM  H12G13330   5.458   0.321  14.950  0.3696  0.5115  0.3927
   9823SM  C13F13331   5.343   0.500  14.962  0.1187  0.5790 -0.3966
   9823SM  H13F13332   5.283   0.472  14.873  0.0870  0.9643 -0.4950
   9823SM  H13G13333   5.357   0.610  14.956  3.0538  0.3323  0.2067
   9823SM  C14F13334   5.272   0.473  15.097 -0.4788 -0.0003 -0.1658
   9823SM  H14F13335   5.317   0.526  15.184 -2.5926  0.6166  0.6124
   9823SM  H14G13336   5.280   0.368  15.131 -1.2530 -0.9323 -2.6625
   9823SM  C15F13337   5.120   0.506  15.097  0.3829 -0.2027 -0.1567
   9823SM  H15F13338   5.096   0.614  15.082 -3.1048 -1.0008 -1.3813
   9823SM  H15G13339   5.079   0.474  15.195  0.8306  1.5309  0.6418
   9823SM  C16F13340   5.038   0.441  14.984  0.0832 -0.8434  0.6905
   9823SM  H16F13341   5.069   0.336  15.002  0.8290 -0.3683  2.4687
   9823SM  H16G13342   5.075   0.490  14.892  0.8133 -1.8867  0.4176
   9823SM  C17F13343   4.887   0.440  15.000  0.0957 -0.0851 -0.2002
   9823SM  H17F13344   4.848   0.542  14.980 -1.9123 -0.9113 -0.7482
   9823SM  H17G13345   4.865   0.417  15.107  0.1388  0.5807 -0.0456
   9823SM  C18F13346   4.832   0.339  14.898  0.0369 -0.3748  0.1887
   9823SM  H18F13347   4.892   0.246  14.902  1.6264  0.5727 -0.5155
   9823SM  H18G13348   4.866   0.379  14.800  2.9849 -2.0023  0.4501
   9823SM  C19F13349   4.684   0.319  14.921  0.1437  0.5654  1.0760
   9823SM  H19F13350   4.647   0.255  14.838  1.0261 -0.6463  1.5851
   9823SM  H19G13351   4.639   0.419  14.936  3.6464  2.0595  2.7358
   9823SM  C20F13352   4.647   0.237  15.046  0.0787  0.3418  0.3052
   9823SM  H20F13353   4.696   0.277  15.138  0.2948  0.8194 -0.0170
   9823SM  H20G13354   4.690   0.136  15.027  0.4839  0.9213 -2.2524
   9823SM  C21F13355   4.493   0.207  15.054 -0.6835 -0.3922  0.0893
   9823SM  H21F13356   4.478   0.128  15.132  1.0271 -2.8183 -1.8849
   9823SM  H21G13357   4.463   0.163  14.957 -1.0125 -0.1444  0.0772
   9823SM  C22F13358   4.406   0.333  15.079  0.4095 -0.0806  0.5023
   9823SM  H22F13359   4.467   0.399  15.145 -1.8557  2.3642  0.3230
   9823SM  H22G13360   4.314   0.312  15.138 -0.0520 -0.4990 -0.3497
   9823SM  C23F13361   4.350   0.401  14.954  0.1807  0.3390  0.3387
   9823SM  H23F13362   4.285   0.490  14.966 -0.0366  0.0105  1.7995
   9823SM  H23G13363   4.298   0.326  14.891  0.0746  0.4914  0.2441
   9823SM  H23H13364   4.438   0.432  14.893 -0.4903  2.0356  0.1669
   9923SM     N13365   7.076   0.006  13.474 -0.0719  0.6510 -0.3465
   9923SM   C1513366   7.099   0.033  13.618  0.9496  0.8637 -0.6566
   9923SM  H15A13367   7.039   0.113  13.658 -0.8477 -0.7008 -0.0852
   9923SM  H15B13368   7.200   0.068  13.634  1.4892 -1.2476  1.0462
   9923SM  H15C13369   7.086  -0.052  13.683  0.1492 -0.2135 -2.1540
   9923SM   C1413370   7.141  -0.122  13.428  0.1108 -0.3163  0.8410
   9923SM  H14A13371   7.091  -0.209  13.469  1.4735 -1.6428 -0.1952
   9923SM  H14B13372   7.248  -0.125  13.442  0.3542  4.0282  1.2880
   9923SM  H14C13373   7.129  -0.139  13.322 -3.0700  0.4953  0.9750
   9923SM   C1313374   6.933  -0.002  13.432  0.7113 -0.2487  0.5973
   9923SM  H13A13375   6.927  -0.040  13.332 -1.0920  0.2285  0.5036
   9923SM  H13B13376   6.872   0.086  13.446  2.4335  1.1209 -0.1551
   9923SM  H13C13377   6.874  -0.074  13.486  0.1702 -1.3361 -1.3534
   9923SM   C1213378   7.140   0.123  13.395  0.0375 -0.6726  0.0343
   9923SM  H12A13379   7.077   0.211  13.401  1.8349  0.7042 -0.4166
   9923SM  H12B13380   7.138   0.098  13.290 -0.6487  0.1450 -0.1542
   9923SM   C1113381   7.288   0.167  13.429  0.1080  0.1912  0.7701
   9923SM  H11A13382   7.324   0.224  13.340  0.9702 -2.2314 -0.5087
   9923SM  H11B13383   7.353   0.078  13.428  0.8103  0.6468 -1.7915
   9923SM     P13384   7.277   0.393  13.554 -0.4471 -0.3067  0.1949
   9923SM   O1313385   7.212   0.431  13.428 -0.4486  0.4416 -0.2584
   9923SM   O1413386   7.207   0.415  13.684 -0.8029 -0.3794  0.6999
   9923SM   O1113387   7.425   0.445  13.556  0.0905 -0.1051  0.2237
   9923SM   O1213388   7.299   0.232  13.552  0.4575 -1.2615 -0.4552
   9923SM   C1S13389   7.519   0.411  13.659  0.1231 -0.1436 -0.2186
   9923SM   H1S13390   7.471   0.391  13.757  0.2903 -0.5941 -0.2226
   9923SM   H1T13391   7.580   0.503  13.672 -0.7994  0.3388  0.8224
   9923SM    NF13392   7.701   0.275  13.733  0.4446 -0.4668 -0.2951
   9923SM   HNF13393   7.790   0.320  13.738 -0.4930  1.3779  2.7873
   9923SM   C2S13394   7.619   0.299  13.620 -0.5550 -0.2225 -0.0039
   9923SM   H2S13395   7.571   0.200  13.608  0.5121 -0.6792 -0.6595
   9923SM   C3S13396   7.701   0.330  13.490  0.9186 -0.2395  0.1714
   9923SM   H3S13397   7.761   0.421  13.512 -0.5936  0.3548  2.2560
   9923SM    O313398   7.624   0.386  13.382 -0.1118 -0.1991 -0.1124
   9923SM   HO313399   7.540   0.394  13.428  0.5849 -0.7318  1.3072
   9923SM   C4S13400   7.779   0.217  13.441 -0.3056  0.0527  0.8699
   9923SM   H4S13401   7.736   0.117  13.427  0.3673  0.0795 -1.9816
   9923SM   C5S13402   7.910   0.224  13.420 -0.3193 -0.0717 -0.2485
   9923SM   H5S13403   7.967   0.318  13.409 -1.4862  0.6093 -0.6518
   9923SM   C6S13404   7.991   0.107  13.381 -0.2404  0.0429 -0.7149
   9923SM   H6S13405   8.053   0.151  13.300 -1.2010 -0.8377 -1.9637
   9923SM   H6T13406   7.930   0.027  13.335  0.0204 -1.5157  1.4899
   9923SM   C7S13407   8.087   0.051  13.489 -0.1411 -0.4986 -0.1771
   9923SM   H7S13408   8.163   0.128  13.514 -1.2662  0.0304  1.8670
   9923SM   H7T13409   8.147  -0.032  13.445  0.8919  1.3566 -2.5219
   9923SM   C8S13410   8.028   0.015  13.628 -0.3654 -0.8658 -0.3322
   9923SM   H8S13411   8.004   0.110  13.681  1.4795  0.2814 -1.4451
   9923SM   H8T13412   8.106  -0.029  13.694 -1.1596 -0.1741  1.1315
   9923SM   C9S13413   7.907  -0.078  13.618 -0.4053  0.0590  0.7222
   9923SM   H9S13414   7.932  -0.153  13.540 -0.7837  0.4529  0.2112
   9923SM   H9T13415   7.826  -0.009  13.585  0.0857 -0.0909 -0.8824
   9923SM  C10S13416   7.866  -0.147  13.756 -0.4794  0.0703  0.6679
   9923SM  H10S13417   7.785  -0.220  13.734 -0.6987 -0.0341  1.7727
   9923SM  H10T13418   7.818  -0.062  13.809 -2.1725  0.2164 -1.0008
   9923SM  C11S13419   7.978  -0.222  13.832  0.2532 -0.0258  0.5850
   9923SM  H11S13420   8.061  -0.228  13.757 -0.7513 -0.1170 -0.5552
   9923SM  H11T13421   7.945  -0.327  13.849 -2.1960  0.1775 -2.0534
   9923SM  C12S13422   8.019  -0.161  13.968 -0.0912 -0.1952 -0.4157
   9923SM  H12S13423   8.018  -0.053  13.943 -1.8956 -0.2631 -0.7699
   9923SM  H12T13424   8.116  -0.206  13.997 -1.1095 -0.7800  2.4043
   9923SM  C13S13425   7.921  -0.185  14.087  0.1303 -0.2832 -0.0728
   9923SM  H13S13426   7.928  -0.293  14.111  2.8068 -0.2299 -0.2751
   9923SM  H13T13427   7.822  -0.155  14.047  1.1004 -0.2099 -2.6748
   9923SM  C14S13428   7.954  -0.087  14.201  0.5103  0.6338 -0.4987
   9923SM  H14S13429   7.943   0.020  14.173 -0.2708  0.6843 -0.0406
   9923SM  H14T13430   8.056  -0.109  14.238  0.8721  0.9205 -1.3126
   9923SM  C15S13431   7.861  -0.119  14.323  0.0351 -0.0397 -0.3337
   9923SM  H15S13432   7.869  -0.227  14.347 -1.9925 -0.3525 -0.8558
   9923SM  H15T13433   7.756  -0.107  14.287 -0.4488 -0.6988  0.7857
   9923SM  C16S13434   7.885  -0.033  14.449 -0.1654  0.0800  0.1728
   9923SM  H16S13435   7.923   0.065  14.413 -4.5202  2.1753  0.6137
   9923SM  H16T13436   7.963  -0.084  14.509  1.8022  1.3604 -1.1686
   9923SM  C17S13437   7.759  -0.008  14.530  0.3535  0.6643  0.2090
   9923SM  H17S13438   7.704  -0.100  14.558  1.0012  0.3086  0.3189
   9923SM  H17T13439   7.691   0.063  14.478  0.7115  0.8866  0.0356
   9923SM  C18S13440   7.785   0.064  14.666 -0.2476 -0.3959  0.0206
   9923SM  H18S13441   7.873   0.027  14.722  0.6512  1.4410 -0.1033
   9923SM  H18T13442   7.693   0.064  14.728 -0.0750 -1.9075  0.3330
   9923SM  H18U13443   7.805   0.171  14.645 -0.7094 -0.4626 -0.8075
   9923SM   C1F13444   7.657   0.210  13.845 -0.4878 -0.2065  0.1926
   9923SM    OF13445   7.543   0.167  13.844 -0.1969  0.2886 -0.1444
   9923SM   C2F13446   7.754   0.195  13.958 -0.0647  0.4822  0.3017
   9923SM   H2F13447   7.824   0.281  13.953  0.7123 -0.0006  1.9586
   9923SM   H2G13448   7.817   0.104  13.945 -0.3303  0.2176  0.8156
   9923SM   C3F13449   7.677   0.192  14.097 -0.4883  0.4188 -0.2190
   9923SM   H3F13450   7.760   0.169  14.168  0.5896 -3.2047 -2.3989
   9923SM   H3G13451   7.612   0.102  14.101 -0.3765  0.3887  1.8778
   9923SM   C4F13452   7.607   0.320  14.141  0.5294  0.3396  0.0486
   9923SM   H4F13453   7.518   0.319  14.075 -0.2941 -0.5303  1.1412
   9923SM   H4G13454   7.664   0.415  14.130 -0.4680  0.8520 -0.9077
   9923SM   C5F13455   7.571   0.312  14.294 -0.4913 -0.9460  0.0487
   9923SM   H5F13456   7.546   0.208  14.324 -0.6919 -0.7471  0.5820
   9923SM   H5G13457   7.477   0.370  14.300 -0.6583 -1.1581 -0.4512
   9923SM   C6F13458   7.678   0.380  14.376  0.4512 -0.1617 -0.2380
   9923SM   H6F13459   7.715   0.479  14.344  0.0559  0.0487 -0.0613
   9923SM   H6G13460   7.769   0.316  14.372  0.0479 -0.9439  1.6183
   9923SM   C7F13461   7.632   0.378  14.525  0.7984  0.5123  0.3509
   9923SM   H7F13462   7.618   0.276  14.565  1.2808  0.5769  0.6857
   9923SM   H7G13463   7.532   0.423  14.546  0.1347  0.8581 -2.9535
   9923SM   C8F13464   7.720   0.445  14.622  0.1391 -0.2269  0.3515
   9923SM   H8F13465   7.751   0.550  14.602  0.2900  0.1984  2.5686
   9923SM   H8G13466   7.816   0.390  14.613  0.1645 -0.0556 -0.4393
   9923SM   C9F13467   7.679   0.441  14.765  0.4117 -0.2688 -0.3445
   9923SM   H9F13468   7.679   0.333  14.794  0.1940 -0.0402  0.5430
   9923SM   H9G13469   7.582   0.492  14.784  1.4532  1.6020  0.1689
   9923SM  C10F13470   7.783   0.510  14.859 -0.0347 -0.0273  0.5855
   9923SM  H10F13471   7.806   0.607  14.811  1.6450 -0.8927 -0.4534
   9923SM  H10G13472   7.878   0.456  14.877  0.5977  0.8416 -0.0842
   9923SM  C11F13473   7.732   0.527  14.998  0.4050  0.3250  0.3894
   9923SM  H11F13474   7.687   0.629  15.000 -0.0099  0.1404  1.0008
   9923SM  H11G13475   7.816   0.527  15.071 -0.3643  0.4650  1.2973
   9923SM  C12F13476   7.639   0.424  15.057  0.7278 -0.4465  0.1151
   9923SM  H12F13477   7.701   0.333  15.070  2.1683  0.7556  2.2542
   9923SM  H12G13478   7.548   0.401  14.997 -1.6875 -2.5043  4.1564
   9923SM  C13F13479   7.592   0.460  15.201 -0.6116  0.8982  0.2248
   9923SM  H13F13480   7.513   0.538  15.200  0.1416  1.7227  1.8496
   9923SM  H13G13481   7.683   0.488  15.259  0.3762 -2.8611  0.7735
   9923SM  C14F13482   7.534   0.343  15.287 -0.0473 -0.6997  0.3606
   9923SM  H14F13483   7.623   0.277  15.292 -0.4706 -1.3056 -0.0607
   9923SM  H14G13484   7.449   0.297  15.232  0.6210 -1.1181 -0.3335
   9923SM  C15F13485   7.467   0.404  15.410  0.5238 -0.0431 -0.1365
   9923SM  H15F13486   7.383   0.476  15.395  1.5659  2.1260  3.4420
   9923SM  H15G13487   7.538   0.469  15.465  1.5447  0.7166 -2.2280
   9923SM  C16F13488   7.433   0.295  15.515  0.3759 -0.5122 -0.0917
   9923SM  H16F13489   7.383   0.206  15.469 -1.3508 -1.0937  2.6616
   9923SM  H16G13490   7.357   0.338  15.584  0.4765  0.6748 -0.7014
   9923SM  C17F13491   7.553   0.251  15.609 -0.5538 -0.1855 -0.3397
   9923SM  H17F13492   7.589   0.339  15.665 -0.3350 -0.5327  0.0643
   9923SM  H17G13493   7.644   0.248  15.545  0.7332 -0.6148  1.4350
   9923SM  C18F13494   7.522   0.129  15.694  0.0515 -0.1765  0.0076
   9923SM  H18F13495   7.619   0.081  15.721  0.9041  2.0912  1.1979
   9923SM  H18G13496   7.464   0.060  15.629 -3.5298  1.2718  1.4106
   9923SM  C19F13497   7.440   0.156  15.821 -0.0445 -0.8979  0.6241
   9923SM  H19F13498   7.360   0.226  15.787 -0.3457 -0.6648  1.7724
   9923SM  H19G13499   7.505   0.188  15.904 -0.8470  0.2229  0.8487
   9923SM  C20F13500   7.360   0.036  15.867 -0.2360 -0.5615  0.8580
   9923SM  H20F13501   7.428  -0.051  15.881  0.6078 -0.0449  0.0644
   9923SM  H20G13502   7.287   0.009  15.787  0.9317 -0.0025 -0.4376
   9923SM  C21F13503   7.280   0.057  15.992 -0.1675 -0.5740 -0.2887
   9923SM  H21F13504   7.221   0.149  15.978  1.7124  0.4681 -1.8287
   9923SM  H21G13505   7.349   0.092  16.073  0.2659 -1.8916 -0.0556
   9923SM  C22F13506   7.206  -0.076  16.023  0.1033 -0.5015  0.6925
   9923SM  H22F13507   7.270  -0.163  15.994  0.9027  0.9877 -2.3374
   9923SM  H22G13508   7.116  -0.077  15.958  0.5476 -1.6525  0.0511
   9923SM  C23F13509   7.157  -0.081  16.169  0.1403  0.5402  0.2537
   9923SM  H23F13510   7.092  -0.002  16.212  0.6000  0.2827  1.4540
   9923SM  H23G13511   7.242  -0.066  16.237 -0.7215  0.3481  1.4048
   9923SM  H23H13512   7.111  -0.180  16.191 -1.1085  0.8937 -0.6412
  10023SM     N13513   7.311   1.065  13.001  0.0864  0.3448  0.5491
  10023SM   C1513514   7.287   1.082  12.849 -0.3251 -0.0414 -0.4798
  10023SM  H15A13515   7.199   1.025  12.821 -2.3475  1.9197  1.4414
  10023SM  H15B13516   7.372   1.073  12.783 -0.5362 -1.4311 -0.5920
  10023SM  H15C13517   7.250   1.180  12.821 -1.4635 -0.6233 -1.0816
  10023SM   C1413518   7.182   1.093  13.074 -0.2842 -0.0464 -0.0922
  10023SM  H14A13519   7.152   1.197  13.075 -0.6493 -0.1327  1.7775
  10023SM  H14B13520   7.200   1.056  13.174  0.5106 -0.4088 -0.3672
  10023SM  H14C13521   7.098   1.050  13.022 -0.4081  1.8856 -1.5980
  10023SM   C1313522   7.345   0.920  13.018 -0.2464  0.0465 -0.3780
  10023SM  H13A13523   7.269   0.848  12.993 -0.1466 -0.1627 -0.0875
  10023SM  H13B13524   7.395   0.905  13.113 -1.7769  1.0414  0.6212
  10023SM  H13C13525   7.418   0.901  12.941 -1.8166  2.5304 -2.6376
  10023SM   C1213526   7.432   1.158  13.031  0.0289 -0.1747  1.0031
  10023SM  H12A13527   7.408   1.257  12.997  2.2678  0.0845  0.0105
  10023SM  H12B13528   7.520   1.134  12.974 -0.7417 -0.7509  0.0094
  10023SM   C1113529   7.476   1.168  13.183 -0.3059 -0.6195  0.4538
  10023SM  H11A13530   7.379   1.192  13.232  0.5850 -0.8884  2.4137
  10023SM  H11B13531   7.549   1.251  13.194 -1.0871  0.2596 -0.7086
  10023SM     P13532   7.659   0.990  13.171 -0.6440  0.0703  0.5737
  10023SM   O1313533   7.645   0.851  13.116  0.3760 -0.2150 -0.2873
  10023SM   O1413534   7.713   1.091  13.072 -0.3668 -0.7434 -0.0074
  10023SM   O1113535   7.755   0.968  13.300  0.0246  0.2888  0.1224
  10023SM   O1213536   7.528   1.042  13.237 -0.1396  0.3059 -0.5043
  10023SM   C1S13537   7.746   1.048  13.419 -0.5324 -0.0921  0.2447
  10023SM   H1S13538   7.646   1.037  13.465 -1.4257  2.0574 -1.0491
  10023SM   H1T13539   7.747   1.157  13.398 -1.1652  0.0344  0.8552
  10023SM    NF13540   7.857   1.067  13.641 -0.0060  0.3875  0.0820
  10023SM   HNF13541   7.925   1.137  13.659  0.7990 -0.3307 -0.1293
  10023SM   C2S13542   7.866   1.015  13.509 -0.6662  0.8202  0.1825
  10023SM   H2S13543   7.874   0.904  13.513 -0.6103  0.8512  1.2012
  10023SM   C3S13544   8.001   1.060  13.434  0.1518  0.2948 -0.7590
  10023SM   H3S13545   7.994   1.169  13.413  2.0465  1.4105  3.4530
  10023SM    O313546   8.022   1.010  13.301  0.1862  0.0962  0.0863
  10023SM   HO313547   7.939   0.965  13.283  0.2957 -0.6501  1.3462
  10023SM   C4S13548   8.127   1.032  13.519  0.0119  0.4376  0.1992
  10023SM   H4S13549   8.160   1.124  13.568  0.7122  2.2553 -3.4020
  10023SM   C5S13550   8.190   0.916  13.549 -0.2969 -0.3238  0.4896
  10023SM   H5S13551   8.146   0.823  13.508 -0.9340  0.4832 -0.7373
  10023SM   C6S13552   8.313   0.897  13.636 -0.4048 -0.0677  0.8647
  10023SM   H6S13553   8.396   0.970  13.627 -1.4403  1.0651  0.1714
  10023SM   H6T13554   8.360   0.803  13.599  0.5190  1.1922 -1.4220
  10023SM   C7S13555   8.290   0.878  13.788 -0.5341 -0.1839 -0.4835
  10023SM   H7S13556   8.389   0.843  13.824  0.0550  1.4486 -0.4062
  10023SM   H7T13557   8.205   0.810  13.808 -0.0293 -0.2625  1.7051
  10023SM   C8S13558   8.261   1.000  13.870 -0.1306 -0.6397 -0.2171
  10023SM   H8S13559   8.178   1.059  13.827 -0.7684  0.0707  1.8817
  10023SM   H8T13560   8.349   1.067  13.858 -1.5976  1.8350  1.8175
  10023SM   C9S13561   8.233   0.980  14.017  0.0611 -0.1314  0.0805
  10023SM   H9S13562   8.299   0.908  14.070 -1.4385 -2.0066 -0.5053
  10023SM   H9T13563   8.131   0.937  14.024  0.0465 -0.0125  0.7363
  10023SM  C10S13564   8.249   1.115  14.091 -0.2006 -0.0531 -0.1954
  10023SM  H10S13565   8.165   1.178  14.054  1.1075  0.6117 -2.2000
  10023SM  H10T13566   8.350   1.154  14.066  0.2762  0.4105  2.1826
  10023SM  C11S13567   8.240   1.080  14.240  0.4865  0.0107 -0.4487
  10023SM  H11S13568   8.154   1.009  14.243 -1.2705  1.9401 -2.0625
  10023SM  H11T13569   8.202   1.173  14.288 -0.6481 -0.5325 -0.2373
  10023SM  C12S13570   8.365   1.024  14.317 -1.2322 -0.2285  0.2568
  10023SM  H12S13571   8.442   1.104  14.327 -1.1288  0.1754 -2.8972
  10023SM  H12T13572   8.410   0.943  14.256  0.1450  0.2629  0.5752
  10023SM  C13S13573   8.325   0.975  14.457  0.2865 -1.0410 -0.8353
  10023SM  H13S13574   8.346   0.868  14.477  2.5449 -0.6028 -0.5897
  10023SM  H13T13575   8.218   0.998  14.472  0.4320 -0.0108 -1.2823
  10023SM  C14S13576   8.388   1.051  14.574 -0.1784  0.2234 -0.4000
  10023SM  H14S13577   8.494   1.072  14.551  0.7366 -0.1767  2.8898
  10023SM  H14T13578   8.380   0.985  14.664 -0.7149  1.9970  0.8993
  10023SM  C15S13579   8.315   1.184  14.606 -0.4903 -0.1705  0.4573
  10023SM  H15S13580   8.204   1.176  14.600 -0.7850 -0.7174  4.2512
  10023SM  H15T13581   8.351   1.240  14.517  0.1939 -1.4746 -0.1188
  10023SM  C16S13582   8.328   1.244  14.744 -0.0277 -0.2083 -0.9974
  10023SM  H16S13583   8.267   1.195  14.824  0.1195  2.2720  0.7803
  10023SM  H16T13584   8.278   1.343  14.753  0.0799 -0.2849  1.1235
  10023SM  C17S13585   8.464   1.235  14.797  0.6390 -0.5699 -0.5115
  10023SM  H17S13586   8.525   1.284  14.719  0.6015 -0.4401 -0.4604
  10023SM  H17T13587   8.504   1.132  14.807  1.0450 -0.4801 -1.1416
  10023SM  C18S13588   8.486   1.311  14.928  0.2420 -0.3741 -0.4603
  10023SM  H18S13589   8.428   1.406  14.916  2.2291  1.0865  0.8404
  10023SM  H18T13590   8.593   1.326  14.952  0.0507 -1.6439  1.3355
  10023SM  H18U13591   8.435   1.261  15.013  0.7985  2.0740  1.4189
  10023SM   C1F13592   7.763   1.034  13.733 -0.1215  0.1636  0.4924
  10023SM    OF13593   7.688   0.943  13.706  0.1075 -0.4181 -0.8614
  10023SM   C2F13594   7.780   1.088  13.879  0.7858  0.8699 -0.3522
  10023SM   H2F13595   7.810   1.194  13.865  0.7009  1.2807  2.1644
  10023SM   H2G13596   7.855   1.021  13.928 -0.2822 -0.1946 -0.1336
  10023SM   C3F13597   7.646   1.094  13.966 -0.4211  0.2971 -0.0629
  10023SM   H3F13598   7.583   1.002  13.976 -2.4127  1.5260 -0.7055
  10023SM   H3G13599   7.575   1.174  13.938 -0.9414 -0.5247 -1.1588
  10023SM   C4F13600   7.672   1.134  14.110 -0.0190 -0.1597 -0.6474
  10023SM   H4F13601   7.576   1.147  14.164 -0.3744 -1.0407 -1.0508
  10023SM   H4G13602   7.723   1.233  14.115  0.1154 -0.2661  0.1570
  10023SM   C5F13603   7.767   1.049  14.193 -0.1807 -0.1314 -0.2753
  10023SM   H5F13604   7.869   1.043  14.149  0.1829  1.4077  0.2963
  10023SM   H5G13605   7.738   0.943  14.206 -0.3929 -0.4646 -2.8564
  10023SM   C6F13606   7.788   1.105  14.344  0.8963  0.1568  0.0313
  10023SM   H6F13607   7.693   1.098  14.401  0.2064  2.7004 -0.7053
  10023SM   H6G13608   7.821   1.211  14.336 -0.0847  0.7700  2.9542
  10023SM   C7F13609   7.891   1.021  14.419 -0.7449  0.6145 -0.1858
  10023SM   H7F13610   7.987   1.015  14.363 -0.6789  0.2102 -0.0324
  10023SM   H7G13611   7.861   0.915  14.434  0.7355  0.1872 -0.0891
  10023SM   C8F13612   7.914   1.074  14.563  0.2798  0.9087  0.0034
  10023SM   H8F13613   7.816   1.099  14.608  1.0767 -0.9379  2.9991
  10023SM   H8G13614   7.968   1.171  14.558  0.0404  0.9964 -2.1246
  10023SM   C9F13615   7.981   0.978  14.669  0.1725  1.0002  0.0674
  10023SM   H9F13616   8.088   0.970  14.641  0.0515 -1.2442  0.0539
  10023SM   H9G13617   7.936   0.876  14.664  1.3024  0.4793  0.0060
  10023SM  C10F13618   7.964   1.036  14.820  0.1568  0.2638 -0.6190
  10023SM  H10F13619   7.856   1.037  14.843  0.4225 -2.5765  1.1901
  10023SM  H10G13620   8.005   1.140  14.818  1.5669 -0.2411  0.3048
  10023SM  C11F13621   8.025   0.958  14.936 -0.4847  0.7828 -0.4569
  10023SM  H11F13622   8.011   1.010  15.033 -1.0693  2.8970 -1.6087
  10023SM  H11G13623   8.133   0.960  14.909 -0.5851  1.8635 -0.8129
  10023SM  C12F13624   7.965   0.816  14.958 -0.5450  0.9708 -0.1959
  10023SM  H12F13625   7.993   0.756  14.868 -2.7932 -0.8928  0.2490
  10023SM  H12G13626   7.854   0.812  14.961 -0.5570  0.8393 -0.6267
  10023SM  C13F13627   8.026   0.750  15.077 -0.5062 -0.2096 -0.8135
  10023SM  H13F13628   8.136   0.761  15.076 -0.4320 -0.5239  0.7241
  10023SM  H13G13629   8.006   0.641  15.068  0.3152 -0.4706  0.2188
  10023SM  C14F13630   7.972   0.786  15.222 -0.4681  0.1277 -0.3745
  10023SM  H14F13631   7.870   0.753  15.251  0.0891  0.0994  1.7794
  10023SM  H14G13632   7.973   0.896  15.238  0.0418  0.0017  0.6052
  10023SM  C15F13633   8.070   0.726  15.331  0.5821  0.5123  0.7656
  10023SM  H15F13634   8.158   0.792  15.321  0.4987  0.9255  2.3925
  10023SM  H15G13635   8.107   0.623  15.312  1.4137  0.8353  0.5951
  10023SM  C16F13636   8.015   0.733  15.479  0.2344 -0.5764  0.6985
  10023SM  H16F13637   7.931   0.662  15.496  0.0175  0.2145  3.3655
  10023SM  H16G13638   7.973   0.836  15.478  0.4085 -0.4974 -0.9062
  10023SM  C17F13639   8.122   0.711  15.576  0.0197 -0.1443 -0.6709
  10023SM  H17F13640   8.208   0.779  15.556  0.2934 -0.2219  0.2073
  10023SM  H17G13641   8.154   0.605  15.583  0.7059  0.0601 -0.6602
  10023SM  C18F13642   8.072   0.742  15.715  0.1353  0.1633  0.1445
  10023SM  H18F13643   7.983   0.678  15.732  0.0282 -0.3608 -2.1022
  10023SM  H18G13644   8.044   0.849  15.717  0.4030  0.2544  2.7220
  10023SM  C19F13645   8.167   0.729  15.832 -0.6466  0.2287  0.2959
  10023SM  H19F13646   8.150   0.795  15.919 -0.6307 -1.8909  2.0069
  10023SM  H19G13647   8.267   0.767  15.801 -0.5163 -0.6318 -0.3925
  10023SM  C20F13648   8.189   0.582  15.879 -0.1588 -0.0437 -0.0486
  10023SM  H20F13649   8.266   0.531  15.817  0.2259  1.5750 -0.9689
  10023SM  H20G13650   8.089   0.533  15.881 -1.4971  2.5093  0.8707
  10023SM  C21F13651   8.241   0.585  16.024  0.3731  0.4395  0.1320
  10023SM  H21F13652   8.190   0.661  16.087 -1.0218  0.0806 -0.5387
  10023SM  H21G13653   8.349   0.610  16.013  0.3605  1.1425  1.3727
  10023SM  C22F13654   8.246   0.449  16.087 -0.3622  0.5645  0.6870
  10023SM  H22F13655   8.321   0.388  16.032 -1.2582 -0.7094  0.8448
  10023SM  H22G13656   8.144   0.407  16.082  0.1485 -0.6361 -0.1265
  10023SM  C23F13657   8.297   0.453  16.233 -0.1116 -0.4632  0.3189
  10023SM  H23F13658   8.312   0.345  16.256 -0.6553 -0.9072 -1.2950
  10023SM  H23G13659   8.230   0.494  16.311  0.1351 -1.7487  1.2500
  10023SM  H23H13660   8.397   0.502  16.236  0.0794 -0.4685 -2.9907
  101CHL1    C313661   2.641   4.470  16.397  0.5473  0.7575  0.1659
  101CHL1    H313662   2.739   4.447  16.445 -0.1621 -0.0392  1.2607
  101CHL1    O313663   2.533   4.403  16.463  0.1934  0.1911 -0.1018
  101CHL1   H3'13664   2.538   4.457  16.543 -0.3082  0.1803 -0.0632
  101CHL1    C413665   2.610   4.621  16.397  0.1972 -0.0693 -0.5210
  101CHL1   H4A13666   2.504   4.634  16.367  0.8083  1.0649 -2.3225
  101CHL1   H4B13667   2.606   4.674  16.494  2.1686  2.9581 -1.9373
  101CHL1    C513668   2.684   4.710  16.304  0.0251  0.4925 -0.0030
  101CHL1    C613669   2.755   4.819  16.335  0.2566 -0.2443 -0.5852
  101CHL1    H613670   2.757   4.845  16.442 -1.6884  1.1121 -0.8180
  101CHL1    C713671   2.815   4.907  16.232 -0.4086 -0.4480  0.7668
  101CHL1   H7A13672   2.797   5.014  16.253 -1.8315  0.4610 -3.9700
  101CHL1   H7B13673   2.924   4.893  16.253  0.1002  2.9178  0.8931
  101CHL1    C813674   2.785   4.874  16.082  0.7682 -0.0169 -0.1194
  101CHL1    H813675   2.690   4.927  16.063 -0.1534 -0.9293  1.6626
  101CHL1   C1413676   2.901   4.922  15.990 -0.6570 -0.0648  0.3150
  101CHL1   H1413677   2.989   4.857  16.006 -1.5705 -2.1135 -2.2133
  101CHL1   C1513678   2.957   5.065  16.009  0.4210  0.7863  0.8216
  101CHL1  H15A13679   2.886   5.150  16.012  1.5824  1.7627  1.4022
  101CHL1  H15B13680   3.014   5.061  16.104  0.3301 -0.5466  0.8375
  101CHL1   C1613681   3.054   5.076  15.890 -0.5328 -0.1727 -0.9509
  101CHL1  H16A13682   3.030   5.173  15.840  3.0322  1.4690  0.2394
  101CHL1  H16B13683   3.159   5.069  15.923 -0.3810 -2.2666 -1.7602
  101CHL1   C1713684   3.023   4.962  15.793  0.2058 -0.2354 -0.3087
  101CHL1   H1713685   3.097   4.881  15.806  1.0525  0.6647  0.6441
  101CHL1   C1313686   2.884   4.905  15.838 -0.4149 -0.5693  0.1058
  101CHL1   C1813687   2.763   4.986  15.792 -0.5190  0.3335  0.5970
  101CHL1  H18A13688   2.685   4.994  15.871 -1.9489 -0.9028 -0.6393
  101CHL1  H18B13689   2.772   5.089  15.752  0.3091 -0.1452 -0.5099
  101CHL1  H18C13690   2.720   4.924  15.711 -0.5413 -1.8565  2.1780
  101CHL1   C1213691   2.864   4.750  15.823 -0.3131  0.1420 -0.3320
  101CHL1  H12A13692   2.862   4.715  15.718 -0.2239  1.4260 -0.7746
  101CHL1  H12B13693   2.953   4.696  15.863  0.4792  1.4082 -0.3579
  101CHL1   C1113694   2.745   4.697  15.904  0.5044 -0.2110 -0.8479
  101CHL1  H11A13695   2.649   4.742  15.870  0.5406  2.1929  1.7817
  101CHL1  H11B13696   2.745   4.589  15.879  1.8057 -0.7844  1.4004
  101CHL1    C913697   2.762   4.726  16.053  0.3466 -0.2201 -0.5483
  101CHL1    H913698   2.857   4.681  16.087  0.1134 -1.0578 -0.9577
  101CHL1   C1013699   2.670   4.658  16.151  0.2237  0.3442 -0.8960
  101CHL1   C1913700   2.524   4.676  16.094  0.6208  0.1001  0.0215
  101CHL1  H19A13701   2.446   4.627  16.157 -0.2391 -0.6294 -1.5616
  101CHL1  H19B13702   2.520   4.787  16.088 -0.1785  0.0925  0.3309
  101CHL1  H19C13703   2.505   4.630  15.995  0.5391 -1.6596  0.8288
  101CHL1    C113704   2.708   4.506  16.151  0.6734  0.4454 -0.2899
  101CHL1   H1A13705   2.692   4.476  16.045  2.6637  1.9558 -1.0776
  101CHL1   H1B13706   2.815   4.490  16.175  0.4202 -1.8224 -0.4540
  101CHL1    C213707   2.635   4.417  16.254  0.1252 -0.1437  1.2538
  101CHL1   H2A13708   2.683   4.316  16.256  0.7294  0.1142  0.2763
  101CHL1   H2B13709   2.529   4.408  16.224  0.1790 -1.3488  1.3795
  101CHL1   C2013710   3.032   5.008  15.644 -0.8334 -0.1953 -0.0636
  101CHL1   H2013711   2.947   5.075  15.618 -0.8437 -1.3442 -3.3553
  101CHL1   C2113712   3.022   4.881  15.557  0.9189 -0.1610 -1.1936
  101CHL1  H21A13713   3.006   4.909  15.451 -0.7381  2.5543 -0.3347
  101CHL1  H21B13714   2.931   4.820  15.578  0.8862  0.0989 -0.5674
  101CHL1  H21C13715   3.108   4.817  15.585 -0.2444 -0.0372  3.5468
  101CHL1   C2213716   3.171   5.084  15.607 -0.1730  0.4946  0.0708
  101CHL1  H22A13717   3.180   5.089  15.496  1.3529 -0.5531  0.1200
  101CHL1  H22B13718   3.164   5.185  15.651 -2.3513  1.0882 -1.4610
  101CHL1   C2313719   3.299   5.012  15.669  0.4694 -0.3194 -0.0592
  101CHL1  H23A13720   3.297   5.016  15.780 -2.4202 -1.5703  0.0050
  101CHL1  H23B13721   3.306   4.906  15.639  3.0382  0.0160 -0.8651
  101CHL1   C2413722   3.433   5.080  15.630  1.2060  0.0414  0.1210
  101CHL1  H24A13723   3.428   5.096  15.520 -1.7430 -0.0722  0.1517
  101CHL1  H24B13724   3.441   5.176  15.685  2.1682 -0.1984  0.4187
  101CHL1   C2513725   3.552   5.000  15.676  0.5991  0.3095 -0.9901
  101CHL1   H2513726   3.536   4.895  15.644 -0.5488 -0.5400  2.0367
  101CHL1   C2613727   3.676   5.058  15.612  0.0460 -0.1779  0.7803
  101CHL1  H26A13728   3.678   5.044  15.502  0.3672  2.0403  0.4616
  101CHL1  H26B13729   3.679   5.167  15.631  2.4411 -0.4079  2.1634
  101CHL1  H26C13730   3.767   5.013  15.656 -0.3170 -1.1233  0.5869
  101CHL1   C2713731   3.560   5.009  15.828 -0.3496 -0.2342  0.3271
  101CHL1  H27A13732   3.558   5.117  15.856  0.5669  0.0959 -0.8150
  101CHL1  H27B13733   3.480   4.945  15.871 -0.4299 -1.0326 -0.9646
  101CHL1  H27C13734   3.663   4.984  15.862  0.2317  1.9733  0.3537
  102CHL1    C313735   2.018   4.619  16.475  0.2508 -0.0100  0.0975
  102CHL1    H313736   2.088   4.541  16.438 -1.4775 -1.5321 -0.1505
  102CHL1    O313737   1.933   4.557  16.571  0.6095 -0.3716  0.0329
  102CHL1   H3'13738   1.989   4.539  16.647  0.8197  0.0119 -0.0280
  102CHL1    C413739   2.090   4.737  16.535  0.1472 -0.5356  0.1787
  102CHL1   H4A13740   2.017   4.803  16.586  0.2209 -0.3761  0.0790
  102CHL1   H4B13741   2.161   4.708  16.615  1.0271  0.6945 -0.1262
  102CHL1    C513742   2.172   4.810  16.428 -0.8856 -0.0531 -0.4818
  102CHL1    C613743   2.301   4.827  16.448 -1.1400 -0.3666  0.2443
  102CHL1    H613744   2.350   4.781  16.535 -1.1867 -1.0861 -0.1031
  102CHL1    C713745   2.381   4.923  16.360  0.0071  0.3232  0.0781
  102CHL1   H7A13746   2.442   4.992  16.422  0.1860  0.6284 -0.4291
  102CHL1   H7B13747   2.432   4.863  16.282  0.1336  2.2678 -1.4316
  102CHL1    C813748   2.295   5.011  16.265  0.5858  0.3041 -0.0446
  102CHL1    H813749   2.248   5.090  16.329  1.3214 -1.9285  3.5748
  102CHL1   C1413750   2.377   5.070  16.155 -0.2646 -0.1759  0.2922
  102CHL1   H1413751   2.415   4.986  16.092  0.1789 -0.4641  0.9251
  102CHL1   C1513752   2.495   5.160  16.196 -0.5590 -0.1561  0.1405
  102CHL1  H15A13753   2.469   5.229  16.279  0.1306 -0.3321  0.5044
  102CHL1  H15B13754   2.581   5.102  16.233 -0.0548  1.1232  1.0380
  102CHL1   C1613755   2.532   5.242  16.070 -1.1431 -0.7689  0.7654
  102CHL1  H16A13756   2.551   5.352  16.073 -0.5280 -0.8398 -0.0503
  102CHL1  H16B13757   2.621   5.194  16.022  0.4598  0.6786  2.1401
  102CHL1   C1713758   2.415   5.214  15.969 -0.1125 -0.1066  0.5831
  102CHL1   H1713759   2.445   5.128  15.905  0.4427 -0.2514  1.0198
  102CHL1   C1313760   2.299   5.161  16.060 -0.1994 -0.1104  0.2596
  102CHL1   C1813761   2.237   5.275  16.141 -0.0330 -0.0667 -0.4981
  102CHL1  H18A13762   2.306   5.358  16.166 -0.6341  0.0233  0.9891
  102CHL1  H18B13763   2.157   5.308  16.073  0.3314 -0.4607 -1.1265
  102CHL1  H18C13764   2.175   5.250  16.230  1.1464  0.5695  0.5425
  102CHL1   C1213765   2.198   5.076  15.982 -0.1828 -0.5069  0.4007
  102CHL1  H12A13766   2.136   5.132  15.909 -0.2740 -0.7098  0.3208
  102CHL1  H12B13767   2.253   5.009  15.912 -0.7983 -1.2821  0.6385
  102CHL1   C1113768   2.106   4.997  16.085  0.2478 -0.4399  0.0580
  102CHL1  H11A13769   2.043   5.083  16.116  1.2166 -0.2091  1.4698
  102CHL1  H11B13770   2.038   4.935  16.022 -1.2502  1.0771  0.1129
  102CHL1    C913771   2.183   4.923  16.197  0.3506 -0.0324  0.9811
  102CHL1    H913772   2.237   4.835  16.156 -0.8036 -1.1719  1.8142
  102CHL1   C1013773   2.095   4.865  16.310 -0.2110 -0.5063  0.1466
  102CHL1   C1913774   2.003   4.987  16.355 -0.1474  0.3677  0.0512
  102CHL1  H19A13775   2.058   5.081  16.376  1.2080 -0.5374  0.7404
  102CHL1  H19B13776   1.926   5.003  16.277 -0.5808 -1.3725  0.0592
  102CHL1  H19C13777   1.947   4.947  16.443 -0.7607  0.4487 -0.3039
  102CHL1    C113778   2.010   4.743  16.248 -0.4122 -0.2073  0.5954
  102CHL1   H1A13779   1.943   4.784  16.169 -1.4944 -2.9600 -0.0009
  102CHL1   H1B13780   2.072   4.670  16.192 -1.5392  0.5161 -1.7039
  102CHL1    C213781   1.930   4.659  16.355 -0.4008  0.5793  0.8278
  102CHL1   H2A13782   1.886   4.574  16.298 -1.2300  2.1711 -1.0390
  102CHL1   H2B13783   1.847   4.719  16.398 -1.4567  0.3294 -0.7438
  102CHL1   C2013784   2.398   5.340  15.880 -0.1796  0.3480  0.6740
  102CHL1   H2013785   2.362   5.425  15.942  0.7064  1.3482 -0.1342
  102CHL1   C2113786   2.279   5.321  15.779 -0.6404 -0.0174 -0.5648
  102CHL1  H21A13787   2.284   5.227  15.722  2.1287 -1.4277  1.7273
  102CHL1  H21B13788   2.265   5.407  15.710  0.0757  0.9524  0.4460
  102CHL1  H21C13789   2.187   5.324  15.842 -1.4809 -0.0155 -1.7619
  102CHL1   C2213790   2.528   5.388  15.810 -0.1357  0.4152  0.3050
  102CHL1  H22A13791   2.619   5.416  15.867 -0.5970  0.8184  0.8498
  102CHL1  H22B13792   2.561   5.295  15.760 -0.3794 -0.1127  1.1063
  102CHL1   C2313793   2.525   5.487  15.697 -0.0201 -0.0799  0.0730
  102CHL1  H23A13794   2.627   5.499  15.655  1.0986 -1.3543  2.2415
  102CHL1  H23B13795   2.471   5.434  15.615  0.6633  0.2412 -0.5974
  102CHL1   C2413796   2.463   5.623  15.740  0.6240 -0.2224  0.1017
  102CHL1  H24A13797   2.375   5.607  15.806 -0.4370 -0.9519 -1.4283
  102CHL1  H24B13798   2.537   5.678  15.802  0.4189 -2.4179  2.4636
  102CHL1   C2513799   2.415   5.709  15.619 -0.0672  1.3911  0.2688
  102CHL1   H2513800   2.503   5.729  15.553 -1.4953  2.7251 -1.3204
  102CHL1   C2613801   2.311   5.641  15.529  0.1621  0.4668 -0.3851
  102CHL1  H26A13802   2.227   5.606  15.592  1.2855 -2.9942 -0.6129
  102CHL1  H26B13803   2.260   5.710  15.459 -0.1781 -0.5763 -1.1831
  102CHL1  H26C13804   2.364   5.558  15.478 -0.4048  0.3992 -0.8644
  102CHL1   C2713805   2.373   5.848  15.677  0.8396 -0.1160  0.6624
  102CHL1  H27A13806   2.458   5.889  15.735  1.1483 -1.5111  1.2456
  102CHL1  H27B13807   2.353   5.904  15.583 -0.2038 -0.7311  0.5018
  102CHL1  H27C13808   2.279   5.853  15.735  0.1851  1.2432 -0.4497
  103CHL1    C313809   2.161   3.655  16.569 -0.0694  0.0259  0.2034
  103CHL1    H313810   2.051   3.646  16.559 -0.1455 -0.6699  1.4513
  103CHL1    O313811   2.185   3.642  16.705 -0.5835  0.4830 -0.5360
  103CHL1   H3'13812   2.274   3.671  16.726 -1.1304  0.1724  2.7446
  103CHL1    C413813   2.228   3.534  16.486 -0.0322  0.4393  0.2031
  103CHL1   H4A13814   2.337   3.544  16.504  0.1818  1.3500 -1.4032
  103CHL1   H4B13815   2.185   3.444  16.535  0.8548  1.5465  3.2290
  103CHL1    C513816   2.195   3.536  16.338  0.0161 -0.4187  0.7746
  103CHL1    C613817   2.135   3.435  16.260  0.1427 -0.0557 -0.4859
  103CHL1    H613818   2.114   3.338  16.307  0.5351  0.1652  0.1636
  103CHL1    C713819   2.110   3.434  16.117  0.5760 -0.2239  0.5948
  103CHL1   H7A13820   2.147   3.343  16.065 -2.6830 -1.6756  0.6125
  103CHL1   H7B13821   2.003   3.439  16.089  0.4317  0.4031  1.2269
  103CHL1    C813822   2.193   3.551  16.050 -0.3943  0.2866  0.2212
  103CHL1    H813823   2.298   3.513  16.055  0.4959  2.5426 -0.0760
  103CHL1   C1413824   2.144   3.574  15.902  0.0245  0.4398 -0.0276
  103CHL1   H1413825   2.041   3.617  15.908  0.0561  0.5762 -0.4041
  103CHL1   C1513826   2.134   3.455  15.808  0.0960 -0.3905  0.0805
  103CHL1  H15A13827   2.227   3.400  15.835  0.5579 -0.6069 -1.7980
  103CHL1  H15B13828   2.048   3.390  15.831 -0.3084 -0.4209 -1.4285
  103CHL1   C1613829   2.120   3.517  15.675  0.4688 -0.2662 -0.1238
  103CHL1  H16A13830   2.184   3.477  15.593 -0.9968  1.0239 -1.9753
  103CHL1  H16B13831   2.017   3.505  15.635  0.8331 -2.4228 -0.5585
  103CHL1   C1713832   2.158   3.667  15.691  0.1391 -0.1914  0.3252
  103CHL1   H1713833   2.061   3.721  15.701 -0.0126 -0.5109  0.5512
  103CHL1   C1313834   2.223   3.679  15.827 -0.6156  0.2710  0.3002
  103CHL1   C1813835   2.370   3.639  15.823 -0.0213 -0.7125 -0.3767
  103CHL1  H18A13836   2.428   3.719  15.771 -1.4053  1.2411  0.9516
  103CHL1  H18B13837   2.409   3.641  15.927  0.2003  0.2497 -0.4611
  103CHL1  H18C13838   2.393   3.548  15.764  0.5680  0.0313 -1.3197
  103CHL1   C1213839   2.197   3.813  15.898  0.1631  0.0073 -0.3056
  103CHL1  H12A13840   2.261   3.894  15.858  1.0062  0.2436  1.4371
  103CHL1  H12B13841   2.088   3.834  15.888 -0.0296 -1.0176 -0.4429
  103CHL1   C1113842   2.244   3.804  16.045 -0.1220 -0.2471 -0.3023
  103CHL1  H11A13843   2.352   3.782  16.039  0.5386  2.1746  1.3550
  103CHL1  H11B13844   2.237   3.905  16.090  0.5130 -0.1388 -0.4426
  103CHL1    C913845   2.182   3.684  16.125 -0.4762 -0.1254 -0.1638
  103CHL1    H913846   2.076   3.719  16.133 -0.1219  0.7962  0.7474
  103CHL1   C1013847   2.236   3.676  16.273 -0.3525 -0.0068 -0.2150
  103CHL1   C1913848   2.391   3.695  16.269 -0.3509 -0.0158 -0.3705
  103CHL1  H19A13849   2.440   3.681  16.368  1.3829 -0.9134 -1.3052
  103CHL1  H19B13850   2.436   3.619  16.202  0.3256 -0.4008  0.5046
  103CHL1  H19C13851   2.412   3.802  16.245  0.4576 -0.3208 -1.0920
  103CHL1    C113852   2.171   3.791  16.356  0.3246  0.4890  0.4619
  103CHL1   H1A13853   2.196   3.893  16.317  1.1002 -0.1088 -0.6550
  103CHL1   H1B13854   2.061   3.790  16.346  0.2861  1.7044  0.5554
  103CHL1    C213855   2.212   3.789  16.505  0.1760  0.6309  0.9428
  103CHL1   H2A13856   2.162   3.874  16.556 -1.5432  0.6001 -0.5733
  103CHL1   H2B13857   2.322   3.785  16.512  0.2529 -2.1725 -0.5589
  103CHL1   C2013858   2.225   3.723  15.557 -0.0671 -0.1507 -0.2398
  103CHL1   H2013859   2.328   3.681  15.549  0.2754  0.9711 -2.7640
  103CHL1   C2113860   2.237   3.874  15.580 -0.7041  0.0079 -0.4815
  103CHL1  H21A13861   2.139   3.911  15.618  0.1103  0.2099  1.5076
  103CHL1  H21B13862   2.272   3.924  15.487  1.0763 -0.1491  0.0639
  103CHL1  H21C13863   2.314   3.899  15.656 -0.0748 -0.6062 -0.9015
  103CHL1   C2213864   2.144   3.692  15.430 -0.3351  0.4621 -0.1856
  103CHL1  H22A13865   2.111   3.586  15.441 -0.0871  0.6077  2.6120
  103CHL1  H22B13866   2.045   3.740  15.443  0.8064  2.4865  1.5625
  103CHL1   C2313867   2.216   3.728  15.297  0.6834 -0.2509 -0.1765
  103CHL1  H23A13868   2.284   3.813  15.318 -0.8758  1.1093 -0.3859
  103CHL1  H23B13869   2.264   3.634  15.262 -1.6906 -1.2478 -0.9663
  103CHL1   C2413870   2.115   3.776  15.195 -0.5168 -0.0369 -0.6814
  103CHL1  H24A13871   2.018   3.722  15.186 -1.1333  1.2066 -1.9669
  103CHL1  H24B13872   2.081   3.877  15.225 -3.3551 -0.3180 -2.5659
  103CHL1   C2513873   2.168   3.791  15.048 -0.3913  0.0001  0.5340
  103CHL1   H2513874   2.079   3.829  14.993 -0.2420  0.7032  0.7613
  103CHL1   C2613875   2.284   3.891  15.032 -0.3953 -0.1422 -0.2538
  103CHL1  H26A13876   2.330   3.888  14.931  0.2098 -0.4838  0.0196
  103CHL1  H26B13877   2.249   3.992  15.060  0.1535 -0.5208  2.0852
  103CHL1  H26C13878   2.366   3.876  15.105  0.5929  0.2640 -1.2507
  103CHL1   C2713879   2.212   3.655  14.984  0.4095  0.7130  0.0797
  103CHL1  H27A13880   2.224   3.667  14.875 -1.4238  2.9317  0.0255
  103CHL1  H27B13881   2.301   3.604  15.026  0.8065 -0.2110 -1.8169
  103CHL1  H27C13882   2.131   3.579  14.994  1.2120 -0.1830 -0.1657
  104CHL1    C313883   5.689   5.833  16.125 -0.0289 -0.3168 -0.7382
  104CHL1    H313884   5.731   5.936  16.119 -2.8531  1.3466  3.3826
  104CHL1    O313885   5.762   5.756  16.223  0.3371  0.5255  0.4246
  104CHL1   H3'13886   5.787   5.814  16.295 -0.2825  0.1855  0.9244
  104CHL1    C413887   5.541   5.840  16.176  0.4554  0.1821 -0.2638
  104CHL1   H4A13888   5.507   5.734  16.180  1.1191 -0.0878 -1.3992
  104CHL1   H4B13889   5.529   5.875  16.280 -0.6019 -1.8236  0.3598
  104CHL1    C513890   5.449   5.912  16.079 -0.0782  0.1072  0.5406
  104CHL1    C613891   5.361   6.009  16.112  0.0321 -0.8677  0.0699
  104CHL1    H613892   5.355   6.033  16.219  3.4088 -0.8920  0.3734
  104CHL1    C713893   5.266   6.085  16.021 -0.0558 -0.0824  0.5506
  104CHL1   H7A13894   5.165   6.082  16.068  0.0556  0.5324  0.8281
  104CHL1   H7B13895   5.299   6.185  15.987  0.9890  0.2927  2.5468
  104CHL1    C813896   5.259   6.010  15.880 -0.1788 -0.0108  0.2601
  104CHL1    H813897   5.189   5.925  15.893  1.5860 -1.3740  1.2263
  104CHL1   C1413898   5.202   6.110  15.780 -0.1555  0.2590 -0.1049
  104CHL1   H1413899   5.271   6.195  15.764  0.4439 -0.3331 -0.7325
  104CHL1   C1513900   5.072   6.173  15.835  0.8000  0.0782  0.2117
  104CHL1  H15A13901   5.001   6.091  15.860  2.3060 -1.7468 -1.1875
  104CHL1  H15B13902   5.086   6.248  15.915 -0.2224  2.0518 -1.3767
  104CHL1   C1613903   5.020   6.238  15.707 -0.2234  0.0130  0.1568
  104CHL1  H16A13904   4.911   6.223  15.697  0.0386 -1.5019 -0.8684
  104CHL1  H16B13905   5.033   6.348  15.704 -2.0495  0.2708  0.6969
  104CHL1   C1713906   5.099   6.172  15.589 -0.0427 -1.1452  0.0538
  104CHL1   H1713907   5.179   6.243  15.558 -0.8399 -0.1671  0.2287
  104CHL1   C1313908   5.174   6.051  15.645 -0.3165  0.4151 -0.6809
  104CHL1   C1813909   5.074   5.930  15.652 -0.6022  0.1261 -0.4268
  104CHL1  H18A13910   4.981   5.970  15.697  0.3691  1.5666  0.3705
  104CHL1  H18B13911   5.065   5.888  15.549  1.6274 -1.9042  0.1114
  104CHL1  H18C13912   5.115   5.851  15.719 -1.9185 -0.3196 -0.1177
  104CHL1   C1213913   5.309   6.002  15.583  0.3230 -0.5816 -0.8702
  104CHL1  H12A13914   5.301   5.960  15.481  0.4711 -0.3170 -0.9916
  104CHL1  H12B13915   5.372   6.094  15.581 -0.2016 -0.0400  2.3005
  104CHL1   C1113916   5.384   5.905  15.679 -0.0312  0.1712 -0.7132
  104CHL1  H11A13917   5.329   5.809  15.690 -1.1824  0.7067 -1.5504
  104CHL1  H11B13918   5.482   5.879  15.633 -0.9011  0.7494 -2.9962
  104CHL1    C913919   5.397   5.954  15.828  0.3580 -0.0521 -0.1250
  104CHL1    H913920   5.463   6.043  15.824 -0.1835  0.3191 -2.1939
  104CHL1   C1013921   5.467   5.862  15.927 -0.7475 -0.2431 -0.1825
  104CHL1   C1913922   5.414   5.720  15.920  0.8160 -0.2486 -0.4461
  104CHL1  H19A13923   5.304   5.707  15.920  0.8321 -0.3864 -0.4698
  104CHL1  H19B13924   5.446   5.678  15.823  3.0513 -1.3287  0.6884
  104CHL1  H19C13925   5.457   5.653  15.998  1.9347  2.4709  1.4678
  104CHL1    C113926   5.618   5.858  15.891  0.1542 -0.6042  0.4357
  104CHL1   H1A13927   5.634   5.819  15.788  0.7697  0.8906 -0.0648
  104CHL1   H1B13928   5.655   5.962  15.893 -2.8075  0.5253  1.5570
  104CHL1    C213929   5.704   5.771  15.988 -0.1558 -0.0751  0.4898
  104CHL1   H2A13930   5.811   5.765  15.960  0.2719  1.6924  1.5722
  104CHL1   H2B13931   5.674   5.664  15.997  1.4344 -0.5334  0.5297
  104CHL1   C2013932   5.017   6.153  15.463 -0.3931 -0.1203 -0.4864
  104CHL1   H2013933   4.940   6.076  15.486  2.0237 -2.6312 -0.2538
  104CHL1   C2113934   5.099   6.091  15.344  0.1010 -0.4846  0.2752
  104CHL1  H21A13935   5.045   6.094  15.247 -0.6091  0.0096  0.6755
  104CHL1  H21B13936   5.129   5.988  15.375  1.0238 -0.4544 -0.4703
  104CHL1  H21C13937   5.187   6.155  15.322 -1.5344  1.5488 -0.6865
  104CHL1   C2213938   4.943   6.281  15.415 -0.0419 -0.1595 -0.1171
  104CHL1  H22A13939   4.890   6.257  15.320  0.3135 -0.2292 -0.2987
  104CHL1  H22B13940   4.861   6.303  15.487 -0.0316 -1.4329  0.3056
  104CHL1   C2313941   5.022   6.403  15.403 -0.9616 -0.3420  0.7080
  104CHL1  H23A13942   5.033   6.433  15.509 -1.1530 -1.9689  1.2101
  104CHL1  H23B13943   5.118   6.367  15.360 -0.7494  0.9520  0.0328
  104CHL1   C2413944   4.967   6.504  15.298 -0.1298 -0.1948  0.6711
  104CHL1  H24A13945   4.942   6.443  15.209 -0.3358  1.0789 -0.1631
  104CHL1  H24B13946   4.872   6.542  15.342 -0.4880 -1.0390  0.6400
  104CHL1   C2513947   5.064   6.615  15.260  0.4115 -0.3458 -0.5162
  104CHL1   H2513948   5.098   6.670  15.350  0.1816  1.7975 -1.6626
  104CHL1   C2613949   5.176   6.568  15.170  0.3068 -1.0899 -0.2600
  104CHL1  H26A13950   5.136   6.485  15.107 -1.1349 -0.6235  0.0148
  104CHL1  H26B13951   5.217   6.648  15.105 -1.5980  0.7230  0.6587
  104CHL1  H26C13952   5.259   6.532  15.235  0.2047  0.2296  0.6313
  104CHL1   C2713953   4.983   6.731  15.187  0.0155  0.7381 -0.0582
  104CHL1  H27A13954   4.900   6.761  15.255 -0.3937 -1.0287  0.2832
  104CHL1  H27B13955   5.043   6.818  15.155  3.2280 -0.0425  3.2704
  104CHL1  H27C13956   4.928   6.680  15.104  1.0677  0.3971 -0.5599
  105CHL1    C313957   5.196   4.587  16.601  0.1096 -0.0495  0.2254
  105CHL1    H313958   5.301   4.602  16.567 -1.1189  2.4795 -3.0771
  105CHL1    O313959   5.198   4.508  16.719  0.5361  0.2409  0.3403
  105CHL1   H3'13960   5.110   4.505  16.757  0.8849  0.1516  1.1787
  105CHL1    C413961   5.137   4.727  16.627  0.3711  0.0910  0.2383
  105CHL1   H4A13962   5.033   4.727  16.667 -0.1314 -4.4641 -0.5088
  105CHL1   H4B13963   5.201   4.774  16.705 -2.1290  2.2765  1.1202
  105CHL1    C513964   5.125   4.808  16.502 -0.8054  0.1402 -0.6275
  105CHL1    C613965   5.175   4.929  16.483 -0.3029  0.0196 -0.5150
  105CHL1    H613966   5.230   4.976  16.566  0.0902 -0.2236 -0.6363
  105CHL1    C713967   5.162   5.018  16.366  0.4183  0.1671 -0.4818
  105CHL1   H7A13968   5.151   5.124  16.396 -0.4693 -0.6220  2.3249
  105CHL1   H7B13969   5.261   5.005  16.318  1.3340  1.7046  0.8852
  105CHL1    C813970   5.059   4.967  16.263 -0.0928 -0.8395  0.6688
  105CHL1    H813971   4.961   5.011  16.292  0.7787  1.0969  0.8354
  105CHL1   C1413972   5.089   5.026  16.122  0.1725  0.0052  0.0306
  105CHL1   H1413973   5.192   4.990  16.101  0.1213 -1.2547  1.7701
  105CHL1   C1513974   5.098   5.177  16.111  0.8344 -0.1198 -0.1479
  105CHL1  H15A13975   5.007   5.233  16.141  0.0694 -1.3758 -0.0137
  105CHL1  H15B13976   5.190   5.223  16.154  2.0553 -1.3428 -1.3363
  105CHL1   C1613977   5.095   5.200  15.952 -0.5620 -0.2155  0.2622
  105CHL1  H16A13978   5.012   5.270  15.927 -1.1807 -0.4331  1.6013
  105CHL1  H16B13979   5.195   5.234  15.917  0.8370 -2.0456  2.2208
  105CHL1   C1713980   5.058   5.057  15.896  0.1059 -0.1130 -0.0459
  105CHL1   H1713981   5.150   5.004  15.863 -0.2498 -1.0896  0.4971
  105CHL1   C1313982   4.998   4.983  16.012 -0.0364 -0.4194 -0.1446
  105CHL1   C1813983   4.853   5.044  16.030 -0.0892  0.0519  0.7697
  105CHL1  H18A13984   4.859   5.154  16.036 -0.1650  0.0194  5.1248
  105CHL1  H18B13985   4.786   5.022  15.944 -1.1637  0.9821  1.3511
  105CHL1  H18C13986   4.807   5.008  16.125  0.6399 -1.9984  0.4053
  105CHL1   C1213987   4.999   4.834  15.999  0.7346  0.1492 -0.3327
  105CHL1  H12A13988   4.947   4.796  15.908 -1.0953 -1.3323  1.2257
  105CHL1  H12B13989   5.106   4.815  15.976  1.1459  0.5224  1.1759
  105CHL1   C1113990   4.964   4.770  16.133  0.4097 -0.0031 -0.8545
  105CHL1  H11A13991   4.857   4.782  16.161 -0.5678 -1.1315 -3.7315
  105CHL1  H11B13992   4.974   4.660  16.120  0.3734 -0.5000  2.4868
  105CHL1    C913993   5.054   4.810  16.260  0.0533 -0.3212  0.1921
  105CHL1    H913994   5.155   4.784  16.221 -1.1168 -0.1914 -3.1994
  105CHL1   C1013995   5.045   4.736  16.392  1.4682  0.4890 -0.3866
  105CHL1   C1913996   4.890   4.721  16.429 -0.1635 -0.9525  0.8769
  105CHL1  H19A13997   4.849   4.818  16.464  1.9264 -0.6040  2.5974
  105CHL1  H19B13998   4.831   4.675  16.347  1.8340  0.9057 -1.7697
  105CHL1  H19C13999   4.891   4.652  16.516  0.1207  0.7322  2.2718
  105CHL1    C114000   5.095   4.595  16.367  0.0680 -0.9305 -0.7740
  105CHL1   H1A14001   5.042   4.536  16.288 -0.8857 -2.1883  0.7366
  105CHL1   H1B14002   5.200   4.602  16.333 -0.8200  1.2773 -3.5026
  105CHL1    C214003   5.114   4.512  16.496 -0.2343  0.4404 -0.2386
  105CHL1   H2A14004   5.169   4.419  16.468  0.6108  0.9346 -0.2338
  105CHL1   H2B14005   5.014   4.481  16.535 -1.3648  2.5101 -1.3507
  105CHL1   C2014006   4.979   5.071  15.760 -0.1430  0.6064  0.1104
  105CHL1   H2014007   4.882   5.125  15.773  0.6574  1.7581  1.6853
  105CHL1   C2114008   4.952   4.932  15.695  0.3788  0.3528  0.5384
  105CHL1  H21A14009   4.920   4.936  15.589 -1.6514 -0.7319  1.0518
  105CHL1  H21B14010   4.860   4.879  15.730 -0.9488  2.4150  0.3229
  105CHL1  H21C14011   5.037   4.861  15.709 -2.0933 -2.4009  3.2487
  105CHL1   C2214012   5.060   5.149  15.656  0.2886 -0.1756 -0.9094
  105CHL1  H22A14013   5.000   5.149  15.562  0.0830  0.9669 -0.7922
  105CHL1  H22B14014   5.072   5.253  15.692 -0.8495  0.0242 -1.0749
  105CHL1   C2314015   5.205   5.110  15.607  0.8593  0.1861  0.1865
  105CHL1  H23A14016   5.274   5.088  15.691  1.4853 -0.8632 -0.5792
  105CHL1  H23B14017   5.187   5.011  15.560  0.0713  1.3270 -2.0725
  105CHL1   C2414018   5.266   5.193  15.499 -0.4920  0.0278  0.4840
  105CHL1  H24A14019   5.363   5.157  15.458  0.3414  1.9253  0.7124
  105CHL1  H24B14020   5.191   5.202  15.418  0.0399 -0.9128 -0.1438
  105CHL1   C2514021   5.293   5.340  15.547 -0.0687  0.0298  0.2711
  105CHL1   H2514022   5.198   5.395  15.563 -0.6837 -1.0782  0.5016
  105CHL1   C2614023   5.374   5.344  15.676 -0.7138  0.2117 -0.1836
  105CHL1  H26A14024   5.331   5.279  15.755 -4.9279  2.5807 -0.2224
  105CHL1  H26B14025   5.482   5.325  15.658 -0.5445  0.5190  0.4636
  105CHL1  H26C14026   5.388   5.444  15.722  0.9952 -0.6797  1.3779
  105CHL1   C2714027   5.368   5.411  15.434  0.3193 -0.3583 -0.1778
  105CHL1  H27A14028   5.328   5.389  15.333  0.9209  1.8551 -0.9676
  105CHL1  H27B14029   5.353   5.521  15.446  1.4990 -0.4105  2.7011
  105CHL1  H27C14030   5.476   5.386  15.427  0.5676  0.4140  0.6342
  106CHL1    C314031   0.922   3.227  16.550  0.0024  0.3117 -0.2777
  106CHL1    H314032   1.012   3.289  16.565 -0.8256  1.6598 -0.7042
  106CHL1    O314033   0.911   3.118  16.646 -0.4253  0.3544  0.9353
  106CHL1   H3'14034   0.920   3.156  16.734  2.5604 -0.3002  1.0235
  106CHL1    C414035   0.792   3.308  16.560  0.2008  0.4065 -0.1422
  106CHL1   H4A14036   0.702   3.245  16.576  0.2315  0.5504  0.6728
  106CHL1   H4B14037   0.808   3.366  16.654 -1.1781  0.7679 -0.1059
  106CHL1    C514038   0.771   3.412  16.451  1.1512 -1.0081 -0.4082
  106CHL1    C614039   0.743   3.543  16.475 -0.1021 -0.9682  0.4644
  106CHL1    H614040   0.752   3.589  16.575  0.6866 -0.4361  0.1543
  106CHL1    C714041   0.711   3.644  16.367 -0.2922 -0.0514  0.2531
  106CHL1   H7A14042   0.625   3.707  16.396 -0.8333  0.0572 -1.4624
  106CHL1   H7B14043   0.794   3.717  16.362 -1.0642  0.7530 -1.2979
  106CHL1    C814044   0.688   3.591  16.226 -0.6391 -0.1218 -0.2031
  106CHL1    H814045   0.579   3.571  16.226 -0.6670 -0.0245 -1.4471
  106CHL1   C1414046   0.714   3.693  16.121 -0.1781 -1.0408  0.4188
  106CHL1   H1414047   0.821   3.718  16.138  0.3695 -2.1334 -1.2081
  106CHL1   C1514048   0.633   3.825  16.142 -0.4006 -0.4864 -0.2011
  106CHL1  H15A14049   0.532   3.798  16.178  0.3437 -1.0272  1.6158
  106CHL1  H15B14050   0.687   3.887  16.218  1.0708 -2.1154  0.1426
  106CHL1   C1614051   0.639   3.888  15.997  0.5288 -0.1040 -0.5246
  106CHL1  H16A14052   0.536   3.898  15.956  0.1469  1.1156  0.6512
  106CHL1  H16B14053   0.700   3.981  15.987  0.4805 -0.1006 -0.8118
  106CHL1   C1714054   0.711   3.783  15.904 -0.1205 -0.1963 -0.4828
  106CHL1   H1714055   0.820   3.805  15.901  0.2575 -1.8158  0.4571
  106CHL1   C1314056   0.697   3.648  15.975 -0.0094 -0.0013 -0.5122
  106CHL1   C1814057   0.561   3.587  15.959 -0.0683 -0.7742  0.1770
  106CHL1  H18A14058   0.481   3.660  15.981 -1.9196 -2.7492  0.3248
  106CHL1  H18B14059   0.548   3.564  15.851 -1.4349 -0.5778  0.2837
  106CHL1  H18C14060   0.551   3.500  16.027  0.7985  0.1441  1.5474
  106CHL1   C1214061   0.802   3.549  15.952  0.3551  0.9195  0.4705
  106CHL1  H12A14062   0.785   3.495  15.857  1.0350  2.0098 -0.2883
  106CHL1  H12B14063   0.903   3.595  15.960  0.2834  1.0657  0.5323
  106CHL1   C1114064   0.804   3.435  16.057  0.8164 -0.2073  0.0442
  106CHL1  H11A14065   0.722   3.366  16.026 -0.7886  2.3832 -1.9060
  106CHL1  H11B14066   0.897   3.379  16.034  0.4332 -0.0199 -2.2393
  106CHL1    C914067   0.792   3.478  16.204  0.4276  0.0851 -0.3116
  106CHL1    H914068   0.883   3.532  16.237 -0.4062 -0.7828  4.1560
  106CHL1   C1014069   0.778   3.361  16.304 -0.1236  0.7231 -0.1039
  106CHL1   C1914070   0.651   3.283  16.272 -0.7592 -0.0648  0.1447
  106CHL1  H19A14071   0.663   3.221  16.181  2.1290  1.0097 -0.3029
  106CHL1  H19B14072   0.621   3.210  16.351 -1.4233 -1.0701 -0.9920
  106CHL1  H19C14073   0.571   3.357  16.250 -1.0342 -0.6059 -0.7389
  106CHL1    C114074   0.907   3.268  16.295  0.3026 -0.5019 -0.1423
  106CHL1   H1A14075   0.887   3.217  16.198 -2.2557  1.1549 -0.5844
  106CHL1   H1B14076   0.994   3.336  16.281  1.0499 -1.0090  1.7502
  106CHL1    C214077   0.931   3.163  16.405 -0.1765 -0.0899 -0.2583
  106CHL1   H2A14078   1.031   3.116  16.406  0.0669  0.4246  0.1204
  106CHL1   H2B14079   0.846   3.092  16.410  0.1115 -0.4326 -0.2187
  106CHL1   C2014080   0.659   3.798  15.757 -0.3519 -0.5342 -0.0793
  106CHL1   H2014081   0.552   3.772  15.752 -0.1716 -1.0994 -1.2106
  106CHL1   C2114082   0.747   3.701  15.673  0.3737  0.0499  0.4081
  106CHL1  H21A14083   0.725   3.595  15.699 -0.4543  0.0759 -0.1525
  106CHL1  H21B14084   0.856   3.716  15.686  0.6895 -2.6579  1.5574
  106CHL1  H21C14085   0.714   3.719  15.569 -1.3957  2.5545  1.3117
  106CHL1   C2214086   0.694   3.942  15.720 -0.5067 -0.5975 -0.6023
  106CHL1  H22A14087   0.611   4.009  15.752  1.1517  1.2549  0.0349
  106CHL1  H22B14088   0.786   3.977  15.771 -1.8903  2.2296  0.1324
  106CHL1   C2314089   0.688   3.973  15.567 -0.1088 -0.4542  0.4912
  106CHL1  H23A14090   0.708   4.081  15.552 -0.2418 -0.4624  0.2486
  106CHL1  H23B14091   0.767   3.913  15.516 -1.3259 -0.2736 -1.7400
  106CHL1   C2414092   0.544   3.950  15.512  0.1612  0.7808 -0.0112
  106CHL1  H24A14093   0.511   3.847  15.540 -0.1495  0.4549 -1.4492
  106CHL1  H24B14094   0.471   4.011  15.569 -0.1336 -1.4182  2.1339
  106CHL1   C2514095   0.530   3.959  15.364  0.4563  0.0559  0.5540
  106CHL1   H2514096   0.559   4.065  15.342 -0.1729  0.0080 -0.5984
  106CHL1   C2614097   0.629   3.869  15.285 -1.2797  0.0843  0.4321
  106CHL1  H26A14098   0.623   3.775  15.343  0.0684  1.0144  2.1651
  106CHL1  H26B14099   0.600   3.852  15.179 -0.3156 -2.4574  0.5158
  106CHL1  H26C14100   0.735   3.902  15.283 -0.2954 -2.8177 -0.4653
  106CHL1   C2714101   0.385   3.937  15.320  0.0956 -0.1512  0.5752
  106CHL1  H27A14102   0.326   4.008  15.382 -0.9114  0.5788 -1.1301
  106CHL1  H27B14103   0.367   3.955  15.212  0.4044 -2.4935  0.0944
  106CHL1  H27C14104   0.355   3.831  15.330  0.8216 -0.5019 -0.7189
  107CHL1    C314105   4.106   8.144  16.458 -0.7290  0.7529 -0.3972
  107CHL1    H314106   4.007   8.093  16.459  0.8759 -2.6808  1.5833
  107CHL1    O314107   4.139   8.153  16.596 -0.0853  0.3339 -0.0233
  107CHL1   H3'14108   4.130   8.064  16.631  1.4341 -0.7370 -2.1495
  107CHL1    C414109   4.207   8.065  16.370 -0.3393  0.1613 -0.3480
  107CHL1   H4A14110   4.307   8.113  16.383  0.1184  0.0223 -2.8659
  107CHL1   H4B14111   4.217   7.962  16.409 -1.2342 -0.0348 -0.6084
  107CHL1    C514112   4.181   8.065  16.225 -0.2817 -0.3403 -0.2766
  107CHL1    C614113   4.164   7.950  16.156  0.3827  0.1197  0.1256
  107CHL1    H614114   4.178   7.851  16.202  3.9176 -0.2952 -1.5132
  107CHL1    C714115   4.149   7.945  16.008  0.0295  0.2530  0.1374
  107CHL1   H7A14116   4.228   7.876  15.972 -0.8232 -0.4241 -0.4741
  107CHL1   H7B14117   4.051   7.909  15.970  1.1956  0.2958 -3.3346
  107CHL1    C814118   4.176   8.083  15.946 -1.1909  0.8268  0.8103
  107CHL1    H814119   4.286   8.099  15.941 -1.5781  3.9843  0.4536
  107CHL1   C1414120   4.114   8.086  15.806 -0.0091  0.0635 -0.0419
  107CHL1   H1414121   4.006   8.062  15.810 -0.2405 -0.1588 -3.9659
  107CHL1   C1514122   4.153   7.972  15.700  0.0074 -0.1946 -0.8897
  107CHL1  H15A14123   4.261   7.954  15.718 -0.0273  0.8150  0.4367
  107CHL1  H15B14124   4.099   7.876  15.718  0.3677 -0.2492 -0.0339
  107CHL1   C1614125   4.117   8.028  15.570  0.3778  0.1884  0.8347
  107CHL1  H16A14126   4.202   8.023  15.499 -0.2365 -0.3440  0.1307
  107CHL1  H16B14127   4.026   7.985  15.524 -1.0662  2.0234  1.8043
  107CHL1   C1714128   4.068   8.178  15.589  0.1839  0.0906  0.2455
  107CHL1   H1714129   3.959   8.190  15.602 -0.0006 -0.4129 -0.7131
  107CHL1   C1314130   4.122   8.222  15.727 -0.5334 -0.6521 -0.0942
  107CHL1   C1814131   4.271   8.250  15.702 -0.3929 -0.3524 -0.8696
  107CHL1  H18A14132   4.305   8.182  15.621  0.5071  0.8766 -1.5708
  107CHL1  H18B14133   4.292   8.356  15.675  1.0878 -0.8190 -1.6537
  107CHL1  H18C14134   4.327   8.226  15.795 -0.2948  1.9185 -0.2814
  107CHL1   C1214135   4.051   8.328  15.814 -0.1881  0.2801  0.1552
  107CHL1  H12A14136   4.052   8.428  15.764 -0.4234 -0.6348 -1.7731
  107CHL1  H12B14137   3.947   8.297  15.837  0.7221 -2.0741  1.4491
  107CHL1   C1114138   4.111   8.331  15.950 -0.2723  0.2260 -0.1263
  107CHL1  H11A14139   4.216   8.365  15.952 -0.8800  2.2413  2.1307
  107CHL1  H11B14140   4.053   8.402  16.013 -2.8336 -0.5557 -1.4396
  107CHL1    C914141   4.107   8.194  16.024  0.3549  0.3156 -0.0455
  107CHL1    H914142   4.000   8.165  16.032  0.5110 -0.1536  0.4152
  107CHL1   C1014143   4.163   8.207  16.166 -0.2630  0.6880  0.0399
  107CHL1   C1914144   4.311   8.274  16.158  0.3649 -0.2136 -0.1277
  107CHL1  H19A14145   4.391   8.221  16.103  1.7156  2.8915 -1.4150
  107CHL1  H19B14146   4.307   8.381  16.127  1.7489 -0.2226 -0.3978
  107CHL1  H19C14147   4.353   8.267  16.260  0.7623 -3.4697 -0.4287
  107CHL1    C114148   4.057   8.284  16.251  0.0203  0.0042 -0.0156
  107CHL1   H1A14149   4.048   8.386  16.209 -2.5021 -0.0268  0.3117
  107CHL1   H1B14150   3.958   8.236  16.238  1.4867 -2.6594 -2.9309
  107CHL1    C214151   4.089   8.281  16.402  0.5213 -0.0652 -0.4534
  107CHL1   H2A14152   4.008   8.335  16.455 -0.5649 -1.1963 -0.9103
  107CHL1   H2B14153   4.182   8.339  16.424 -0.7342  1.6303  0.6352
  107CHL1   C2014154   4.105   8.267  15.464  0.1304 -0.2754 -0.4949
  107CHL1   H2014155   4.214   8.282  15.449  0.0608  1.7367  0.6719
  107CHL1   C2114156   4.039   8.407  15.475  0.3515 -0.1532  0.0704
  107CHL1  H21A14157   3.930   8.409  15.455  0.0537 -1.5538  1.3556
  107CHL1  H21B14158   4.088   8.468  15.396  3.0272  1.1694  2.5611
  107CHL1  H21C14159   4.047   8.462  15.572 -0.2944  0.5708 -0.2775
  107CHL1   C2214160   4.072   8.192  15.326  0.1856  0.8269 -0.0994
  107CHL1  H22A14161   4.149   8.112  15.316 -0.3595  0.3455 -0.5209
  107CHL1  H22B14162   3.967   8.156  15.333  0.5512  0.0219  1.6890
  107CHL1   C2314163   4.082   8.282  15.203  0.2782  0.5058  0.2246
  107CHL1  H23A14164   4.003   8.360  15.202 -1.5752 -1.3052  0.6973
  107CHL1  H23B14165   4.183   8.329  15.205  0.2951  0.5192 -0.5788
  107CHL1   C2414166   4.058   8.209  15.072  0.0114  0.6038 -0.0046
  107CHL1  H24A14167   4.138   8.136  15.046 -1.5135 -1.2992  0.4237
  107CHL1  H24B14168   3.963   8.151  15.074  0.4952 -0.2497 -0.9259
  107CHL1   C2514169   4.042   8.300  14.953  0.0286 -0.1760 -0.2621
  107CHL1   H2514170   3.970   8.380  14.979  2.8797  2.5219 -0.1098
  107CHL1   C2614171   4.175   8.371  14.925 -0.4178  0.7647  0.1326
  107CHL1  H26A14172   4.173   8.438  14.836  1.6818 -0.1370 -0.6373
  107CHL1  H26B14173   4.198   8.437  15.012 -0.0744  0.0207  0.6086
  107CHL1  H26C14174   4.257   8.298  14.913 -1.1742  0.1031 -1.2261
  107CHL1   C2714175   3.990   8.227  14.823 -0.2726  0.1163 -0.2756
  107CHL1  H27A14176   4.053   8.137  14.805  0.6844  0.8755 -0.8342
  107CHL1  H27B14177   3.881   8.205  14.826 -0.3460  0.5163 -0.0438
  107CHL1  H27C14178   4.014   8.290  14.735  2.5940  0.3247  0.5468
  108CHL1    C314179   4.511   3.301  16.328 -0.3560  0.2838 -0.4409
  108CHL1    H314180   4.441   3.215  16.322 -0.3836  0.3248 -0.7364
  108CHL1    O314181   4.543   3.338  16.463 -0.6430 -0.0960 -0.3874
  108CHL1   H3'14182   4.613   3.404  16.466  0.9931 -1.7538  2.5293
  108CHL1    C414183   4.642   3.275  16.244 -0.2458  0.3613 -0.1684
  108CHL1   H4A14184   4.707   3.365  16.254 -0.0614  0.0996  1.2331
  108CHL1   H4B14185   4.697   3.188  16.287 -0.1569  0.2890 -0.4259
  108CHL1    C514186   4.608   3.252  16.102  0.4182  0.0087  0.0696
  108CHL1    C614187   4.637   3.140  16.037  0.2522  0.0991 -0.0003
  108CHL1    H614188   4.704   3.065  16.084  2.8639  2.0345 -0.3976
  108CHL1    C714189   4.605   3.124  15.887 -0.1332 -0.1475 -1.0049
  108CHL1   H7A14190   4.695   3.076  15.844  1.1118 -2.1971  3.3362
  108CHL1   H7B14191   4.523   3.050  15.876 -1.1392  0.7266  0.2467
  108CHL1    C814192   4.586   3.257  15.817  0.3296 -0.4992 -0.0676
  108CHL1    H814193   4.681   3.313  15.828  1.3126 -2.3121  1.3472
  108CHL1   C1414194   4.550   3.241  15.667  0.1516  0.0528  0.1866
  108CHL1   H1414195   4.458   3.180  15.667  0.0826  0.1505 -0.4257
  108CHL1   C1514196   4.643   3.165  15.572 -0.0373 -0.5305 -0.5559
  108CHL1  H15A14197   4.744   3.209  15.584 -0.6049  1.0132 -1.2041
  108CHL1  H15B14198   4.632   3.054  15.582  1.4984 -0.5708  1.0881
  108CHL1   C1614199   4.581   3.198  15.434 -0.0036 -0.5047  0.2914
  108CHL1  H16A14200   4.660   3.218  15.359  0.7229  1.4141  1.5180
  108CHL1  H16B14201   4.516   3.113  15.404 -0.0085 -0.6853  0.8096
  108CHL1   C1714202   4.498   3.332  15.444  0.2978  0.8416  0.2990
  108CHL1   H1714203   4.389   3.313  15.440  0.6522 -1.2732 -0.2514
  108CHL1   C1314204   4.518   3.369  15.592 -0.4202  0.3812 -0.5199
  108CHL1   C1814205   4.643   3.456  15.598 -0.5423 -0.6880  0.0073
  108CHL1  H18A14206   4.729   3.423  15.536 -0.7149  0.0716 -0.6493
  108CHL1  H18B14207   4.615   3.558  15.564  0.3997  0.1662  1.6745
  108CHL1  H18C14208   4.679   3.478  15.701  0.6571  0.2329 -0.5842
  108CHL1   C1214209   4.394   3.432  15.663  0.0492 -0.4213 -0.3806
  108CHL1  H12A14210   4.361   3.524  15.611 -0.3601 -0.8942 -0.9642
  108CHL1  H12B14211   4.303   3.369  15.660 -1.1127  1.2387 -1.5040
  108CHL1   C1114212   4.415   3.458  15.815 -0.1567  0.8275 -0.6623
  108CHL1  H11A14213   4.488   3.542  15.812  0.8981 -0.0734 -0.8167
  108CHL1  H11B14214   4.323   3.493  15.866  0.5151  0.7576  0.6623
  108CHL1    C914215   4.476   3.333  15.891  0.3616 -0.3328  0.4834
  108CHL1    H914216   4.389   3.266  15.905 -0.5960  0.3598 -1.7459
  108CHL1   C1014217   4.520   3.370  16.035 -0.1802  0.5901  0.4396
  108CHL1   C1914218   4.607   3.503  16.025 -0.1143  0.1045 -0.3267
  108CHL1  H19A14219   4.642   3.531  16.127  0.2276 -0.1110 -0.3828
  108CHL1  H19B14220   4.687   3.497  15.948  0.5077  4.2503 -0.2163
  108CHL1  H19C14221   4.548   3.596  16.010 -2.4759 -0.5721  3.4900
  108CHL1    C114222   4.390   3.389  16.123 -0.4149  0.2621 -0.0518
  108CHL1   H1A14223   4.334   3.470  16.072 -2.2510 -2.1425 -2.1419
  108CHL1   H1B14224   4.323   3.300  16.118  1.2462 -1.0266 -0.1169
  108CHL1    C214225   4.436   3.421  16.273  0.4012 -0.1239  0.2863
  108CHL1   H2A14226   4.344   3.447  16.330 -1.4458  0.9286 -2.9318
  108CHL1   H2B14227   4.499   3.512  16.276 -0.0996  0.2237  0.3652
  108CHL1   C2014228   4.531   3.426  15.322 -0.0153  0.0435  0.6042
  108CHL1   H2014229   4.639   3.451  15.329  0.1322 -0.8091  1.6473
  108CHL1   C2114230   4.446   3.558  15.336  0.0479  0.5378  0.0935
  108CHL1  H21A14231   4.460   3.630  15.252 -1.8619 -0.5208 -1.2248
  108CHL1  H21B14232   4.465   3.617  15.428  0.2256 -2.6153  2.2408
  108CHL1  H21C14233   4.339   3.528  15.346 -0.3457  0.4258 -3.2104
  108CHL1   C2214234   4.505   3.360  15.187 -0.0272 -0.4707 -0.2275
  108CHL1  H22A14235   4.523   3.431  15.104  1.2488  0.2201  0.6076
  108CHL1  H22B14236   4.568   3.271  15.166 -1.0866 -1.5914  1.0718
  108CHL1   C2314237   4.364   3.306  15.162  0.6807  0.0762  0.0288
  108CHL1  H23A14238   4.330   3.248  15.251 -0.2344 -2.0078 -1.5901
  108CHL1  H23B14239   4.289   3.386  15.145  0.1014 -0.2214  1.0726
  108CHL1   C2414240   4.344   3.214  15.039  0.5525  0.0126  0.6967
  108CHL1  H24A14241   4.389   3.265  14.951 -2.4785  0.8378 -0.5099
  108CHL1  H24B14242   4.392   3.114  15.044  2.5738  0.9210  0.4761
  108CHL1   C2514243   4.192   3.189  14.999 -0.8281 -0.1452  0.6461
  108CHL1   H2514244   4.134   3.177  15.093 -1.9172  1.1080  0.1576
  108CHL1   C2614245   4.138   3.311  14.921 -0.3387 -0.3588 -0.8938
  108CHL1  H26A14246   4.182   3.400  14.971  0.5407 -1.1441 -0.2526
  108CHL1  H26B14247   4.179   3.300  14.818  0.5122  0.0200 -0.6066
  108CHL1  H26C14248   4.028   3.320  14.916 -0.7438 -1.9014  2.5171
  108CHL1   C2714249   4.172   3.065  14.918  0.1678  0.0355 -0.3768
  108CHL1  H27A14250   4.224   2.982  14.971 -0.8267  0.5818  1.5144
  108CHL1  H27B14251   4.063   3.044  14.919 -0.0925  1.3286 -0.3442
  108CHL1  H27C14252   4.212   3.082  14.816 -1.1545  3.1295 -0.4811
  109CHL1    C314253   7.341   1.020  16.342  0.1724  0.4133  0.0739
  109CHL1    H314254   7.339   1.122  16.387 -2.6179  0.1440  0.8121
  109CHL1    O314255   7.363   0.939  16.453  0.3143  0.3132  0.3211
  109CHL1   H3'14256   7.307   0.861  16.444  0.9437 -0.0321 -0.7518
  109CHL1    C414257   7.203   0.979  16.293  0.3970  0.0354  0.7821
  109CHL1   H4A14258   7.195   0.869  16.289  0.6227  0.0482 -0.5323
  109CHL1   H4B14259   7.132   1.015  16.370  0.1193  0.6805  0.2422
  109CHL1    C514260   7.174   1.047  16.159 -0.0255  0.2578 -0.3132
  109CHL1    C614261   7.064   1.124  16.144 -0.0076 -0.1855 -0.4338
  109CHL1    H614262   7.010   1.149  16.237 -0.2424 -0.3062 -0.5379
  109CHL1    C714263   7.023   1.192  16.016 -0.1078 -0.4169  0.0872
  109CHL1   H7A14264   6.915   1.176  16.002 -0.2942  2.0825 -2.0198
  109CHL1   H7B14265   7.048   1.299  16.031  3.5071 -1.2247  0.9024
  109CHL1    C814266   7.101   1.139  15.896  0.1749 -0.4085 -0.1677
  109CHL1    H814267   7.086   1.036  15.859  1.4777 -0.1058 -1.6255
  109CHL1   C1414268   7.083   1.221  15.773  0.1324 -0.5313 -0.1719
  109CHL1   H1414269   7.111   1.326  15.795 -1.6999 -0.1079  0.2458
  109CHL1   C1514270   6.941   1.225  15.724  0.1563  0.3816  0.0296
  109CHL1  H15A14271   6.894   1.125  15.734 -0.6122  0.7905  0.5460
  109CHL1  H15B14272   6.880   1.295  15.785 -0.7871 -0.4556  0.0684
  109CHL1   C1614273   6.952   1.283  15.577 -0.0751 -0.6638 -0.9051
  109CHL1  H16A14274   6.882   1.224  15.514 -1.9450  0.6773 -0.1954
  109CHL1  H16B14275   6.929   1.392  15.581 -0.1279 -0.4381 -4.5410
  109CHL1   C1714276   7.102   1.280  15.546 -0.8345 -0.3134  0.1872
  109CHL1   H1714277   7.147   1.378  15.573  2.4501 -1.6320 -0.0134
  109CHL1   C1314278   7.164   1.185  15.645 -0.9563 -1.1784 -0.0974
  109CHL1   C1814279   7.137   1.044  15.600 -0.5504 -0.3639  0.4563
  109CHL1  H18A14280   7.148   0.969  15.680 -3.4097 -0.6008  0.7328
  109CHL1  H18B14281   7.037   1.034  15.552  0.6536 -1.8081 -1.9646
  109CHL1  H18C14282   7.212   1.019  15.522 -1.1973 -0.6467 -0.0860
  109CHL1   C1214283   7.312   1.215  15.685  0.5982 -0.3817 -0.1207
  109CHL1  H12A14284   7.391   1.196  15.609 -0.6721  0.4224 -1.6863
  109CHL1  H12B14285   7.323   1.321  15.717 -1.4454 -0.2008  0.1215
  109CHL1   C1114286   7.343   1.122  15.808  0.4025  0.2243 -0.0377
  109CHL1  H11A14287   7.338   1.022  15.762 -0.1833  0.7532 -1.1615
  109CHL1  H11B14288   7.451   1.135  15.834  0.3234  0.5364  0.1378
  109CHL1    C914289   7.246   1.133  15.934 -0.1032 -0.4592  0.4894
  109CHL1    H914290   7.258   1.233  15.980 -1.6432  0.4899 -1.0621
  109CHL1   C1014291   7.280   1.028  16.046 -0.0820 -0.6418  0.1310
  109CHL1   C1914292   7.289   0.883  15.988  0.7773 -0.1837  0.1055
  109CHL1  H19A14293   7.291   0.816  16.076  1.0633  0.0281  0.2597
  109CHL1  H19B14294   7.194   0.860  15.935 -0.5436  2.4364  1.1758
  109CHL1  H19C14295   7.380   0.862  15.927  0.4460 -1.7241  0.1015
  109CHL1    C114296   7.415   1.065  16.114  0.6003  0.0849 -0.2340
  109CHL1   H1A14297   7.501   1.062  16.044  2.2720  0.5625  1.7023
  109CHL1   H1B14298   7.403   1.174  16.133  0.7880  0.0342  0.1811
  109CHL1    C214299   7.451   0.993  16.250  0.3833 -0.7309 -0.4318
  109CHL1   H2A14300   7.541   1.044  16.291  0.5006 -0.3303 -1.1631
  109CHL1   H2B14301   7.468   0.887  16.222  0.2668 -0.5723 -1.1310
  109CHL1   C2014302   7.137   1.251  15.396 -0.4740  0.2924  0.0430
  109CHL1   H2014303   7.092   1.152  15.372  1.2975 -0.8984  1.3567
  109CHL1   C2114304   7.285   1.249  15.369 -0.3551 -0.4064  0.0877
  109CHL1  H21A14305   7.329   1.329  15.433 -2.0106 -0.4051  1.2915
  109CHL1  H21B14306   7.321   1.262  15.265 -2.3170  1.0009 -0.4526
  109CHL1  H21C14307   7.328   1.149  15.395 -0.6809 -0.9081 -1.2428
  109CHL1   C2214308   7.072   1.354  15.299  0.4188 -0.2667 -0.4132
  109CHL1  H22A14309   7.086   1.321  15.193 -1.3077 -0.7259 -0.5309
  109CHL1  H22B14310   6.963   1.338  15.311  0.6060 -2.1603 -0.8863
  109CHL1   C2314311   7.118   1.503  15.316  0.2538  0.0744 -0.0135
  109CHL1  H23A14312   7.051   1.552  15.390 -0.9253 -0.9567 -0.3609
  109CHL1  H23B14313   7.222   1.511  15.354  0.3219  0.6859 -0.3008
  109CHL1   C2414314   7.106   1.584  15.183  0.2663  0.2604  0.3231
  109CHL1  H24A14315   7.149   1.524  15.100  1.4215 -2.0257  2.4480
  109CHL1  H24B14316   7.002   1.598  15.145  0.3267 -1.4797 -0.6048
  109CHL1   C2514317   7.179   1.720  15.196 -1.4990 -0.2301  0.1487
  109CHL1   H2514318   7.284   1.705  15.227 -0.8315  0.5464 -1.6435
  109CHL1   C2614319   7.186   1.790  15.062 -0.1972  0.1149  0.7414
  109CHL1  H26A14320   7.255   1.877  15.064  1.4120 -1.0997  0.1237
  109CHL1  H26B14321   7.227   1.717  14.989  1.7573  0.7377  1.1776
  109CHL1  H26C14322   7.083   1.814  15.028  0.7191 -0.2011 -2.5307
  109CHL1   C2714323   7.109   1.811  15.297 -0.5849 -0.0464 -0.0247
  109CHL1  H27A14324   7.152   1.913  15.298  1.0688 -0.7032 -0.9412
  109CHL1  H27B14325   7.000   1.818  15.273 -0.9056 -0.1713  1.3285
  109CHL1  H27C14326   7.123   1.777  15.402 -0.9890 -1.4334 -0.3947
  110CHL1    C314327   0.585   6.207  16.440  0.3893 -1.2504  0.2124
  110CHL1    H314328   0.512   6.291  16.431 -2.8131 -3.8635  0.1990
  110CHL1    O314329   0.601   6.171  16.573 -0.3863 -0.0637  0.4735
  110CHL1   H3'14330   0.585   6.076  16.575  1.4614 -0.4321 -0.1487
  110CHL1    C414331   0.506   6.095  16.367 -0.1163 -0.1743 -1.1315
  110CHL1   H4A14332   0.573   6.007  16.377 -0.6833 -0.5145 -0.1538
  110CHL1   H4B14333   0.415   6.071  16.426  0.0410 -4.6464 -2.3449
  110CHL1    C514334   0.489   6.117  16.215 -0.2001  0.3625 -0.7512
  110CHL1    C614335   0.372   6.095  16.165  0.7922 -0.4798  0.6507
  110CHL1    H614336   0.290   6.056  16.227 -0.9486  0.4269 -0.9824
  110CHL1    C714337   0.336   6.122  16.027 -0.4499  0.4857  0.2187
  110CHL1   H7A14338   0.267   6.042  15.994 -0.4503  1.2657 -1.8132
  110CHL1   H7B14339   0.288   6.221  16.011 -0.6921  0.1221 -1.5638
  110CHL1    C814340   0.459   6.129  15.933  0.2546 -0.1226  0.1311
  110CHL1    H814341   0.494   6.025  15.916  2.7499  0.9667 -2.2651
  110CHL1   C1414342   0.418   6.185  15.796 -0.0003 -0.5792  0.0517
  110CHL1   H1414343   0.369   6.282  15.818 -1.0843 -0.9601 -0.6027
  110CHL1   C1514344   0.317   6.106  15.712  0.1828  0.2411 -0.6434
  110CHL1  H15A14345   0.348   6.000  15.723  0.8690  0.5571  0.5284
  110CHL1  H15B14346   0.218   6.121  15.761  0.5910  1.4525 -0.1345
  110CHL1   C1614347   0.327   6.168  15.572 -0.3858  0.1779 -0.1515
  110CHL1  H16A14348   0.341   6.096  15.488 -0.8915  0.9659 -0.9385
  110CHL1  H16B14349   0.238   6.229  15.544 -0.1229  0.3698 -0.5853
  110CHL1   C1714350   0.454   6.262  15.578 -1.1763 -0.0834  0.0346
  110CHL1   H1714351   0.421   6.364  15.606 -0.2151  0.9350 -2.2969
  110CHL1   C1314352   0.536   6.213  15.699 -0.1836  0.5228  0.3280
  110CHL1   C1814353   0.598   6.077  15.665 -0.4152 -0.5986 -0.6148
  110CHL1  H18A14354   0.534   6.003  15.613 -1.2733 -0.2785 -0.0269
  110CHL1  H18B14355   0.691   6.087  15.604  0.6403 -0.9051  0.8787
  110CHL1  H18C14356   0.630   6.032  15.761 -0.0957  1.8135  0.4674
  110CHL1   C1214357   0.625   6.312  15.764 -0.0742 -0.8007 -0.3806
  110CHL1  H12A14358   0.712   6.343  15.702  0.3460  1.1335  1.0650
  110CHL1  H12B14359   0.559   6.401  15.772 -0.9667 -1.5152  0.4689
  110CHL1   C1114360   0.680   6.269  15.898  0.1636  0.0300 -0.5699
  110CHL1  H11A14361   0.743   6.184  15.864 -1.2131 -2.1225  1.8993
  110CHL1  H11B14362   0.738   6.345  15.953  1.9647 -1.7015  0.0498
  110CHL1    C914363   0.566   6.221  15.995  0.1259  0.0971  0.0034
  110CHL1    H914364   0.502   6.311  16.008  3.6105  2.9328 -0.9781
  110CHL1   C1014365   0.612   6.179  16.136  0.7246 -0.1039 -1.0035
  110CHL1   C1914366   0.713   6.066  16.119 -0.2927  0.6542 -0.0909
  110CHL1  H19A14367   0.764   6.045  16.216  0.3225 -2.5113 -1.0093
  110CHL1  H19B14368   0.659   5.981  16.073 -1.2608  2.1387 -1.7896
  110CHL1  H19C14369   0.797   6.092  16.052  0.7042  0.0930  0.9040
  110CHL1    C114370   0.685   6.289  16.218  0.0897 -0.6856 -0.5105
  110CHL1   H1A14371   0.780   6.319  16.169  1.4142 -1.5924  1.3701
  110CHL1   H1B14372   0.626   6.384  16.221  0.9444 -0.1696  0.4240
  110CHL1    C214373   0.713   6.255  16.365 -0.3461 -0.1484 -0.2244
  110CHL1   H2A14374   0.750   6.346  16.416 -0.2859 -0.8259  0.9969
  110CHL1   H2B14375   0.784   6.169  16.367  0.1418  0.2640  0.3458
  110CHL1   C2014376   0.526   6.269  15.449 -0.4099  0.4108  0.0361
  110CHL1   H2014377   0.545   6.167  15.409  0.3582  0.2793  0.7180
  110CHL1   C2114378   0.660   6.344  15.445  0.2536 -0.4885 -0.4542
  110CHL1  H21A14379   0.681   6.375  15.341  1.0307 -0.8983 -0.4201
  110CHL1  H21B14380   0.736   6.280  15.494  0.0870 -1.6247 -1.6307
  110CHL1  H21C14381   0.652   6.445  15.491  0.4734 -1.2782  1.4051
  110CHL1   C2214382   0.441   6.340  15.339  0.5593 -0.3751  0.2737
  110CHL1  H22A14383   0.506   6.366  15.253 -0.8188  3.8746  0.3015
  110CHL1  H22B14384   0.359   6.269  15.314 -0.1674  0.0340  1.4384
  110CHL1   C2314385   0.392   6.484  15.379 -0.0762 -0.2513 -0.9572
  110CHL1  H23A14386   0.309   6.473  15.451  0.3013  0.1361 -0.4523
  110CHL1  H23B14387   0.463   6.551  15.432 -1.7410  1.2673 -0.5443
  110CHL1   C2414388   0.325   6.559  15.260  0.1125  0.4996 -0.1644
  110CHL1  H24A14389   0.417   6.580  15.201  0.1492 -1.5931 -0.9379
  110CHL1  H24B14390   0.270   6.480  15.204 -1.0031  0.4935  0.9024
  110CHL1   C2514391   0.227   6.676  15.291  0.7532  0.4159  0.1720
  110CHL1   H2514392   0.161   6.640  15.373  1.2730  1.3546  1.0317
  110CHL1   C2614393   0.306   6.783  15.359  0.1502 -0.5589  0.6147
  110CHL1  H26A14394   0.240   6.868  15.386 -2.5946 -1.6447 -2.0758
  110CHL1  H26B14395   0.348   6.749  15.456 -0.0061  2.2759  1.7753
  110CHL1  H26C14396   0.392   6.813  15.294 -0.3160  0.2996  0.3729
  110CHL1   C2714397   0.142   6.725  15.173 -0.4969  0.1272 -0.1118
  110CHL1  H27A14398   0.115   6.635  15.115  0.4189 -1.0816  1.2641
  110CHL1  H27B14399   0.042   6.770  15.189 -1.0845 -0.9688 -0.5965
  110CHL1  H27C14400   0.192   6.787  15.095 -1.1423 -0.2308 -0.8218
  111CHL1    C314401   2.049   0.664  16.535 -0.2592 -0.0358  0.3657
  111CHL1    H314402   1.946   0.640  16.502 -0.6927 -0.5726  2.0150
  111CHL1    O314403   2.055   0.662  16.674 -0.2591 -0.1981 -0.4483
  111CHL1   H3'14404   2.149   0.666  16.692 -0.0980 -0.4444 -1.1926
  111CHL1    C414405   2.146   0.570  16.479  0.0372 -0.1727 -0.6094
  111CHL1   H4A14406   2.243   0.612  16.514 -0.4088 -0.0075  0.4644
  111CHL1   H4B14407   2.138   0.469  16.524 -2.8499 -0.5066 -1.6755
  111CHL1    C514408   2.127   0.566  16.330 -0.4766  0.2125 -0.1286
  111CHL1    C614409   2.097   0.449  16.271  0.1818 -0.0775 -0.1912
  111CHL1    H614410   2.064   0.369  16.340 -2.8397  0.8324 -0.4463
  111CHL1    C714411   2.074   0.423  16.126  0.4027 -0.6109 -1.1334
  111CHL1   H7A14412   2.140   0.336  16.107  3.0960  1.3267 -1.2963
  111CHL1   H7B14413   1.968   0.396  16.111 -0.7269  1.1214  2.6370
  111CHL1    C814414   2.123   0.547  16.040 -0.0969 -0.5142  0.2312
  111CHL1    H814415   2.233   0.533  16.032 -0.0001 -0.4496  1.2201
  111CHL1   C1414416   2.056   0.545  15.901 -0.0941 -0.4583  0.0743
  111CHL1   H1414417   1.949   0.561  15.927 -0.0007  0.7754 -0.2634
  111CHL1   C1514418   2.053   0.408  15.823  0.7124  0.5325 -0.2520
  111CHL1  H15A14419   2.142   0.343  15.815  0.6727  0.5424 -0.8526
  111CHL1  H15B14420   1.966   0.348  15.855  0.2626  0.7631 -1.0170
  111CHL1   C1614421   2.032   0.454  15.674  0.4129 -0.6509 -0.1803
  111CHL1  H16A14422   2.120   0.420  15.616  0.5768 -0.3917 -0.0826
  111CHL1  H16B14423   1.941   0.405  15.633  0.3798  1.0086 -2.3080
  111CHL1   C1714424   2.021   0.610  15.679 -0.0782 -0.0672 -0.2554
  111CHL1   H1714425   1.914   0.637  15.694  0.3409  0.9923  0.9778
  111CHL1   C1314426   2.096   0.656  15.809  0.0120 -1.2952 -0.0739
  111CHL1   C1814427   2.254   0.648  15.778  0.5394  0.3774 -0.4302
  111CHL1  H18A14428   2.284   0.550  15.734 -0.1970 -0.9366  1.8287
  111CHL1  H18B14429   2.277   0.738  15.716  3.0193 -0.4167 -0.7802
  111CHL1  H18C14430   2.309   0.655  15.874 -0.3863 -0.6655  0.2009
  111CHL1   C1214431   2.042   0.780  15.873  0.2769 -1.3407 -0.6744
  111CHL1  H12A14432   2.071   0.873  15.819  2.3250  0.0058  2.4231
  111CHL1  H12B14433   1.932   0.769  15.875  0.2375 -1.1984  2.2428
  111CHL1   C1114434   2.098   0.795  16.021 -0.0253  0.7972  1.1447
  111CHL1  H11A14435   2.204   0.827  16.011  0.5424 -0.8880  1.5038
  111CHL1  H11B14436   2.042   0.881  16.063  0.1125  2.3734 -1.6149
  111CHL1    C914437   2.088   0.676  16.110  0.2938 -0.6712  0.4328
  111CHL1    H914438   1.978   0.673  16.119 -0.5676  2.9512 -4.4669
  111CHL1   C1014439   2.146   0.696  16.252 -0.4447 -0.6460 -0.5265
  111CHL1   C1914440   2.293   0.742  16.248 -0.6861 -0.1740 -0.1655
  111CHL1  H19A14441   2.345   0.754  16.346  0.0491 -0.7838 -0.4698
  111CHL1  H19B14442   2.348   0.670  16.183  1.9812 -0.3095  2.0617
  111CHL1  H19C14443   2.316   0.841  16.203  1.9902 -0.9639 -0.7229
  111CHL1    C114444   2.061   0.802  16.331 -0.1899 -0.1130 -0.2465
  111CHL1   H1A14445   2.081   0.903  16.289 -1.8196 -0.2898 -1.5240
  111CHL1   H1B14446   1.956   0.787  16.298  0.1863 -0.1381 -1.4448
  111CHL1    C214447   2.070   0.811  16.481 -0.2954  0.3228 -0.3967
  111CHL1   H2A14448   1.978   0.862  16.517  0.6519  2.8572 -1.3928
  111CHL1   H2B14449   2.160   0.865  16.516 -0.0314 -0.0876 -0.4390
  111CHL1   C2014450   2.045   0.676  15.540 -1.1872  0.2910 -0.1081
  111CHL1   H2014451   2.155   0.671  15.528 -0.8129  0.5981  2.6205
  111CHL1   C2114452   1.992   0.820  15.531  0.4670  0.1782  0.0790
  111CHL1  H21A14453   2.028   0.878  15.618 -2.7957  2.6603 -0.0307
  111CHL1  H21B14454   1.881   0.823  15.543  0.5722  1.0680  0.9434
  111CHL1  H21C14455   2.019   0.866  15.434 -1.2514 -1.2473 -1.1550
  111CHL1   C2214456   1.988   0.589  15.422 -0.2067 -0.5225  0.4196
  111CHL1  H22A14457   2.015   0.483  15.443  0.2734 -0.3265  0.8336
  111CHL1  H22B14458   1.879   0.606  15.418 -0.0089  1.2923  1.3818
  111CHL1   C2314459   2.053   0.622  15.288  0.3144  0.1262  0.0390
  111CHL1  H23A14460   2.035   0.727  15.256 -0.0849  0.1654  0.3887
  111CHL1  H23B14461   2.163   0.617  15.300  0.5954 -0.8001 -2.3364
  111CHL1   C2414462   2.016   0.534  15.166  0.3929  0.5674  0.7848
  111CHL1  H24A14463   2.003   0.426  15.189  0.2971  0.1491 -1.0516
  111CHL1  H24B14464   1.928   0.577  15.115  1.1971  2.4701  0.9307
  111CHL1   C2514465   2.127   0.545  15.057  0.0564  0.6715  0.1970
  111CHL1   H2514466   2.226   0.518  15.100  1.4857  2.4876 -1.7642
  111CHL1   C2614467   2.105   0.435  14.946 -0.5817 -0.5195  0.5269
  111CHL1  H26A14468   2.124   0.331  14.979  1.2419 -1.5839 -3.2767
  111CHL1  H26B14469   2.003   0.443  14.903 -0.5228 -2.4085 -0.0583
  111CHL1  H26C14470   2.177   0.447  14.862  0.2166  0.5771  1.3494
  111CHL1   C2714471   2.129   0.685  14.993 -0.0094 -0.3120  0.6498
  111CHL1  H27A14472   2.114   0.769  15.063 -0.9861 -1.2959  1.6750
  111CHL1  H27B14473   2.228   0.690  14.943 -0.0921 -0.3943  0.4745
  111CHL1  H27C14474   2.052   0.695  14.912  0.9971  0.9605 -0.1916
  112CHL1    C314475   3.365   1.361  16.552  0.3173  0.6254  0.2698
  112CHL1    H314476   3.279   1.328  16.490  1.9261 -0.1054 -1.7113
  112CHL1    O314477   3.319   1.430  16.668  0.5539 -0.4131 -0.1211
  112CHL1   H3'14478   3.293   1.358  16.726 -1.2498 -0.0239 -0.3643
  112CHL1    C414479   3.463   1.247  16.593  0.4371 -0.2775 -0.3521
  112CHL1   H4A14480   3.537   1.293  16.662 -1.3015  2.9328 -0.4550
  112CHL1   H4B14481   3.403   1.180  16.659 -0.9118  0.7065 -0.5316
  112CHL1    C514482   3.523   1.185  16.473  0.1495  0.4062  0.6332
  112CHL1    C614483   3.517   1.055  16.446 -0.2927 -0.0934 -0.5277
  112CHL1    H614484   3.466   0.988  16.517 -0.7798  1.0394  0.2192
  112CHL1    C714485   3.575   0.985  16.326  0.4104  0.1973  0.4011
  112CHL1   H7A14486   3.618   0.884  16.342  1.3862  0.4639 -0.4355
  112CHL1   H7B14487   3.501   0.959  16.247 -0.7154  1.4679  1.0071
  112CHL1    C814488   3.688   1.073  16.258 -0.8188  0.1345  0.5030
  112CHL1    H814489   3.780   1.081  16.320 -1.4700  1.7341  1.3371
  112CHL1   C1414490   3.713   1.022  16.115  0.2593  0.1668 -0.2163
  112CHL1   H1414491   3.618   1.037  16.059  0.1016  1.0168  0.2672
  112CHL1   C1514492   3.726   0.878  16.094 -0.2709  0.3686  0.6452
  112CHL1  H15A14493   3.790   0.840  16.178 -0.9244  0.0812  1.0234
  112CHL1  H15B14494   3.629   0.825  16.100  1.0948 -2.2414  1.4246
  112CHL1   C1614495   3.780   0.861  15.950 -0.1740  0.3114  0.1990
  112CHL1  H16A14496   3.858   0.782  15.950 -0.7358 -0.2573  0.4660
  112CHL1  H16B14497   3.701   0.831  15.878 -0.8357  1.8614  0.2312
  112CHL1   C1714498   3.840   1.000  15.913  0.1152 -0.2459  0.2395
  112CHL1   H1714499   3.761   1.043  15.848  0.0194 -0.9015 -0.0840
  112CHL1   C1314500   3.828   1.086  16.039 -0.1427 -0.0082 -0.2176
  112CHL1   C1814501   3.960   1.073  16.120 -0.8325  0.0131 -0.4461
  112CHL1  H18A14502   3.971   0.964  16.136 -3.4737 -0.8035 -3.1554
  112CHL1  H18B14503   4.039   1.123  16.060 -2.3285  1.9859 -0.9010
  112CHL1  H18C14504   3.960   1.129  16.216 -0.1263  3.0716 -2.1048
  112CHL1   C1214505   3.779   1.232  16.020 -0.1058 -0.6542 -0.6465
  112CHL1  H12A14506   3.860   1.297  15.981  0.5189  0.5207  2.3875
  112CHL1  H12B14507   3.697   1.228  15.944 -0.7845 -0.5893  0.0669
  112CHL1   C1114508   3.736   1.306  16.155  0.4315  0.9476 -0.3032
  112CHL1  H11A14509   3.833   1.323  16.206  0.9380 -0.8894 -0.5971
  112CHL1  H11B14510   3.691   1.406  16.137 -2.2631 -0.5390 -2.7380
  112CHL1    C914511   3.642   1.213  16.243  0.4192 -0.2476  0.2566
  112CHL1    H914512   3.548   1.210  16.182 -0.6982  2.0119  1.7107
  112CHL1   C1014513   3.602   1.287  16.375 -0.3652 -0.5830 -0.6098
  112CHL1   C1914514   3.734   1.343  16.443  0.4866 -0.1719 -0.1630
  112CHL1  H19A14515   3.759   1.445  16.405  0.0864  1.3575  3.2402
  112CHL1  H19B14516   3.726   1.361  16.553  1.2991  0.2616 -0.1610
  112CHL1  H19C14517   3.813   1.267  16.427  0.3004 -0.2209 -0.8579
  112CHL1    C114518   3.504   1.402  16.346  0.0189 -0.4556 -0.0567
  112CHL1   H1A14519   3.558   1.479  16.286 -0.4358  1.8456  2.3108
  112CHL1   H1B14520   3.424   1.367  16.278  0.9223  1.7196 -2.4116
  112CHL1    C214521   3.444   1.466  16.470 -0.2213  1.1089  0.4193
  112CHL1   H2A14522   3.381   1.550  16.432 -1.5126  0.0942  0.2556
  112CHL1   H2B14523   3.519   1.508  16.540  0.4900 -0.2167  0.4815
  112CHL1   C2014524   3.967   0.997  15.829  0.5444 -0.3139  0.4551
  112CHL1   H2014525   4.041   0.941  15.890  0.6655 -0.8679 -0.1816
  112CHL1   C2114526   4.011   1.133  15.783  0.7115  1.1410  0.6725
  112CHL1  H21A14527   4.101   1.132  15.718 -1.2114  0.3028 -2.1973
  112CHL1  H21B14528   4.027   1.201  15.869 -1.3604  1.8019  0.5960
  112CHL1  H21C14529   3.928   1.173  15.721  1.8417  0.3809 -1.4573
  112CHL1   C2214530   3.947   0.912  15.700 -0.6231 -0.3974  0.6520
  112CHL1  H22A14531   3.941   0.807  15.736  2.5307 -1.0329 -0.3881
  112CHL1  H22B14532   3.851   0.938  15.650 -0.6655 -0.4880  0.6852
  112CHL1   C2314533   4.061   0.903  15.596 -0.0115 -0.6756  0.0644
  112CHL1  H23A14534   4.073   0.998  15.540  1.1813  0.4184  2.0485
  112CHL1  H23B14535   4.156   0.894  15.654  0.0650 -0.7134 -0.0662
  112CHL1   C2414536   4.042   0.778  15.520 -0.0459  0.5504  0.1256
  112CHL1  H24A14537   4.042   0.688  15.586 -0.0086 -0.0687 -0.6997
  112CHL1  H24B14538   3.937   0.785  15.484 -0.4181 -0.4701  0.9400
  112CHL1   C2514539   4.154   0.762  15.423  0.2806 -0.1997  0.2900
  112CHL1   H2514540   4.176   0.857  15.370 -0.5742  0.4708  1.1056
  112CHL1   C2614541   4.291   0.726  15.494  0.5053 -0.1247 -0.1509
  112CHL1  H26A14542   4.337   0.811  15.549  1.6306 -0.8574  0.0812
  112CHL1  H26B14543   4.260   0.646  15.565  1.4630 -0.9679 -0.6640
  112CHL1  H26C14544   4.375   0.691  15.430  0.7375  1.7715 -0.9208
  112CHL1   C2714545   4.132   0.652  15.318  0.4306 -0.0320 -0.3293
  112CHL1  H27A14546   4.032   0.660  15.271  0.0041  2.9690  0.9062
  112CHL1  H27B14547   4.208   0.664  15.238  0.6634 -0.1207 -0.1229
  112CHL1  H27C14548   4.135   0.550  15.362  1.1850  1.0450  2.3339
  113CHL1    C314549   0.090   5.870  16.217 -0.0654  0.5651 -0.4693
  113CHL1    H314550   0.184   5.890  16.162 -0.1620  2.4207 -0.0118
  113CHL1    O314551   0.071   5.932  16.344  0.1075  0.4124  0.5523
  113CHL1   H3'14552  -0.023   5.937  16.358  0.1168  1.8863  0.2169
  113CHL1    C414553  -0.018   5.932  16.124 -0.1708  0.2848  0.0189
  113CHL1   H4A14554  -0.120   5.938  16.168 -1.1792  0.7692 -2.2392
  113CHL1   H4B14555   0.007   6.038  16.107  0.3018  0.5021  1.9078
  113CHL1    C514556  -0.025   5.861  15.988 -0.2405 -0.2659 -0.0757
  113CHL1    C614557  -0.015   5.937  15.875 -0.3472  0.0039 -0.6678
  113CHL1    H614558  -0.004   6.046  15.881  2.1043 -0.0174 -2.7012
  113CHL1    C714559  -0.025   5.879  15.739  0.4742 -0.6534  0.4723
  113CHL1   H7A14560  -0.081   5.949  15.673  0.6094  0.9509  2.0174
  113CHL1   H7B14561   0.079   5.866  15.702  0.5710 -0.0665  0.5306
  113CHL1    C814562  -0.095   5.742  15.742 -0.3003  0.1566  0.7585
  113CHL1    H814563  -0.202   5.754  15.769 -0.0443 -0.2701  2.0319
  113CHL1   C1414564  -0.087   5.674  15.606 -0.6411  0.0874 -0.1285
  113CHL1   H1414565   0.023   5.661  15.592  0.0502  1.6179  2.8699
  113CHL1   C1514566  -0.135   5.754  15.488  0.2313  0.6726 -0.2792
  113CHL1  H15A14567  -0.237   5.795  15.501  0.3819  1.1481 -0.5708
  113CHL1  H15B14568  -0.067   5.839  15.467  2.0370 -1.1274 -2.4172
  113CHL1   C1614569  -0.140   5.651  15.378  0.0909  0.3920  0.2064
  113CHL1  H16A14570  -0.241   5.669  15.336  0.3482  1.3588 -0.0039
  113CHL1  H16B14571  -0.068   5.664  15.295 -2.1927 -0.1178 -1.9745
  113CHL1   C1714572  -0.127   5.510  15.445 -0.3581  0.4642  0.2957
  113CHL1   H1714573  -0.022   5.475  15.430 -0.3635  0.7761 -0.5040
  113CHL1   C1314574  -0.148   5.541  15.593 -0.5898  0.3858  0.2901
  113CHL1   C1814575  -0.301   5.547  15.624 -0.2545 -0.3692  0.2435
  113CHL1  H18A14576  -0.343   5.445  15.638 -0.1532 -0.4678 -0.1613
  113CHL1  H18B14577  -0.323   5.584  15.727  0.9386 -0.8243  0.6783
  113CHL1  H18C14578  -0.366   5.599  15.550 -0.4887  0.0387  0.7319
  113CHL1   C1214579  -0.073   5.449  15.691  0.0280 -0.6037 -0.6983
  113CHL1  H12A14580  -0.095   5.341  15.676 -0.5417 -0.3477 -1.9144
  113CHL1  H12B14581   0.033   5.457  15.659  0.8224  0.9683  2.0469
  113CHL1   C1114582  -0.077   5.498  15.833 -0.1452 -0.5441 -0.2204
  113CHL1  H11A14583  -0.179   5.479  15.873  0.8464 -3.0379  1.3983
  113CHL1  H11B14584  -0.016   5.431  15.898 -2.2171 -0.0652  2.4279
  113CHL1    C914585  -0.031   5.650  15.845  0.4174  0.2129 -0.0382
  113CHL1    H914586   0.077   5.656  15.822  0.3054 -0.3830 -0.7637
  113CHL1   C1014587  -0.037   5.710  15.990 -0.6891 -0.2579  0.2083
  113CHL1   C1914588  -0.180   5.694  16.047 -0.2689 -0.0963 -0.1447
  113CHL1  H19A14589  -0.217   5.589  16.050 -0.5785 -0.0020 -0.6158
  113CHL1  H19B14590  -0.194   5.726  16.153 -1.0252 -2.0999  0.4159
  113CHL1  H19C14591  -0.253   5.745  15.981 -0.1278 -0.4288 -0.5573
  113CHL1    C114592   0.065   5.650  16.089 -0.2899  0.8332 -0.7110
  113CHL1   H1A14593   0.051   5.541  16.105  0.1646  0.7771 -0.6869
  113CHL1   H1B14594   0.169   5.657  16.051  0.9523 -2.5822  1.6146
  113CHL1    C214595   0.062   5.720  16.228 -0.4579  0.2868 -0.5894
  113CHL1   H2A14596   0.147   5.663  16.274  0.0082 -1.6886 -3.5931
  113CHL1   H2B14597  -0.028   5.694  16.287  0.9995 -1.0499  1.2050
  113CHL1   C2014598  -0.199   5.389  15.375  0.3689 -0.4157  0.7748
  113CHL1   H2014599  -0.308   5.405  15.390  0.3903  0.7930 -0.2046
  113CHL1   C2114600  -0.163   5.255  15.430 -0.6110  1.0621 -0.2663
  113CHL1  H21A14601  -0.058   5.222  15.414 -0.7103  0.5283  0.1393
  113CHL1  H21B14602  -0.239   5.185  15.389  0.8540 -0.4814 -0.4722
  113CHL1  H21C14603  -0.189   5.250  15.538 -1.1869  0.8570 -0.4132
  113CHL1   C2214604  -0.163   5.394  15.221  0.2086  0.3663  0.3396
  113CHL1  H22A14605  -0.176   5.495  15.177  1.6170 -0.0086 -1.0350
  113CHL1  H22B14606  -0.056   5.376  15.200  0.0393 -0.4106  0.1157
  113CHL1   C2314607  -0.257   5.302  15.143 -0.4235 -0.5243  0.1650
  113CHL1  H23A14608  -0.233   5.197  15.173 -0.4175 -0.4535  0.4122
  113CHL1  H23B14609  -0.362   5.320  15.175 -1.1916 -2.4756 -1.0063
  113CHL1   C2414610  -0.253   5.329  14.990 -0.2957  0.5885 -1.0239
  113CHL1  H24A14611  -0.328   5.266  14.938  0.3415  0.2890 -1.5830
  113CHL1  H24B14612  -0.265   5.440  14.994  1.1247  0.7245  0.8650
  113CHL1   C2514613  -0.117   5.310  14.918  0.7392 -0.4285 -0.1857
  113CHL1   H2514614  -0.047   5.386  14.960  1.3596 -0.6951 -0.7079
  113CHL1   C2614615  -0.045   5.177  14.944  0.5375  0.5338 -0.4122
  113CHL1  H26A14616   0.057   5.175  14.899  0.5978 -0.0116 -0.2537
  113CHL1  H26B14617  -0.030   5.176  15.054 -3.3040 -1.0327  0.2395
  113CHL1  H26C14618  -0.117   5.097  14.916 -1.2679  2.4570 -1.5636
  113CHL1   C2714619  -0.121   5.356  14.773 -0.2390  0.2796 -0.3254
  113CHL1  H27A14620  -0.161   5.276  14.707 -0.0055  0.0105 -0.1425
  113CHL1  H27B14621  -0.185   5.447  14.765  1.2625  1.3100 -1.0665
  113CHL1  H27C14622  -0.026   5.385  14.724 -0.7098 -0.6861 -1.8669
  114CHL1    C314623   3.207   7.351  16.545  0.1314 -0.4007 -0.5576
  114CHL1    H314624   3.230   7.459  16.557 -2.4882 -0.0184  2.2175
  114CHL1    O314625   3.166   7.304  16.668 -0.1883 -0.1743  0.1653
  114CHL1   H3'14626   3.099   7.239  16.645  1.0053 -1.7167  0.8953
  114CHL1    C414627   3.089   7.339  16.444 -0.0194  0.3701  0.5429
  114CHL1   H4A14628   3.050   7.237  16.426  0.7312  0.3426 -1.0734
  114CHL1   H4B14629   3.003   7.395  16.487 -0.5920  1.3743 -1.7218
  114CHL1    C514630   3.111   7.385  16.300 -0.0735  0.0631  0.0469
  114CHL1    C614631   3.030   7.480  16.248  0.1187  0.3941 -0.0462
  114CHL1    H614632   2.944   7.516  16.307 -0.3603  0.9002 -1.0262
  114CHL1    C714633   3.049   7.533  16.109 -0.4254  0.1017  0.3566
  114CHL1   H7A14634   2.952   7.534  16.056 -0.1204  1.7329 -0.2096
  114CHL1   H7B14635   3.100   7.629  16.129  1.6792 -1.4286  3.1733
  114CHL1    C814636   3.148   7.434  16.035  0.5607  0.1887 -0.5278
  114CHL1    H814637   3.084   7.344  16.020 -2.0152  1.7553  0.2816
  114CHL1   C1414638   3.188   7.496  15.901  0.2166  0.2122 -0.2605
  114CHL1   H1414639   3.236   7.588  15.938  0.6944 -0.6068  1.2331
  114CHL1   C1514640   3.074   7.522  15.812 -0.0101 -0.1852  0.7730
  114CHL1  H15A14641   3.010   7.431  15.816  0.7406 -0.7864 -0.4297
  114CHL1  H15B14642   3.014   7.613  15.833  1.7928  1.1490  0.3298
  114CHL1   C1614643   3.128   7.534  15.674 -0.3057 -0.1437 -0.1308
  114CHL1  H16A14644   3.095   7.458  15.600  2.0395 -2.1363  0.7216
  114CHL1  H16B14645   3.106   7.638  15.640 -2.1581  0.4031  2.4499
  114CHL1   C1714646   3.283   7.518  15.693  0.9031 -0.2131 -0.6391
  114CHL1   H1714647   3.331   7.615  15.720 -2.7484  1.8836 -1.0170
  114CHL1   C1314648   3.291   7.421  15.818 -0.3579 -0.0220 -0.4225
  114CHL1   C1814649   3.247   7.281  15.779 -0.2688 -0.6398  0.0014
  114CHL1  H18A14650   3.210   7.236  15.873 -1.5032 -0.0472 -0.1819
  114CHL1  H18B14651   3.168   7.279  15.701 -0.8325  1.2925  0.4691
  114CHL1  H18C14652   3.332   7.226  15.733  1.7207  2.6580 -0.6382
  114CHL1   C1214653   3.424   7.406  15.897 -0.4670 -0.1308 -0.0870
  114CHL1  H12A14654   3.498   7.356  15.832 -0.1222  0.9457 -0.5469
  114CHL1  H12B14655   3.450   7.514  15.908 -2.2778  0.4092 -0.7087
  114CHL1   C1114656   3.399   7.349  16.037 -0.3533 -0.1010 -0.6407
  114CHL1  H11A14657   3.394   7.238  16.033 -0.3889 -0.0592 -2.2303
  114CHL1  H11B14658   3.484   7.375  16.104 -0.8583  0.0746 -0.0485
  114CHL1    C914659   3.266   7.399  16.119 -0.2057 -1.2054  0.2384
  114CHL1    H914660   3.305   7.500  16.146 -0.2902 -0.3936 -2.4499
  114CHL1   C1014661   3.232   7.320  16.242  0.1572 -0.1381 -0.1274
  114CHL1   C1914662   3.195   7.174  16.215  0.3016  0.7671  0.5041
  114CHL1  H19A14663   3.093   7.167  16.173 -0.1907 -1.0658  1.8611
  114CHL1  H19B14664   3.269   7.132  16.144  0.3253 -2.1033  2.0784
  114CHL1  H19C14665   3.203   7.106  16.302  1.0697  0.4786  0.2186
  114CHL1    C114666   3.354   7.330  16.351  0.3438 -0.5805  0.5821
  114CHL1   H1A14667   3.441   7.280  16.303  0.4773 -1.5378  1.7469
  114CHL1   H1B14668   3.392   7.434  16.359  0.3056 -0.5927  0.9709
  114CHL1    C214669   3.327   7.276  16.492 -0.0055 -0.0054  0.2016
  114CHL1   H2A14670   3.416   7.293  16.556 -0.6612  2.5699  0.5619
  114CHL1   H2B14671   3.310   7.167  16.491 -0.9072  0.1195  0.7153
  114CHL1   C2014672   3.340   7.473  15.555  0.6387  0.1112  0.0008
  114CHL1   H2014673   3.285   7.387  15.511 -2.1892  1.2906  1.0389
  114CHL1   C2114674   3.493   7.442  15.568  0.0599 -0.2010 -0.7144
  114CHL1  H21A14675   3.535   7.500  15.653 -0.6420  0.0802 -0.5539
  114CHL1  H21B14676   3.550   7.456  15.474  0.8711 -0.4194 -0.2654
  114CHL1  H21C14677   3.499   7.335  15.598 -1.0784  0.1285  0.8277
  114CHL1   C2214678   3.329   7.578  15.437 -0.5482  0.3283 -0.3916
  114CHL1  H22A14679   3.223   7.611  15.436 -0.7447 -0.2795 -0.0192
  114CHL1  H22B14680   3.387   7.663  15.479 -0.7340  0.9476 -1.3380
  114CHL1   C2314681   3.378   7.539  15.298  0.1619  0.6328 -0.3283
  114CHL1  H23A14682   3.484   7.562  15.273  0.1632 -0.0565 -0.9929
  114CHL1  H23B14683   3.361   7.429  15.295  0.1042  0.5256  2.0283
  114CHL1   C2414684   3.299   7.623  15.191  0.3809  0.0037 -0.4294
  114CHL1  H24A14685   3.190   7.599  15.190  0.6822 -1.5017 -1.0311
  114CHL1  H24B14686   3.312   7.729  15.220  0.2741 -0.0222 -0.2811
  114CHL1   C2514687   3.336   7.602  15.043 -0.4515  0.1605 -0.2936
  114CHL1   H2514688   3.326   7.498  15.005  0.0837 -0.6833  1.7221
  114CHL1   C2614689   3.253   7.688  14.952  0.6628 -0.4445 -0.6550
  114CHL1  H26A14690   3.276   7.797  14.960  0.2554 -0.3212 -1.1315
  114CHL1  H26B14691   3.268   7.661  14.846  1.6874 -1.8545 -0.1885
  114CHL1  H26C14692   3.146   7.675  14.977  0.5351  2.2605  0.6841
  114CHL1   C2714693   3.486   7.631  15.020  0.2211  0.3462  0.1382
  114CHL1  H27A14694   3.552   7.548  15.054  0.2206 -0.3649 -1.4841
  114CHL1  H27B14695   3.516   7.665  14.918 -1.3265 -2.8344 -1.5414
  114CHL1  H27C14696   3.506   7.721  15.081 -2.0037  1.0080  0.0140
  115CHL1    C314697   0.617   1.236  16.889 -0.0247  0.2305  1.1411
  115CHL1    H314698   0.565   1.138  16.884 -0.6680  0.6169 -0.8144
  115CHL1    O314699   0.573   1.286  17.015  0.2072  0.1752 -0.4364
  115CHL1   H3'14700   0.612   1.234  17.086 -1.8136 -1.4037 -0.4043
  115CHL1    C414701   0.768   1.232  16.889 -0.1476 -0.3353 -0.3279
  115CHL1   H4A14702   0.815   1.327  16.923  0.6199 -1.0068  0.5520
  115CHL1   H4B14703   0.797   1.164  16.972 -0.3624 -0.7492 -0.5902
  115CHL1    C514704   0.818   1.197  16.749  0.2332  0.4056 -0.1170
  115CHL1    C614705   0.892   1.088  16.731  0.2805  0.0703  0.3315
  115CHL1    H614706   0.927   1.019  16.809 -2.1812 -3.2290 -1.2648
  115CHL1    C714707   0.969   1.060  16.605 -0.8525  0.7148  0.3905
  115CHL1   H7A14708   1.077   1.045  16.630 -1.2312 -2.0426  0.6533
  115CHL1   H7B14709   0.949   0.958  16.567  0.1942  0.1516  1.2739
  115CHL1    C814710   0.958   1.169  16.494  0.3019 -0.1523  0.4871
  115CHL1    H814711   1.031   1.251  16.512 -1.5744  1.5642  0.7553
  115CHL1   C1414712   0.986   1.123  16.353 -0.4282  1.1702 -0.3294
  115CHL1   H1414713   0.915   1.043  16.324  1.6280 -0.0502 -2.4629
  115CHL1   C1514714   1.125   1.049  16.329  0.0611 -0.1114  0.1572
  115CHL1  H15A14715   1.210   1.106  16.372 -0.0430  1.6571 -1.8702
  115CHL1  H15B14716   1.127   0.942  16.361  1.1322 -0.1472 -0.0108
  115CHL1   C1614717   1.134   1.057  16.178 -0.7473 -0.2239 -0.7479
  115CHL1  H16A14718   1.225   1.115  16.150  1.6192 -2.7500  1.1729
  115CHL1  H16B14719   1.133   0.953  16.138  0.1544 -1.5410  2.3986
  115CHL1   C1714720   1.013   1.136  16.116 -0.2970  0.1472  0.4406
  115CHL1   H1714721   0.931   1.067  16.087  0.4106 -0.2794 -0.5982
  115CHL1   C1314722   0.973   1.222  16.238  0.5669 -0.3320 -0.4234
  115CHL1   C1814723   1.064   1.351  16.248 -0.9134 -0.0883 -0.4952
  115CHL1  H18A14724   1.167   1.316  16.227 -0.4977  0.1576  1.0731
  115CHL1  H18B14725   1.025   1.427  16.177 -1.0367  0.6376  0.3352
  115CHL1  H18C14726   1.063   1.398  16.348 -0.5045 -0.8787 -0.1094
  115CHL1   C1214727   0.827   1.278  16.239 -0.1391  0.3103 -0.4420
  115CHL1  H12A14728   0.824   1.357  16.161  0.9282  0.1420 -0.6647
  115CHL1  H12B14729   0.757   1.194  16.216  0.5542 -0.4300  0.0916
  115CHL1   C1114730   0.801   1.339  16.376  0.4951 -0.4818 -0.6792
  115CHL1  H11A14731   0.855   1.436  16.388 -1.5928  0.6220  0.4570
  115CHL1  H11B14732   0.695   1.372  16.376  0.8413  0.7237 -1.7860
  115CHL1    C914733   0.822   1.238  16.495 -0.4242  0.6802  0.6029
  115CHL1    H914734   0.754   1.156  16.464  1.0503 -0.1873 -0.4319
  115CHL1   C1014735   0.772   1.287  16.633  0.2044 -0.0113 -0.0123
  115CHL1   C1914736   0.835   1.424  16.657 -0.0583  0.4135  0.3123
  115CHL1  H19A14737   0.788   1.500  16.591 -1.2538  1.7943  2.6100
  115CHL1  H19B14738   0.830   1.454  16.764  1.8718 -4.8226  2.1832
  115CHL1  H19C14739   0.943   1.418  16.634 -0.1731 -2.1668  0.2320
  115CHL1    C114740   0.618   1.298  16.642 -0.3425  0.4423  0.4678
  115CHL1   H1A14741   0.577   1.372  16.570  0.5546 -0.1093 -0.6578
  115CHL1   H1B14742   0.578   1.203  16.601  0.1995  0.3817  0.0691
  115CHL1    C214743   0.571   1.332  16.774  0.4368  0.3081 -0.2982
  115CHL1   H2A14744   0.460   1.341  16.777  0.4738  0.9672 -0.5149
  115CHL1   H2B14745   0.599   1.438  16.795  1.0261 -0.1676  1.5056
  115CHL1   C2014746   1.053   1.211  15.985  0.3553 -0.3802 -0.6161
  115CHL1   H2014747   1.142   1.274  16.006  0.3649 -0.3639 -0.7076
  115CHL1   C2114748   0.949   1.310  15.933 -0.1831  0.6374 -0.0051
  115CHL1  H21A14749   0.855   1.261  15.966 -0.0366  0.3283 -0.0446
  115CHL1  H21B14750   0.956   1.325  15.823 -1.0686  0.6223 -0.0709
  115CHL1  H21C14751   0.952   1.412  15.977 -1.4874  1.1345 -1.0206
  115CHL1   C2214752   1.100   1.116  15.868 -0.1409 -0.7095  0.1601
  115CHL1  H22A14753   1.144   1.185  15.792  1.2846 -0.6294  1.0186
  115CHL1  H22B14754   1.183   1.054  15.908  0.8231  0.9681  0.8873
  115CHL1   C2314755   0.994   1.024  15.801 -0.1314 -0.0477 -0.1531
  115CHL1  H23A14756   0.958   0.957  15.882 -0.4844 -1.3710 -1.3598
  115CHL1  H23B14757   0.916   1.090  15.756  1.0372  0.3065 -1.7295
  115CHL1   C2414758   1.050   0.947  15.679 -0.4319 -0.2507 -0.1975
  115CHL1  H24A14759   1.107   1.012  15.610 -0.8910 -1.8003 -2.1295
  115CHL1  H24B14760   1.135   0.885  15.715  1.6913  2.2879 -0.5561
  115CHL1   C2514761   0.943   0.864  15.606 -0.8666 -0.2170 -0.1481
  115CHL1   H2514762   0.877   0.825  15.686  0.1924 -1.3236  0.2239
  115CHL1   C2614763   0.864   0.944  15.502  0.6929  0.0269  0.1322
  115CHL1  H26A14764   0.928   0.992  15.425  0.2769 -0.8583 -0.7984
  115CHL1  H26B14765   0.791   0.872  15.459  1.2060 -0.4061 -0.0213
  115CHL1  H26C14766   0.810   1.022  15.559 -0.2363 -2.2102  2.5064
  115CHL1   C2714767   0.995   0.732  15.538  0.3033  0.7964  0.2265
  115CHL1  H27A14768   1.075   0.691  15.602  0.6010  0.1212 -0.5702
  115CHL1  H27B14769   0.917   0.652  15.540  1.5394 -0.4410  0.2107
  115CHL1  H27C14770   1.031   0.749  15.434  0.7051  0.2629  0.2729
  116CHL1    C314771   1.438   0.756  16.607 -0.9059 -0.0044 -0.2907
  116CHL1    H314772   1.360   0.677  16.615  1.3785 -2.2765  0.7800
  116CHL1    O314773   1.480   0.820  16.728 -0.0414 -0.1639  0.4601
  116CHL1   H3'14774   1.420   0.890  16.754 -0.4455 -0.2569 -0.1846
  116CHL1    C414775   1.570   0.702  16.553  0.0513 -0.2013 -0.3530
  116CHL1   H4A14776   1.647   0.782  16.539  1.9634 -1.7762  0.5778
  116CHL1   H4B14777   1.611   0.626  16.623 -0.6716  0.1511  0.4628
  116CHL1    C514778   1.568   0.639  16.422 -0.0484  0.9113 -0.1380
  116CHL1    C614779   1.614   0.506  16.405  0.5674 -0.5778 -0.1164
  116CHL1    H614780   1.652   0.455  16.495 -0.9870 -0.2271  0.8002
  116CHL1    C714781   1.618   0.450  16.265 -0.0018  0.1380  0.3239
  116CHL1   H7A14782   1.721   0.415  16.247  0.7028  2.9014 -1.6860
  116CHL1   H7B14783   1.560   0.355  16.263  1.1936 -0.6379  0.9961
  116CHL1    C814784   1.590   0.552  16.146 -0.0061  0.0442  0.3676
  116CHL1    H814785   1.679   0.615  16.124 -0.8765  1.7502  1.5027
  116CHL1   C1414786   1.551   0.472  16.013  0.0479  0.0035  0.3378
  116CHL1   H1414787   1.459   0.414  16.035  0.0722  0.4655  1.7380
  116CHL1   C1514788   1.657   0.368  15.976 -0.1034 -0.7723 -0.2093
  116CHL1  H15A14789   1.758   0.408  15.999 -0.5199 -0.1208  0.5168
  116CHL1  H15B14790   1.645   0.274  16.033  1.6444  1.1763  3.7057
  116CHL1   C1614791   1.626   0.351  15.826  0.3144  0.2131  0.6044
  116CHL1  H16A14792   1.719   0.387  15.777  0.0479 -1.9004 -1.6805
  116CHL1  H16B14793   1.618   0.244  15.795 -1.6523  0.4541  0.1661
  116CHL1   C1714794   1.510   0.439  15.790  0.0003 -0.3866  0.1704
  116CHL1   H1714795   1.417   0.382  15.806  0.7594 -1.4116  1.0712
  116CHL1   C1314796   1.517   0.554  15.893  0.3749  0.0296 -0.2218
  116CHL1   C1814797   1.638   0.647  15.860  0.4529 -0.6241 -0.1410
  116CHL1  H18A14798   1.651   0.723  15.939 -0.0893 -0.4434 -0.2220
  116CHL1  H18B14799   1.738   0.600  15.845  0.5182 -2.0025  3.6617
  116CHL1  H18C14800   1.604   0.705  15.771 -1.8340  1.2089  1.7913
  116CHL1   C1214801   1.396   0.648  15.929  0.8586  0.1664 -0.0337
  116CHL1  H12A14802   1.362   0.723  15.854  1.8673  0.2504 -0.4144
  116CHL1  H12B14803   1.310   0.578  15.939  1.3033 -0.3811 -0.0078
  116CHL1   C1114804   1.418   0.716  16.062 -0.2988 -0.0924 -0.3611
  116CHL1  H11A14805   1.490   0.800  16.051  0.6690 -1.0196 -1.2707
  116CHL1  H11B14806   1.320   0.761  16.090  0.6147  0.5951  1.9927
  116CHL1    C914807   1.471   0.640  16.187 -0.2649  0.3639  0.5431
  116CHL1    H914808   1.388   0.576  16.224 -0.5068  0.6294  0.4653
  116CHL1   C1014809   1.510   0.724  16.306 -0.9590 -0.0006 -0.3883
  116CHL1   C1914810   1.611   0.843  16.270  0.2223 -0.0038  0.2963
  116CHL1  H19A14811   1.560   0.922  16.211 -1.3722 -0.6332  0.7983
  116CHL1  H19B14812   1.634   0.900  16.362 -3.3762  0.1802  1.2297
  116CHL1  H19C14813   1.705   0.808  16.222  0.6232  0.9717  0.3369
  116CHL1    C114814   1.379   0.795  16.357 -0.4646 -0.9719  0.3994
  116CHL1   H1A14815   1.341   0.873  16.288 -1.3694 -1.9816 -0.2872
  116CHL1   H1B14816   1.298   0.719  16.366 -1.8203  0.4113  0.2573
  116CHL1    C214817   1.388   0.855  16.500  0.3553 -0.4593  0.4117
  116CHL1   H2A14818   1.284   0.888  16.520  0.3811 -0.5310  0.6601
  116CHL1   H2B14819   1.435   0.956  16.494  2.0792 -1.2609  0.0001
  116CHL1   C2014820   1.508   0.475  15.639 -0.3244 -0.9075  0.5117
  116CHL1   H2014821   1.596   0.535  15.610 -0.2173 -1.8421 -1.2625
  116CHL1   C2114822   1.383   0.557  15.597 -0.1635 -0.1363 -0.8660
  116CHL1  H21A14823   1.352   0.561  15.491 -1.6258  0.9187 -0.4169
  116CHL1  H21B14824   1.400   0.659  15.637  0.9703 -0.6050 -0.0762
  116CHL1  H21C14825   1.299   0.516  15.656  1.3361  0.4532  1.8880
  116CHL1   C2214826   1.522   0.356  15.541  0.2863 -0.4453  0.0995
  116CHL1  H22A14827   1.614   0.303  15.574  0.7245 -0.3596 -0.9572
  116CHL1  H22B14828   1.435   0.287  15.555 -0.5675  0.1072 -2.0807
  116CHL1   C2314829   1.544   0.376  15.394 -0.0471  0.5050  0.7156
  116CHL1  H23A14830   1.453   0.425  15.354  1.6440  2.0413 -1.5222
  116CHL1  H23B14831   1.630   0.445  15.382  0.0885  0.4983  1.6049
  116CHL1   C2414832   1.570   0.255  15.308 -0.9304  0.2307 -0.4545
  116CHL1  H24A14833   1.646   0.189  15.356  0.0365  1.9762  0.4827
  116CHL1  H24B14834   1.477   0.192  15.310 -0.5364 -0.3431  0.6642
  116CHL1   C2514835   1.601   0.278  15.156 -0.5333  0.1953  0.1032
  116CHL1   H2514836   1.612   0.173  15.122 -0.9730  0.4289 -0.7780
  116CHL1   C2614837   1.484   0.352  15.100  0.2612  0.1280 -0.0165
  116CHL1  H26A14838   1.478   0.456  15.138 -1.1262  0.2037 -0.3787
  116CHL1  H26B14839   1.492   0.342  14.989  3.1728 -0.3089  0.1483
  116CHL1  H26C14840   1.392   0.296  15.130  1.3597 -1.4392  0.5763
  116CHL1   C2714841   1.728   0.352  15.140 -0.4989  0.0697  0.4807
  116CHL1  H27A14842   1.814   0.283  15.155 -1.7821 -1.4736  0.9776
  116CHL1  H27B14843   1.733   0.398  15.039 -3.4016 -0.0244  0.2163
  116CHL1  H27C14844   1.743   0.436  15.211  0.6401  1.0618 -0.8812
  117CHL1    C314845   3.181   0.555  16.674  0.6114  0.5288 -0.8022
  117CHL1    H314846   3.095   0.487  16.689  2.2273 -1.1948  1.3672
  117CHL1    O314847   3.206   0.610  16.801 -0.2750  0.3839  0.4029
  117CHL1   H3'14848   3.281   0.669  16.790  2.5251 -3.1049 -1.1512
  117CHL1    C414849   3.293   0.462  16.621  0.5716  0.2205 -0.4262
  117CHL1   H4A14850   3.383   0.526  16.620 -0.2831  1.5041 -2.9272
  117CHL1   H4B14851   3.297   0.395  16.710  0.2646  1.6453  0.7062
  117CHL1    C514852   3.264   0.401  16.485 -0.5918  0.2269  0.1757
  117CHL1    C614853   3.267   0.269  16.467 -0.1817 -0.4981 -0.1269
  117CHL1    H614854   3.287   0.202  16.552  0.3922 -1.7466 -1.2153
  117CHL1    C714855   3.247   0.202  16.335  0.6112 -0.1335  0.2583
  117CHL1   H7A14856   3.323   0.123  16.316 -1.5886 -2.0461 -1.0913
  117CHL1   H7B14857   3.154   0.142  16.335  0.8621 -0.5313  0.0807
  117CHL1    C814858   3.246   0.299  16.216  0.5709 -0.1520  0.2333
  117CHL1    H814859   3.350   0.331  16.194  0.4383  2.5004  2.8189
  117CHL1   C1414860   3.176   0.234  16.094 -1.2634  0.5370 -0.8484
  117CHL1   H1414861   3.076   0.207  16.134  0.0210 -2.0607  0.8860
  117CHL1   C1514862   3.240   0.103  16.054  0.0360 -0.0230 -0.3316
  117CHL1  H15A14863   3.351   0.106  16.056  0.1480 -2.3861  0.2364
  117CHL1  H15B14864   3.208   0.023  16.125 -0.8051  0.2836 -0.3504
  117CHL1   C1614865   3.185   0.086  15.911  0.3186 -0.8596 -0.1180
  117CHL1  H16A14866   3.267   0.056  15.842  0.1976 -1.6118  0.0637
  117CHL1  H16B14867   3.122  -0.005  15.904  0.2989 -0.7517 -1.5801
  117CHL1   C1714868   3.098   0.211  15.877  0.9836  0.5531 -0.0810
  117CHL1   H1714869   2.999   0.189  15.924  2.0638 -0.6305  1.7847
  117CHL1   C1314870   3.158   0.320  15.970  0.4125  0.5561  0.0315
  117CHL1   C1814871   3.298   0.362  15.914  0.1031 -0.8674  0.4270
  117CHL1  H18A14872   3.275   0.439  15.837 -0.9695  1.5729  2.9889
  117CHL1  H18B14873   3.370   0.402  15.989  0.8128 -1.8464  0.2884
  117CHL1  H18C14874   3.347   0.270  15.876 -1.8337 -1.8124  0.0573
  117CHL1   C1214875   3.067   0.440  16.005  0.0507 -0.5075  0.5031
  117CHL1  H12A14876   3.049   0.512  15.922  2.6793  1.1578  1.2298
  117CHL1  H12B14877   2.969   0.399  16.035 -1.0292  1.1267 -0.6374
  117CHL1   C1114878   3.129   0.514  16.121 -0.2103  0.3927 -0.6567
  117CHL1  H11A14879   3.218   0.568  16.082 -0.4260  0.3980 -1.1372
  117CHL1  H11B14880   3.050   0.587  16.149 -1.3272 -0.5045 -1.4233
  117CHL1    C914881   3.165   0.429  16.246 -0.7104 -0.5259 -0.2544
  117CHL1    H914882   3.066   0.386  16.273 -2.2156  2.7652 -0.0561
  117CHL1   C1014883   3.227   0.502  16.372 -0.1294 -0.4472 -0.2673
  117CHL1   C1914884   3.366   0.567  16.328 -0.8694 -0.6841 -0.7264
  117CHL1  H19A14885   3.420   0.609  16.416 -1.9899  1.4819 -1.0010
  117CHL1  H19B14886   3.433   0.494  16.279 -1.6219  0.2707 -3.3654
  117CHL1  H19C14887   3.358   0.657  16.263 -0.1071 -0.6922 -0.8398
  117CHL1    C114888   3.117   0.606  16.427 -0.0730  0.2696 -0.7955
  117CHL1   H1A14889   3.091   0.687  16.355  0.7999  2.1939  0.9384
  117CHL1   H1B14890   3.022   0.549  16.433 -0.9121  1.5564 -1.3770
  117CHL1    C214891   3.142   0.665  16.572 -0.1069 -0.1665 -0.2342
  117CHL1   H2A14892   3.050   0.719  16.605  0.0049  0.3190 -0.7001
  117CHL1   H2B14893   3.225   0.738  16.561 -1.0060  0.6885 -1.5447
  117CHL1   C2014894   3.079   0.231  15.732 -0.4878 -0.5761 -0.5718
  117CHL1   H2014895   3.177   0.264  15.691 -1.6211  0.4363 -2.6520
  117CHL1   C2114896   2.975   0.343  15.698  0.6662 -0.3507 -0.2478
  117CHL1  H21A14897   2.880   0.319  15.751  0.2959  2.5162  0.5214
  117CHL1  H21B14898   2.961   0.332  15.588 -0.0490  0.2999 -0.2301
  117CHL1  H21C14899   3.004   0.443  15.737 -0.0207 -1.3733  3.3115
  117CHL1   C2214900   3.046   0.095  15.652 -0.3513  0.4111 -0.3720
  117CHL1  H22A14901   3.063   0.120  15.545  1.6605  0.3940 -0.0981
  117CHL1  H22B14902   3.119   0.016  15.679 -0.4091  0.7456  0.8316
  117CHL1   C2314903   2.911   0.030  15.678  0.0263  0.2574 -0.4755
  117CHL1  H23A14904   2.912  -0.017  15.779  2.2798  0.2718 -0.4425
  117CHL1  H23B14905   2.829   0.105  15.673  0.1631  0.5615  1.1326
  117CHL1   C2414906   2.884  -0.075  15.574  0.3162 -0.2161  0.1349
  117CHL1  H24A14907   2.897  -0.043  15.469 -0.4365  0.3816  0.2125
  117CHL1  H24B14908   2.953  -0.161  15.583  0.3480 -0.2137 -0.1024
  117CHL1   C2514909   2.741  -0.146  15.581 -0.2374  0.4463 -0.1865
  117CHL1   H2514910   2.718  -0.141  15.689  2.2779  0.1025  0.4221
  117CHL1   C2614911   2.637  -0.065  15.500 -0.1075 -0.7343 -0.4941
  117CHL1  H26A14912   2.676  -0.056  15.396 -1.1146 -0.2440 -0.8352
  117CHL1  H26B14913   2.533  -0.102  15.496 -1.3894  2.4885  0.2407
  117CHL1  H26C14914   2.634   0.037  15.544  2.3109 -0.7862 -0.0289
  117CHL1   C2714915   2.757  -0.287  15.527  0.5506 -0.0503 -0.2521
  117CHL1  H27A14916   2.844  -0.338  15.575  1.6056  0.6972 -1.2981
  117CHL1  H27B14917   2.667  -0.351  15.523  0.1233  0.5987 -1.5646
  117CHL1  H27C14918   2.783  -0.281  15.419 -3.2856  3.6256 -1.2190
  118CHL1    C314919   6.435   2.893  16.405  0.2830  0.3506  0.0690
  118CHL1    H314920   6.541   2.924  16.409 -0.1182  2.0795 -1.2347
  118CHL1    O314921   6.392   2.837  16.527  0.4296 -0.0586 -0.0103
  118CHL1   H3'14922   6.299   2.860  16.535 -0.2533 -1.4127 -2.8051
  118CHL1    C414923   6.341   3.009  16.366 -0.6209 -0.8665 -0.3282
  118CHL1   H4A14924   6.237   2.974  16.379 -1.2647  0.8302 -0.6038
  118CHL1   H4B14925   6.352   3.097  16.432 -0.0597 -0.5413 -0.8390
  118CHL1    C514926   6.362   3.054  16.220 -0.4409 -0.4818  0.0705
  118CHL1    C614927   6.390   3.184  16.185  1.2019 -0.0908  0.3180
  118CHL1    H614928   6.390   3.254  16.270  0.1728 -0.5440  0.7114
  118CHL1    C714929   6.407   3.245  16.046 -0.1697  0.1301 -0.2652
  118CHL1   H7A14930   6.364   3.348  16.043  0.7173  0.6021  1.3421
  118CHL1   H7B14931   6.516   3.259  16.029 -0.1582  0.7583  0.2588
  118CHL1    C814932   6.346   3.148  15.944 -0.0805 -0.5118  0.5409
  118CHL1    H814933   6.236   3.163  15.950 -0.3314 -2.4297  1.4181
  118CHL1   C1414934   6.406   3.179  15.805  1.2409  0.0819 -0.3937
  118CHL1   H1414935   6.513   3.155  15.823  0.8080 -0.5384  1.6215
  118CHL1   C1514936   6.402   3.322  15.755 -0.3906 -1.0983  0.9687
  118CHL1  H15A14937   6.296   3.357  15.758  0.3304  1.2376  1.2538
  118CHL1  H15B14938   6.470   3.388  15.813 -0.7273  0.3253 -0.1749
  118CHL1   C1614939   6.445   3.305  15.604 -0.2667 -0.4346 -0.2961
  118CHL1  H16A14940   6.373   3.360  15.539 -0.7246 -0.2127  0.3940
  118CHL1  H16B14941   6.545   3.352  15.592  0.6888 -2.6958 -1.7479
  118CHL1   C1714942   6.445   3.154  15.576  0.3106 -0.2624 -0.3831
  118CHL1   H1714943   6.550   3.124  15.593  0.1245 -1.6068 -1.4266
  118CHL1   C1314944   6.360   3.090  15.690 -0.2687  0.1237  0.3378
  118CHL1   C1814945   6.210   3.105  15.652  0.0660 -0.0997  0.1673
  118CHL1  H18A14946   6.196   3.203  15.601 -1.6478 -0.0966  0.5769
  118CHL1  H18B14947   6.181   3.017  15.590  0.5640  0.0201 -0.2466
  118CHL1  H18C14948   6.152   3.112  15.746 -2.2507  1.7730 -1.2752
  118CHL1   C1214949   6.387   2.950  15.722 -0.1404 -0.0623  0.7835
  118CHL1  H12A14950   6.358   2.880  15.641  0.2520  0.5736  0.0784
  118CHL1  H12B14951   6.497   2.934  15.724 -0.0526  0.0859 -1.0912
  118CHL1   C1114952   6.321   2.906  15.855 -0.1303  0.0237 -0.0998
  118CHL1  H11A14953   6.211   2.915  15.841  0.0383 -0.3919 -2.0543
  118CHL1  H11B14954   6.327   2.797  15.877 -1.9272 -0.0873  0.0396
  118CHL1    C914955   6.380   2.998  15.966  0.0353 -0.6976  0.3235
  118CHL1    H914956   6.491   2.999  15.965  0.0605  1.6569 -0.5861
  118CHL1   C1014957   6.348   2.948  16.112 -0.2707  0.0284 -0.3596
  118CHL1   C1914958   6.205   2.893  16.112  0.3207 -0.1599 -0.5252
  118CHL1  H19A14959   6.182   2.849  16.212 -0.0405  2.7395  0.7541
  118CHL1  H19B14960   6.130   2.974  16.107  1.4918  1.4730  3.6567
  118CHL1  H19C14961   6.184   2.818  16.032  1.7991 -1.7432  0.4711
  118CHL1    C114962   6.440   2.824  16.151  0.0184 -0.1168 -0.2783
  118CHL1   H1A14963   6.415   2.735  16.090  0.2407  0.9110 -1.9367
  118CHL1   H1B14964   6.548   2.846  16.144 -0.6183  2.8197 -3.6939
  118CHL1    C214965   6.422   2.773  16.304  0.2970 -0.5427 -0.1752
  118CHL1   H2A14966   6.499   2.695  16.322  1.8750  1.2818  1.4451
  118CHL1   H2B14967   6.326   2.720  16.324  0.9232 -1.2517  1.0584
  118CHL1   C2014968   6.397   3.132  15.428  0.1978  0.2470  0.3216
  118CHL1   H2014969   6.291   3.162  15.414 -0.0385 -0.7124 -0.0566
  118CHL1   C2114970   6.430   2.987  15.397 -0.0430  0.0999 -0.6359
  118CHL1  H21A14971   6.356   2.913  15.434  0.1205 -0.4999 -1.4686
  118CHL1  H21B14972   6.531   2.952  15.429 -0.5940 -0.0051  1.0988
  118CHL1  H21C14973   6.433   2.966  15.288 -2.4040 -1.0550 -0.5471
  118CHL1   C2214974   6.473   3.214  15.320 -0.6153  0.3113 -1.1046
  118CHL1  H22A14975   6.452   3.175  15.219  0.4136  2.0137 -2.0112
  118CHL1  H22B14976   6.429   3.315  15.311  1.4050  1.3168 -0.3600
  118CHL1   C2314977   6.629   3.227  15.339  0.0448  1.0658  0.4131
  118CHL1  H23A14978   6.658   3.225  15.446  0.0774 -2.2681  0.4433
  118CHL1  H23B14979   6.673   3.142  15.283 -0.2214  0.4754  1.1002
  118CHL1   C2414980   6.680   3.363  15.279 -1.0806  0.6234 -0.0218
  118CHL1  H24A14981   6.675   3.356  15.168  3.1512 -1.1979 -0.2902
  118CHL1  H24B14982   6.611   3.442  15.314 -0.7190  0.6131  0.7162
  118CHL1   C2514983   6.824   3.398  15.326 -0.0580  0.0316  0.0942
  118CHL1   H2514984   6.839   3.382  15.435  0.7352  0.8523  0.1101
  118CHL1   C2614985   6.924   3.309  15.252  0.3701  0.0216  0.0961
  118CHL1  H26A14986   6.908   3.202  15.275  1.3643 -0.3055 -0.6802
  118CHL1  H26B14987   6.917   3.328  15.143 -0.5871  0.0174  0.1445
  118CHL1  H26C14988   7.027   3.333  15.287  0.7736 -0.7144 -0.5467
  118CHL1   C2714989   6.857   3.547  15.295 -0.4206  0.0676 -0.0467
  118CHL1  H27A14990   6.776   3.608  15.339 -0.1599 -0.4945  1.2690
  118CHL1  H27B14991   6.955   3.582  15.333 -0.9253  1.3738  0.0965
  118CHL1  H27C14992   6.852   3.561  15.185  1.2248  1.6443  0.0246
  119CHL1    C314993   0.474   1.915  16.859  0.2092 -0.4260 -0.5036
  119CHL1    H314994   0.372   1.952  16.835 -0.4614  0.0827  2.7093
  119CHL1    O314995   0.487   1.942  17.000 -0.0772  0.4926  0.0975
  119CHL1   H3'14996   0.449   2.027  17.024  0.4154  0.1811  2.2114
  119CHL1    C414997   0.506   1.773  16.824 -0.2148  0.9014 -0.0544
  119CHL1   H4A14998   0.609   1.769  16.867 -0.4577 -0.1123  0.4644
  119CHL1   H4B14999   0.444   1.701  16.882  1.4708 -1.0990 -0.6097
  119CHL1    C515000   0.509   1.743  16.679  0.0295  0.2726 -0.5924
  119CHL1    C615001   0.427   1.647  16.632 -0.2079  0.3964 -0.6609
  119CHL1    H615002   0.375   1.585  16.706  1.2025 -1.3668 -1.0815
  119CHL1    C715003   0.418   1.610  16.487  0.1507 -0.4010 -0.1396
  119CHL1   H7A15004   0.419   1.499  16.478  0.2448 -0.2632 -2.5418
  119CHL1   H7B15005   0.318   1.640  16.449 -0.4317 -0.8116  1.0524
  119CHL1    C815006   0.530   1.667  16.402  0.0671  1.3419  0.0936
  119CHL1    H815007   0.619   1.610  16.437 -1.8912 -0.9288  1.7886
  119CHL1   C1415008   0.488   1.650  16.259 -0.2700  0.0935 -0.2822
  119CHL1   H1415009   0.402   1.718  16.242 -0.7647 -0.9005 -2.1503
  119CHL1   C1515010   0.441   1.512  16.204  0.2162  0.5014 -0.1473
  119CHL1  H15A15011   0.493   1.428  16.256 -0.5417  0.3507  0.3879
  119CHL1  H15B15012   0.333   1.503  16.226 -0.0014  1.8859 -0.6023
  119CHL1   C1615013   0.466   1.529  16.053 -0.3975  0.6556  0.2052
  119CHL1  H16A15014   0.550   1.463  16.023 -1.1222  0.0348 -0.4984
  119CHL1  H16B15015   0.380   1.529  15.983  0.0822 -0.1596 -0.3920
  119CHL1   C1715016   0.522   1.679  16.024 -0.1163  0.7823  0.1863
  119CHL1   H1715017   0.429   1.738  16.016  0.3323  1.2923 -1.8098
  119CHL1   C1315018   0.589   1.716  16.156 -0.1550 -0.4999 -0.0760
  119CHL1   C1815019   0.723   1.643  16.167  0.3057  0.5702  0.2301
  119CHL1  H18A15020   0.798   1.684  16.097 -0.9186  0.3389 -1.2902
  119CHL1  H18B15021   0.768   1.644  16.269 -2.6829 -1.0177  1.7205
  119CHL1  H18C15022   0.702   1.537  16.139 -0.3505  0.8060 -0.1987
  119CHL1   C1215023   0.610   1.866  16.191  0.1137  0.6784  0.8078
  119CHL1  H12A15024   0.691   1.900  16.122  1.4313 -2.3630  0.6718
  119CHL1  H12B15025   0.515   1.919  16.171 -2.4573 -3.0489  1.9869
  119CHL1   C1115026   0.650   1.882  16.340  0.0575 -0.7895  0.7654
  119CHL1  H11A15027   0.754   1.853  16.368 -0.2789 -0.3713  2.5813
  119CHL1  H11B15028   0.640   1.991  16.359  0.1732 -0.6288 -0.0438
  119CHL1    C915029   0.560   1.816  16.432 -0.1969  0.4006  0.7621
  119CHL1    H915030   0.467   1.873  16.413  0.6714  1.0806 -1.9616
  119CHL1   C1015031   0.591   1.834  16.588 -1.0107  0.5432  0.5083
  119CHL1   C1915032   0.740   1.793  16.618  0.2792  0.1933 -0.6163
  119CHL1  H19A15033   0.806   1.862  16.562  1.2854 -1.9497 -2.1933
  119CHL1  H19B15034   0.769   1.792  16.725  1.6736 -1.3836 -0.9622
  119CHL1  H19C15035   0.763   1.689  16.586  2.2994  0.9672 -1.8601
  119CHL1    C115036   0.555   1.984  16.629 -0.5872  0.5740 -0.2346
  119CHL1   H1A15037   0.607   2.057  16.564  0.2606  0.3378  0.1693
  119CHL1   H1B15038   0.448   2.005  16.608 -0.9023 -1.2204 -0.5763
  119CHL1    C215039   0.564   2.015  16.780 -0.2456  0.9649  0.3209
  119CHL1   H2A15040   0.518   2.115  16.792 -0.4186  0.8344  0.7555
  119CHL1   H2B15041   0.665   2.000  16.824  0.2302 -3.1129 -1.6226
  119CHL1   C2015042   0.607   1.691  15.896  0.1842 -1.2088  0.4618
  119CHL1   H2015043   0.710   1.658  15.922  1.1431  2.3658  1.7018
  119CHL1   C2115044   0.613   1.835  15.842  0.7159 -0.2109  0.2730
  119CHL1  H21A15045   0.700   1.851  15.775  0.2297 -0.7310 -0.5017
  119CHL1  H21B15046   0.609   1.914  15.921  0.7731  0.1295 -0.0636
  119CHL1  H21C15047   0.519   1.851  15.786  0.0654 -1.4985  0.9592
  119CHL1   C2215048   0.564   1.604  15.778  0.6960  0.6663 -0.9182
  119CHL1  H22A15049   0.579   1.498  15.809 -0.0406  0.7272 -0.3227
  119CHL1  H22B15050   0.459   1.628  15.751 -0.1317  0.3014  1.6777
  119CHL1   C2315051   0.641   1.613  15.648  1.1574 -0.5904  0.3005
  119CHL1  H23A15052   0.578   1.572  15.566  1.4171  1.4247 -0.9731
  119CHL1  H23B15053   0.635   1.721  15.623 -0.4818 -0.9669 -1.1063
  119CHL1   C2415054   0.780   1.546  15.646 -0.3929 -0.2319 -0.0474
  119CHL1  H24A15055   0.842   1.620  15.701 -1.2616  1.5234 -1.3514
  119CHL1  H24B15056   0.762   1.450  15.701 -2.2416  0.9256  1.5012
  119CHL1   C2515057   0.849   1.524  15.507  0.0856  0.7612 -0.3297
  119CHL1   H2515058   0.954   1.501  15.532 -0.3358  0.3127  1.0781
  119CHL1   C2615059   0.789   1.408  15.426 -0.1261  0.4524 -0.8316
  119CHL1  H26A15060   0.689   1.438  15.387 -1.7619  2.8984  4.2858
  119CHL1  H26B15061   0.867   1.376  15.354 -0.1749 -1.2743 -0.1643
  119CHL1  H26C15062   0.774   1.322  15.494  0.0179  2.6541  2.1942
  119CHL1   C2715063   0.845   1.653  15.421 -0.3343  0.2766  0.6188
  119CHL1  H27A15064   0.737   1.669  15.400 -0.0841 -1.1787 -2.2509
  119CHL1  H27B15065   0.879   1.731  15.492  0.2643  0.4094  0.1979
  119CHL1  H27C15066   0.875   1.648  15.314 -2.8451 -0.9052 -0.1052
  120CHL1    C315067   6.218   0.406  16.305 -0.4990  0.3808  0.2434
  120CHL1    H315068   6.208   0.309  16.252 -2.6234  0.5169  0.3011
  120CHL1    O315069   6.241   0.381  16.445  0.1960 -0.8678 -0.6919
  120CHL1   H3'15070   6.292   0.453  16.483 -2.2840  1.5155 -1.5002
  120CHL1    C415071   6.328   0.493  16.250 -0.1964  0.3830 -0.2504
  120CHL1   H4A15072   6.329   0.577  16.323  0.4481 -1.5742  2.1737
  120CHL1   H4B15073   6.418   0.429  16.264 -2.3874 -3.0946 -0.8618
  120CHL1    C515074   6.320   0.542  16.110  0.1310 -0.9009  0.4660
  120CHL1    C615075   6.410   0.519  16.008  0.7231 -0.0481 -0.0049
  120CHL1    H615076   6.501   0.460  16.028  0.9066  0.0525 -0.5474
  120CHL1    C715077   6.393   0.555  15.860  0.2173 -0.4908  0.2513
  120CHL1   H7A15078   6.486   0.607  15.829 -0.1330  0.9167  1.4746
  120CHL1   H7B15079   6.365   0.466  15.800 -1.6974  0.3985 -0.2778
  120CHL1    C815080   6.276   0.653  15.849  0.5055 -0.6044 -0.0805
  120CHL1    H815081   6.312   0.753  15.879  0.5703 -0.7947  0.4799
  120CHL1   C1415082   6.225   0.666  15.702 -0.4222  0.1223 -0.4715
  120CHL1   H1415083   6.186   0.564  15.682  2.2602 -0.9129 -0.8870
  120CHL1   C1515084   6.331   0.694  15.591 -0.1789  0.0854 -0.0866
  120CHL1  H15A15085   6.396   0.776  15.627 -1.0210 -0.7734  3.9748
  120CHL1  H15B15086   6.391   0.602  15.575  1.5074  1.0282  0.6157
  120CHL1   C1615087   6.249   0.733  15.475 -0.8388 -0.2768  1.1163
  120CHL1  H16A15088   6.286   0.833  15.444  0.3148 -0.2789  2.3861
  120CHL1  H16B15089   6.259   0.659  15.393  0.3704 -1.0556  1.9294
  120CHL1   C1715090   6.099   0.748  15.524  0.9458 -0.3956 -0.9570
  120CHL1   H1715091   6.047   0.650  15.516  0.1691  0.0473 -1.4178
  120CHL1   C1315092   6.114   0.768  15.676  0.7962  0.3502 -0.1635
  120CHL1   C1815093   6.156   0.919  15.704  0.1688  0.2536  0.0362
  120CHL1  H18A15094   6.069   0.985  15.684  0.8059  1.1351  0.1481
  120CHL1  H18B15095   6.196   0.924  15.807 -0.3330 -0.5360  0.2831
  120CHL1  H18C15096   6.237   0.956  15.638 -0.8335  1.5013 -0.5460
  120CHL1   C1215097   5.988   0.720  15.756 -0.0478 -0.2417 -0.3975
  120CHL1  H12A15098   5.894   0.778  15.744 -0.9773 -1.6072 -0.0602
  120CHL1  H12B15099   5.972   0.616  15.720 -0.7618  0.0840 -1.0559
  120CHL1   C1115100   6.029   0.713  15.903  0.1094  0.4395 -0.4681
  120CHL1  H11A15101   6.074   0.814  15.916 -0.1911  0.6503 -1.0023
  120CHL1  H11B15102   5.950   0.714  15.981  0.7663 -1.3505  0.2538
  120CHL1    C915103   6.153   0.613  15.936  0.4865  0.0449 -0.0077
  120CHL1    H915104   6.128   0.515  15.891 -1.9918  0.6440 -0.1239
  120CHL1   C1015105   6.184   0.608  16.080  0.1273 -0.1086 -0.7063
  120CHL1   C1915106   6.203   0.748  16.134  0.3275  0.0793  0.0394
  120CHL1  H19A15107   6.277   0.811  16.081  0.0324  0.5033  0.1310
  120CHL1  H19B15108   6.109   0.804  16.120 -0.0923 -0.5269  0.3636
  120CHL1  H19C15109   6.213   0.754  16.245  2.8762  2.5360 -0.2212
  120CHL1    C115110   6.067   0.535  16.149  0.2120 -0.7849 -0.5884
  120CHL1   H1A15111   5.981   0.605  16.158 -0.0233 -1.2084  0.6486
  120CHL1   H1B15112   6.033   0.459  16.075 -2.9363  0.9884 -1.1369
  120CHL1    C215113   6.087   0.486  16.290  0.2942  0.4355  0.8211
  120CHL1   H2A15114   5.999   0.427  16.325  1.1099 -0.2129  1.8212
  120CHL1   H2B15115   6.091   0.580  16.349  2.5665  0.7538  0.2576
  120CHL1   C2015116   6.016   0.852  15.440  0.2107  0.5533 -0.1073
  120CHL1   H2015117   6.053   0.955  15.454  0.6998  0.4588 -0.6734
  120CHL1   C2115118   5.870   0.859  15.469  0.8050 -0.8295 -0.1510
  120CHL1  H21A15119   5.837   0.882  15.573  1.6021  0.7027 -0.2010
  120CHL1  H21B15120   5.828   0.760  15.445 -0.8300 -0.3188  0.4542
  120CHL1  H21C15121   5.817   0.934  15.406 -0.0345 -3.3240 -2.6220
  120CHL1   C2215122   6.030   0.829  15.286  0.5035  0.1748  0.3010
  120CHL1  H22A15123   6.140   0.838  15.275  0.2820  1.9741 -0.8966
  120CHL1  H22B15124   5.997   0.725  15.263 -1.3173  0.7333  0.1764
  120CHL1   C2315125   5.964   0.921  15.188 -0.0216 -0.5719  0.6601
  120CHL1  H23A15126   5.853   0.916  15.185  0.0034 -0.5593 -0.5432
  120CHL1  H23B15127   6.001   1.022  15.214  0.6838 -1.4067  3.2363
  120CHL1   C2415128   6.021   0.908  15.037  0.5362 -0.2401 -0.1441
  120CHL1  H24A15129   5.968   0.981  14.972  1.9091  0.8054 -0.1177
  120CHL1  H24B15130   6.130   0.925  15.042  0.6358 -0.5319 -1.1181
  120CHL1   C2515131   5.985   0.771  14.970 -0.5965 -0.4033 -0.2535
  120CHL1   H2515132   6.023   0.692  15.037  1.7202  0.3837 -0.5641
  120CHL1   C2615133   5.842   0.737  14.953  0.2560  0.1968  0.0456
  120CHL1  H26A15134   5.810   0.695  15.051 -0.4119  0.3455 -0.1045
  120CHL1  H26B15135   5.784   0.829  14.931 -0.3863 -0.1882  0.1170
  120CHL1  H26C15136   5.833   0.663  14.871  2.8699  0.7443 -0.8349
  120CHL1   C2715137   6.065   0.759  14.838 -0.3939 -0.2993  0.0483
  120CHL1  H27A15138   6.030   0.674  14.775  0.9887  0.1447 -1.3813
  120CHL1  H27B15139   6.055   0.857  14.787 -0.8828 -0.1294  0.4627
  120CHL1  H27C15140   6.172   0.742  14.863 -0.9042 -1.3157  1.7644
  121CHL1    C315141   3.646   4.330  14.029  0.8444 -0.2999  0.7895
  121CHL1    H315142   3.669   4.437  14.010  0.0907 -0.0607  1.1532
  121CHL1    O315143   3.620   4.269  13.904 -0.0733 -0.2943 -0.2380
  121CHL1   H3'15144   3.542   4.214  13.914  1.1992 -1.9518  1.3472
  121CHL1    C415145   3.758   4.260  14.109  0.3246  0.1201 -0.3551
  121CHL1   H4A15146   3.744   4.150  14.121  0.1277  0.2702  0.8733
  121CHL1   H4B15147   3.844   4.275  14.040  0.5012 -0.1496 -0.1955
  121CHL1    C515148   3.795   4.328  14.239  0.4250  0.2894  0.0459
  121CHL1    C615149   3.915   4.389  14.261  0.3236  0.5482 -0.0625
  121CHL1    H615150   3.987   4.394  14.179  0.3680 -1.1428 -0.1566
  121CHL1    C715151   3.953   4.460  14.387  0.2321  0.0317  0.2703
  121CHL1   H7A15152   4.056   4.433  14.417  0.6197  1.2376  0.0782
  121CHL1   H7B15153   3.955   4.570  14.370  1.5192 -0.2731 -1.8125
  121CHL1    C815154   3.860   4.440  14.501  0.1917  0.3247 -0.0982
  121CHL1    H815155   3.869   4.337  14.541 -0.6275  0.4042  0.3167
  121CHL1   C1415156   3.877   4.545  14.614  0.5594  0.4984 -0.2756
  121CHL1   H1415157   3.862   4.649  14.578 -0.8897  0.9684  1.5074
  121CHL1   C1515158   4.017   4.556  14.674  0.0861  0.9286 -0.3308
  121CHL1  H15A15159   4.052   4.453  14.696 -0.8135  0.8184  0.6894
  121CHL1  H15B15160   4.086   4.608  14.605  0.6295 -0.4034 -0.8417
  121CHL1   C1615161   4.003   4.636  14.802 -0.2123 -0.2134 -0.0963
  121CHL1  H16A15162   4.064   4.588  14.881  0.6161  0.3741 -0.3579
  121CHL1  H16B15163   4.057   4.732  14.787  1.5079 -0.5447  3.0951
  121CHL1   C1715164   3.846   4.654  14.828 -0.7557 -0.0754 -0.3093
  121CHL1   H1715165   3.814   4.755  14.795 -2.5561 -0.3754  0.3824
  121CHL1   C1315166   3.778   4.540  14.733  0.0408  0.4216 -0.1587
  121CHL1   C1815167   3.796   4.402  14.805 -0.0473 -0.0612  0.5189
  121CHL1  H18A15168   3.738   4.382  14.898  0.3803  1.2047  1.0706
  121CHL1  H18B15169   3.774   4.313  14.742 -4.8847 -1.0168  3.0627
  121CHL1  H18C15170   3.900   4.389  14.842  0.2826 -1.5709 -0.8174
  121CHL1   C1215171   3.633   4.564  14.685  0.5018 -0.2815 -0.0089
  121CHL1  H12A15172   3.548   4.558  14.757 -1.8635  1.4038 -2.4690
  121CHL1  H12B15173   3.628   4.661  14.632  0.9612 -0.8851 -1.2018
  121CHL1   C1115174   3.610   4.459  14.573 -0.3117 -0.0041  0.1734
  121CHL1  H11A15175   3.608   4.359  14.621 -0.6898 -1.0633 -1.9731
  121CHL1  H11B15176   3.512   4.478  14.524  0.1466 -0.2608 -0.8636
  121CHL1    C915177   3.712   4.448  14.451 -0.0024  0.6348 -0.2963
  121CHL1    H915178   3.705   4.545  14.397 -0.6385  0.6141 -0.2586
  121CHL1   C1015179   3.677   4.340  14.343  0.1249 -0.0857  0.0724
  121CHL1   C1915180   3.655   4.200  14.411  0.4664 -0.3905  0.8000
  121CHL1  H19A15181   3.573   4.217  14.483 -1.3150 -0.9523 -0.9960
  121CHL1  H19B15182   3.628   4.117  14.341  1.2268  1.4144 -1.8096
  121CHL1  H19C15183   3.749   4.179  14.466  1.1953  2.4869  0.8103
  121CHL1    C115184   3.556   4.392  14.257  0.3564  0.3008  0.1610
  121CHL1   H1A15185   3.473   4.384  14.330  0.1829 -1.8075 -0.2272
  121CHL1   H1B15186   3.580   4.499  14.235 -0.3879 -0.0500 -2.7106
  121CHL1    C215187   3.523   4.331  14.123 -0.5454 -0.0631  0.3458
  121CHL1   H2A15188   3.434   4.380  14.079 -0.3830  0.6325  0.7825
  121CHL1   H2B15189   3.491   4.225  14.136 -0.7402  0.1859  2.2626
  121CHL1   C2015190   3.801   4.646  14.978 -1.4805  0.1054  0.0351
  121CHL1   H2015191   3.842   4.549  15.013  1.1058  0.5416 -1.4858
  121CHL1   C2115192   3.648   4.654  15.005 -0.2484  0.1424 -0.7489
  121CHL1  H21A15193   3.609   4.556  14.970  1.8104 -0.0670 -2.6890
  121CHL1  H21B15194   3.595   4.734  14.950 -0.3528  0.2654 -0.4764
  121CHL1  H21C15195   3.638   4.655  15.116  1.2318  0.8655 -0.5974
  121CHL1   C2215196   3.882   4.745  15.067  0.0807 -0.0279  0.3272
  121CHL1  H22A15197   3.986   4.748  15.028  0.0776 -0.6174  0.2673
  121CHL1  H22B15198   3.832   4.844  15.074 -2.1231 -1.0363 -0.3596
  121CHL1   C2315199   3.883   4.705  15.214 -0.5845  0.1503  0.1427
  121CHL1  H23A15200   3.778   4.712  15.252 -1.2395  0.4458 -1.6350
  121CHL1  H23B15201   3.920   4.601  15.230 -2.8832 -0.7298  0.1076
  121CHL1   C2415202   3.970   4.789  15.313 -0.7074  0.4406  0.4483
  121CHL1  H24A15203   4.056   4.830  15.255  0.4645 -1.1142  1.0184
  121CHL1  H24B15204   3.913   4.878  15.348 -2.7740 -0.0583 -1.4246
  121CHL1   C2515205   4.011   4.705  15.438  0.2206  0.5264 -0.1918
  121CHL1   H2515206   4.067   4.617  15.401 -0.5864  0.0689 -0.3408
  121CHL1   C2615207   4.111   4.775  15.533  0.8209 -0.2898 -0.0411
  121CHL1  H26A15208   4.201   4.808  15.476 -0.4011 -0.8252 -2.4049
  121CHL1  H26B15209   4.057   4.857  15.584  0.2005 -1.9483  2.0859
  121CHL1  H26C15210   4.145   4.701  15.608 -0.3488 -1.4130 -0.5797
  121CHL1   C2715211   3.880   4.660  15.510  0.7043  0.2816 -0.5583
  121CHL1  H27A15212   3.823   4.576  15.465  0.7655  0.7263 -1.4917
  121CHL1  H27B15213   3.907   4.623  15.611  2.7171  2.5731 -0.1653
  121CHL1  H27C15214   3.827   4.755  15.535  2.4373  1.1465  0.0011
  122CHL1    C315215   1.746   4.338  13.721  0.6902  0.5901  0.9546
  122CHL1    H315216   1.692   4.244  13.747  2.0510 -0.1406  1.2562
  122CHL1    O315217   1.765   4.334  13.581  0.3481 -0.0030  0.1199
  122CHL1   H3'15218   1.676   4.309  13.553 -0.1872 -0.2856  1.9675
  122CHL1    C415219   1.657   4.454  13.771 -0.6093 -1.0890 -0.6084
  122CHL1   H4A15220   1.712   4.541  13.731  2.0632 -3.1405 -1.7019
  122CHL1   H4B15221   1.561   4.445  13.717 -0.7299 -1.1052 -0.3942
  122CHL1    C515222   1.634   4.462  13.921  0.1046  0.5019 -0.7639
  122CHL1    C615223   1.513   4.464  13.976 -0.1769  0.3576 -0.5449
  122CHL1    H615224   1.426   4.463  13.909  0.0038 -0.9466 -0.7872
  122CHL1    C715225   1.489   4.475  14.132 -0.1172  0.3732 -0.5105
  122CHL1   H7A15226   1.426   4.563  14.159  1.7037  1.1477  1.5279
  122CHL1   H7B15227   1.433   4.383  14.161 -2.6179  1.5495 -1.3381
  122CHL1    C815228   1.621   4.501  14.212  0.1532 -0.0972 -0.0641
  122CHL1    H815229   1.641   4.610  14.207 -1.9095  0.3576  0.5377
  122CHL1   C1415230   1.602   4.467  14.366  0.7252  0.3445  0.8487
  122CHL1   H1415231   1.585   4.357  14.372  0.9890  0.1763 -0.9341
  122CHL1   C1515232   1.481   4.519  14.436  0.4026  0.6566 -0.2936
  122CHL1  H15A15233   1.464   4.625  14.406 -0.3361  0.3609 -0.9417
  122CHL1  H15B15234   1.390   4.469  14.397 -1.2288  1.0197  2.6816
  122CHL1   C1615235   1.508   4.481  14.580  0.6094 -0.5526 -0.1284
  122CHL1  H16A15236   1.467   4.556  14.651 -1.3752 -0.6633 -1.1060
  122CHL1  H16B15237   1.446   4.393  14.605 -0.9256  1.0591  2.2398
  122CHL1   C1715238   1.659   4.451  14.591 -0.1087 -0.1035  0.8066
  122CHL1   H1715239   1.673   4.341  14.592  0.5438 -0.0582 -0.6354
  122CHL1   C1315240   1.718   4.495  14.455  0.0477  0.4621  0.4526
  122CHL1   C1815241   1.750   4.644  14.456 -0.8278  0.1343  0.1552
  122CHL1  H18A15242   1.832   4.668  14.528 -1.0573  1.5322 -0.0249
  122CHL1  H18B15243   1.786   4.675  14.356  0.5605 -1.3057  0.1635
  122CHL1  H18C15244   1.665   4.704  14.496  1.0010  2.6106  0.5259
  122CHL1   C1215245   1.835   4.419  14.405 -0.8330 -0.0353 -0.2560
  122CHL1  H12A15246   1.930   4.447  14.455 -1.0631  0.6585 -0.1840
  122CHL1  H12B15247   1.822   4.310  14.417 -1.2648 -0.1254 -1.4191
  122CHL1   C1115248   1.866   4.448  14.255  0.3752  0.7981  0.1441
  122CHL1  H11A15249   1.914   4.547  14.242  2.5608 -0.2297 -0.0896
  122CHL1  H11B15250   1.953   4.384  14.228  0.2566  0.9813 -0.7220
  122CHL1    C915251   1.744   4.429  14.161 -0.4530 -0.4233  0.0295
  122CHL1    H915252   1.716   4.322  14.169  0.2085 -0.4842  2.1508
  122CHL1   C1015253   1.768   4.450  14.001 -0.3700  0.0351  0.1203
  122CHL1   C1915254   1.838   4.587  13.989 -0.0367  0.5871  0.1766
  122CHL1  H19A15255   1.780   4.663  14.047 -2.3102 -1.8794  1.3269
  122CHL1  H19B15256   1.941   4.590  14.031 -0.3421 -0.5950  1.0462
  122CHL1  H19C15257   1.865   4.611  13.884  0.3974 -0.0590  0.1350
  122CHL1    C115258   1.850   4.328  13.952  0.1920 -0.4573 -0.4227
  122CHL1   H1A15259   1.945   4.309  14.007  0.3508 -2.1938 -1.2405
  122CHL1   H1B15260   1.791   4.239  13.980  0.7353 -0.8626 -0.5507
  122CHL1    C215261   1.882   4.333  13.797  0.4007 -0.3913 -0.2568
  122CHL1   H2A15262   1.936   4.239  13.775 -1.8642 -1.4028 -1.8271
  122CHL1   H2B15263   1.942   4.424  13.775  0.6947 -0.8241 -1.3139
  122CHL1   C2015264   1.708   4.507  14.723 -0.5078  0.0898  0.1413
  122CHL1   H2015265   1.700   4.617  14.731  0.3870  0.0610  1.9877
  122CHL1   C2115266   1.862   4.491  14.750  0.9474  0.3011  0.1836
  122CHL1  H21A15267   1.879   4.520  14.856 -2.1045  3.5541 -0.0282
  122CHL1  H21B15268   1.938   4.536  14.682  0.8458  0.6776  0.3144
  122CHL1  H21C15269   1.881   4.382  14.745 -1.9410 -0.3022  0.4655
  122CHL1   C2215270   1.632   4.446  14.842  0.5582 -0.1746 -0.4322
  122CHL1  H22A15271   1.528   4.414  14.821  0.6505 -0.6351 -0.2120
  122CHL1  H22B15272   1.686   4.353  14.871 -0.8707 -0.3284  1.9940
  122CHL1   C2315273   1.627   4.532  14.980  0.6900  0.5686  0.4191
  122CHL1  H23A15274   1.728   4.534  15.025  0.7659  1.4795  0.2380
  122CHL1  H23B15275   1.589   4.634  14.957  0.4509  0.3832 -0.0265
  122CHL1   C2415276   1.530   4.472  15.087 -0.2395 -0.4688  0.5857
  122CHL1  H24A15277   1.429   4.465  15.041  0.6412 -1.6146 -1.2963
  122CHL1  H24B15278   1.567   4.368  15.091 -0.9162 -0.7613 -0.3448
  122CHL1   C2515279   1.511   4.539  15.220  0.0872  0.2422 -0.3751
  122CHL1   H2515280   1.508   4.650  15.215 -1.1322  0.3313  1.4677
  122CHL1   C2615281   1.375   4.500  15.283  0.4738  0.2272  0.5424
  122CHL1  H26A15282   1.346   4.547  15.379 -1.2922 -0.8216  0.5788
  122CHL1  H26B15283   1.290   4.519  15.213  1.3253  0.4658 -0.4459
  122CHL1  H26C15284   1.366   4.389  15.288  0.6792  0.0810 -1.2893
  122CHL1   C2715285   1.634   4.501  15.313  0.0836  0.3038 -0.3762
  122CHL1  H27A15286   1.650   4.571  15.398  0.3479 -0.6433  0.3789
  122CHL1  H27B15287   1.620   4.398  15.353  0.1984  0.3015 -0.3436
  122CHL1  H27C15288   1.721   4.489  15.245  0.6962 -1.5963  0.6544
  123CHL1    C315289   5.184   5.507  14.166 -0.0280  0.0269 -0.0533
  123CHL1    H315290   5.191   5.615  14.191  1.6142  0.2215 -1.2342
  123CHL1    O315291   5.137   5.488  14.037  0.0534 -0.5901  0.1485
  123CHL1   H3'15292   5.172   5.404  14.004 -1.1521 -2.2304  2.7823
  123CHL1    C415293   5.325   5.449  14.162 -0.2762  0.9523  0.0668
  123CHL1   H4A15294   5.327   5.349  14.114  0.5189  2.2147 -2.7337
  123CHL1   H4B15295   5.381   5.508  14.086 -1.4935  1.8175 -0.1936
  123CHL1    C515296   5.387   5.453  14.302 -0.5698 -0.4190 -0.0819
  123CHL1    C615297   5.511   5.513  14.318  0.3666  0.0251  0.3457
  123CHL1    H615298   5.559   5.562  14.233  2.0461  0.6726  1.6116
  123CHL1    C715299   5.585   5.508  14.446  0.1296 -0.4567  0.3193
  123CHL1   H7A15300   5.695   5.490  14.440  0.2813 -0.1600  1.7837
  123CHL1   H7B15301   5.585   5.606  14.499  3.1472  0.1488 -0.5977
  123CHL1    C815302   5.532   5.401  14.552 -0.0113  0.3932  0.3275
  123CHL1    H815303   5.564   5.301  14.517 -1.0149 -0.6315  2.1807
  123CHL1   C1415304   5.589   5.429  14.690  0.3907  0.4856 -0.1746
  123CHL1   H1415305   5.540   5.525  14.718 -1.9343  0.1316 -2.5929
  123CHL1   C1515306   5.740   5.436  14.703  0.2268 -0.5190 -0.6896
  123CHL1  H15A15307   5.781   5.343  14.657 -0.8365 -2.1802  1.5106
  123CHL1  H15B15308   5.782   5.528  14.658 -1.7767  0.3762 -0.8046
  123CHL1   C1615309   5.754   5.438  14.862 -0.2174 -0.4625  0.4618
  123CHL1  H16A15310   5.832   5.361  14.880 -1.5747 -1.8844  0.4628
  123CHL1  H16B15311   5.782   5.539  14.899 -0.0486  0.1040 -1.1167
  123CHL1   C1715312   5.613   5.388  14.914  0.0662 -0.2118  0.0562
  123CHL1   H1715313   5.555   5.479  14.942  1.3135  0.3244  1.0197
  123CHL1   C1315314   5.542   5.330  14.794  0.1965  0.5304  0.2916
  123CHL1   C1815315   5.596   5.190  14.762 -0.1482 -0.1547 -0.3942
  123CHL1  H18A15316   5.706   5.176  14.758  0.1903  0.9310  2.7084
  123CHL1  H18B15317   5.547   5.121  14.834 -1.0862 -0.6718 -1.4880
  123CHL1  H18C15318   5.566   5.155  14.661 -1.5249 -3.0900  0.8808
  123CHL1   C1215319   5.386   5.340  14.799 -0.7669  0.2758  0.3901
  123CHL1  H12A15320   5.332   5.274  14.870 -0.8737  0.6584  0.6681
  123CHL1  H12B15321   5.352   5.441  14.832  0.4356  0.1988  1.9581
  123CHL1   C1115322   5.321   5.308  14.662  0.3091  0.7949 -0.7164
  123CHL1  H11A15323   5.342   5.204  14.629  0.3360  1.3105 -2.4251
  123CHL1  H11B15324   5.213   5.328  14.673 -0.0602 -1.2875 -0.1299
  123CHL1    C915325   5.374   5.405  14.553  0.1290  0.1966  0.2529
  123CHL1    H915326   5.356   5.509  14.587 -0.4573  0.8794 -1.9783
  123CHL1   C1015327   5.306   5.387  14.413  0.5903 -0.8169 -0.0216
  123CHL1   C1915328   5.304   5.234  14.389  0.9491 -0.2264 -0.3507
  123CHL1  H19A15329   5.220   5.189  14.446  0.1332  0.5360 -0.9244
  123CHL1  H19B15330   5.273   5.210  14.285  0.0526  1.7697 -0.5989
  123CHL1  H19C15331   5.398   5.184  14.418 -0.0893 -2.8598 -1.2992
  123CHL1    C115332   5.155   5.440  14.412  0.5777  0.5860 -0.1766
  123CHL1   H1A15333   5.106   5.384  14.495  1.1998  1.7648  1.0331
  123CHL1   H1B15334   5.147   5.543  14.452 -0.7328  0.8237 -0.9885
  123CHL1    C215335   5.095   5.438  14.271 -0.0883  0.6295  0.3003
  123CHL1   H2A15336   4.998   5.490  14.288  0.5351  0.9901  3.2722
  123CHL1   H2B15337   5.078   5.334  14.234 -0.2039  1.1117 -1.0528
  123CHL1   C2015338   5.630   5.300  15.037  0.2625  0.2072 -0.2021
  123CHL1   H2015339   5.687   5.210  15.005  1.2523  0.7656 -0.0514
  123CHL1   C2115340   5.498   5.256  15.103  0.0315 -0.5209  0.4063
  123CHL1  H21A15341   5.435   5.196  15.034  1.4029 -0.0714 -1.3169
  123CHL1  H21B15342   5.441   5.346  15.133  1.4096  0.0295  1.5170
  123CHL1  H21C15343   5.513   5.193  15.194  0.9554  0.3453  0.8767
  123CHL1   C2215344   5.710   5.373  15.154 -0.2109 -0.0530  0.6794
  123CHL1  H22A15345   5.708   5.304  15.241  4.9360 -1.6165 -0.1165
  123CHL1  H22B15346   5.819   5.368  15.133 -0.2686 -1.0722  0.5688
  123CHL1   C2315347   5.670   5.514  15.194 -0.3401 -0.1035 -0.1352
  123CHL1  H23A15348   5.700   5.586  15.115  1.4741 -1.6101 -0.8748
  123CHL1  H23B15349   5.559   5.518  15.206 -0.2770 -2.8894  2.6005
  123CHL1   C2415350   5.723   5.579  15.326  0.5742  0.0856 -0.5786
  123CHL1  H24A15351   5.657   5.539  15.406  0.3242  0.3710 -0.6385
  123CHL1  H24B15352   5.827   5.542  15.339  1.3617  2.4510  0.3590
  123CHL1   C2515353   5.716   5.739  15.318 -0.2452  0.8604  0.2964
  123CHL1   H2515354   5.753   5.773  15.219 -1.6813  0.4535 -0.4151
  123CHL1   C2615355   5.566   5.783  15.330 -0.3016  0.3742  0.0453
  123CHL1  H26A15356   5.508   5.775  15.236 -1.3138 -0.8370  0.7520
  123CHL1  H26B15357   5.509   5.736  15.414 -1.7091 -0.1533 -1.1697
  123CHL1  H26C15358   5.560   5.893  15.347 -2.9974  0.4566 -0.9896
  123CHL1   C2715359   5.795   5.806  15.430 -0.4780 -0.4008  0.3657
  123CHL1  H27A15360   5.900   5.769  15.430 -0.9450 -1.7493  0.8447
  123CHL1  H27B15361   5.798   5.917  15.420  2.0330 -0.5460 -1.6203
  123CHL1  H27C15362   5.755   5.776  15.529  0.5867 -1.8096  0.3884
  124CHL1    C315363   2.739   5.672  14.071 -0.0066 -0.0756 -0.5368
  124CHL1    H315364   2.849   5.678  14.085 -0.3147  1.5154  1.9498
  124CHL1    O315365   2.720   5.657  13.929  0.3122  0.2032  0.2584
  124CHL1   H3'15366   2.794   5.711  13.900 -0.7360  2.5834  1.7844
  124CHL1    C415367   2.688   5.547  14.140 -0.0539  0.2426 -0.0397
  124CHL1   H4A15368   2.583   5.522  14.112 -0.7803  1.2349  1.6553
  124CHL1   H4B15369   2.755   5.464  14.107 -0.6228 -0.3665  0.3222
  124CHL1    C515370   2.703   5.577  14.291  0.7166  0.3423  0.8580
  124CHL1    C615371   2.776   5.495  14.364  0.4037  0.1806 -0.4322
  124CHL1    H615372   2.832   5.410  14.321 -0.5434  0.4253 -2.2321
  124CHL1    C715373   2.800   5.519  14.510 -0.2785  0.0262 -0.5709
  124CHL1   H7A15374   2.792   5.418  14.557  0.8590 -0.1869 -0.8176
  124CHL1   H7B15375   2.901   5.555  14.536  1.2181 -2.6621 -2.1841
  124CHL1    C815376   2.691   5.605  14.579 -0.3674 -0.0739  0.1144
  124CHL1    H815377   2.600   5.541  14.583  1.1443 -2.3340 -0.1020
  124CHL1   C1415378   2.734   5.653  14.720 -0.5763  0.4932  0.2524
  124CHL1   H1415379   2.823   5.715  14.697  0.1492 -0.8517 -0.6601
  124CHL1   C1515380   2.778   5.548  14.825  0.7782  0.2525  0.4241
  124CHL1  H15A15381   2.703   5.466  14.819 -0.3252  1.3568 -1.5831
  124CHL1  H15B15382   2.873   5.500  14.792 -0.3753 -1.9067  0.0531
  124CHL1   C1615383   2.785   5.623  14.955  0.2056  0.2285  0.0221
  124CHL1  H16A15384   2.741   5.579  15.047  1.7595  0.1273  0.7522
  124CHL1  H16B15385   2.893   5.643  14.972  0.4623 -0.5360 -0.6559
  124CHL1   C1715386   2.711   5.756  14.931 -0.5799  0.4459 -0.7354
  124CHL1   H1715387   2.790   5.828  14.900  0.6074 -1.5095 -2.4283
  124CHL1   C1315388   2.639   5.741  14.802  0.4534  0.5976  0.2358
  124CHL1   C1815389   2.506   5.664  14.849 -0.5794  0.2691 -0.2406
  124CHL1  H18A15390   2.543   5.575  14.904  0.6836 -0.5969 -2.3541
  124CHL1  H18B15391   2.436   5.721  14.913 -1.5220 -3.2723  2.2096
  124CHL1  H18C15392   2.448   5.633  14.759 -1.1018 -0.5918  0.3792
  124CHL1   C1215393   2.601   5.867  14.720  0.7266  0.3414  0.1551
  124CHL1  H12A15394   2.516   5.928  14.757 -0.3059 -1.7334  1.4059
  124CHL1  H12B15395   2.691   5.932  14.716  0.0828  1.3077  1.0856
  124CHL1   C1115396   2.567   5.833  14.574  0.3250  0.3058  0.2843
  124CHL1  H11A15397   2.473   5.776  14.589 -0.2705  0.4787 -2.2366
  124CHL1  H11B15398   2.559   5.929  14.517  2.5400  1.1544  1.3087
  124CHL1    C915399   2.664   5.731  14.498 -0.3547 -0.7104  0.0695
  124CHL1    H915400   2.763   5.782  14.492  1.6351 -3.9368  2.4821
  124CHL1   C1015401   2.634   5.704  14.348  0.0133 -0.2743 -0.2440
  124CHL1   C1915402   2.483   5.678  14.332 -0.2772 -0.3639  0.0008
  124CHL1  H19A15403   2.446   5.618  14.418 -0.6600  0.5310  0.4694
  124CHL1  H19B15404   2.426   5.772  14.344  0.9116  0.5721 -1.2966
  124CHL1  H19C15405   2.458   5.636  14.232  2.6197 -0.2098 -0.8803
  124CHL1    C115406   2.685   5.820  14.265 -0.0407  0.2631 -0.1532
  124CHL1   H1A15407   2.625   5.909  14.293 -1.5055 -0.7738  0.0903
  124CHL1   H1B15408   2.790   5.848  14.291  1.3877 -3.9719 -0.5783
  124CHL1    C215409   2.682   5.804  14.115 -0.9211  0.4202  0.5206
  124CHL1   H2A15410   2.728   5.888  14.058 -0.7039  0.8868  1.3598
  124CHL1   H2B15411   2.576   5.804  14.081 -0.6734  1.4440 -0.2905
  124CHL1   C2015412   2.647   5.814  15.061 -0.4533  1.0066 -0.6706
  124CHL1   H2015413   2.562   5.758  15.105 -0.1875  0.6965 -0.5447
  124CHL1   C2115414   2.619   5.964  15.036  1.0402 -0.0369 -0.2751
  124CHL1  H21A15415   2.597   6.019  15.130  2.7916  0.4935 -0.1425
  124CHL1  H21B15416   2.525   5.974  14.978  0.2599  0.6728  1.0755
  124CHL1  H21C15417   2.704   6.016  14.987 -0.9066  3.5913 -0.1126
  124CHL1   C2215418   2.748   5.795  15.184  0.4545 -0.5089 -0.2280
  124CHL1  H22A15419   2.755   5.688  15.213 -1.5655 -0.9249 -1.1412
  124CHL1  H22B15420   2.845   5.836  15.147  0.4096 -0.3626 -0.1848
  124CHL1   C2315421   2.708   5.876  15.307 -0.0364 -0.1577 -0.0076
  124CHL1  H23A15422   2.693   5.983  15.281 -3.3499 -0.6373 -0.5424
  124CHL1  H23B15423   2.611   5.842  15.351  0.4857 -0.7896  0.6821
  124CHL1   C2415424   2.816   5.860  15.425  0.3695 -0.5247  0.0487
  124CHL1  H24A15425   2.789   5.777  15.494 -0.1893 -0.9850 -0.7101
  124CHL1  H24B15426   2.911   5.838  15.373  0.7307  0.1696  0.3994
  124CHL1   C2515427   2.826   5.980  15.518 -0.1896 -0.0983  0.1114
  124CHL1   H2515428   2.825   6.077  15.463 -1.9062 -0.4539 -0.5626
  124CHL1   C2615429   2.703   5.982  15.606 -0.5943 -0.0285 -0.2357
  124CHL1  H26A15430   2.612   6.002  15.545  0.5290  1.0862 -1.6374
  124CHL1  H26B15431   2.705   5.883  15.655  0.2429 -0.1655 -0.5267
  124CHL1  H26C15432   2.711   6.060  15.685 -2.7635  0.5675 -0.5592
  124CHL1   C2715433   2.953   5.965  15.595 -0.3026 -0.9177 -0.5580
  124CHL1  H27A15434   3.034   5.969  15.519 -0.5525 -0.6753 -0.8139
  124CHL1  H27B15435   2.973   6.053  15.660 -1.4391 -1.1280  0.0986
  124CHL1  H27C15436   2.969   5.869  15.648 -1.1895 -0.5433  0.4257
  125CHL1    C315437   3.422   5.293  13.952 -0.4975  0.4585  0.4949
  125CHL1    H315438   3.312   5.273  13.956 -0.5879  0.7102 -0.4242
  125CHL1    O315439   3.461   5.289  13.813  0.4684 -0.1870  0.1803
  125CHL1   H3'15440   3.417   5.363  13.771  0.3170 -0.0678  0.5480
  125CHL1    C415441   3.439   5.435  14.002  0.0736 -0.1224  0.2507
  125CHL1   H4A15442   3.548   5.452  13.995 -0.0460  1.9179  2.2077
  125CHL1   H4B15443   3.378   5.494  13.930 -1.0313  0.0921  1.3216
  125CHL1    C515444   3.402   5.447  14.151  0.3249 -0.5654  0.4998
  125CHL1    C615445   3.313   5.541  14.179  0.0990 -0.4099  0.0022
  125CHL1    H615446   3.273   5.605  14.099  3.9207  0.5944 -1.2907
  125CHL1    C715447   3.252   5.566  14.317  0.0122  0.1494  0.5332
  125CHL1   H7A15448   3.261   5.675  14.338 -0.5812 -0.1947  2.8317
  125CHL1   H7B15449   3.142   5.555  14.308  0.0271  1.3163 -2.2188
  125CHL1    C815450   3.337   5.492  14.428  0.1232  0.3806  0.7345
  125CHL1    H815451   3.430   5.549  14.450  0.2397 -0.3111  2.1683
  125CHL1   C1415452   3.259   5.497  14.566  0.0748  0.7763 -0.0239
  125CHL1   H1415453   3.172   5.436  14.535  0.0754  1.4250 -1.3601
  125CHL1   C1515454   3.216   5.635  14.621  0.1615 -0.4023 -0.6115
  125CHL1  H15A15455   3.302   5.705  14.611 -0.5621  0.6024 -0.0505
  125CHL1  H15B15456   3.126   5.684  14.578  0.3845 -1.0762 -1.8894
  125CHL1   C1615457   3.195   5.603  14.774 -0.5331 -0.6923  0.2876
  125CHL1  H16A15458   3.275   5.655  14.832  0.0108 -0.4321 -0.6639
  125CHL1  H16B15459   3.095   5.633  14.812  0.1702  0.2793  1.4675
  125CHL1   C1715460   3.230   5.455  14.792 -0.8449  0.3621  0.2969
  125CHL1   H1715461   3.135   5.405  14.767 -0.6610  0.2565 -0.2000
  125CHL1   C1315462   3.330   5.424  14.680 -0.2020 -0.3734  0.1388
  125CHL1   C1815463   3.468   5.493  14.720  0.4086  0.3225  0.2958
  125CHL1  H18A15464   3.461   5.593  14.768  0.0885 -0.3954  1.7844
  125CHL1  H18B15465   3.518   5.421  14.788  0.7145  0.9373  0.7336
  125CHL1  H18C15466   3.533   5.507  14.630 -0.7837 -1.1248 -0.8379
  125CHL1   C1215467   3.347   5.284  14.636 -0.3770  0.6738 -0.1188
  125CHL1  H12A15468   3.395   5.229  14.719 -2.5112 -0.3161  0.5422
  125CHL1  H12B15469   3.251   5.229  14.625  0.7517 -2.3071  3.0761
  125CHL1   C1115470   3.433   5.268  14.508  0.5325 -0.7097 -0.1029
  125CHL1  H11A15471   3.539   5.297  14.527  0.5895 -1.5828  1.0729
  125CHL1  H11B15472   3.431   5.161  14.476 -0.3578 -0.2452 -1.6743
  125CHL1    C915473   3.376   5.351  14.388  0.3992 -0.0075 -0.0863
  125CHL1    H915474   3.277   5.308  14.363 -1.1607  2.2892  1.7276
  125CHL1   C1015475   3.460   5.345  14.257  0.6794 -0.6108 -0.5056
  125CHL1   C1915476   3.606   5.372  14.287 -1.1704  0.1607 -0.4348
  125CHL1  H19A15477   3.659   5.303  14.356  1.4204  1.8245 -0.6099
  125CHL1  H19B15478   3.668   5.372  14.195 -0.1159 -0.7388  0.2364
  125CHL1  H19C15479   3.606   5.473  14.335 -0.6281 -1.6624  3.8986
  125CHL1    C115480   3.441   5.203  14.188  0.4524  0.0446 -0.7223
  125CHL1   H1A15481   3.499   5.131  14.250 -1.1810  0.6216  1.5939
  125CHL1   H1B15482   3.334   5.174  14.182 -0.1574  1.9873  0.0863
  125CHL1    C215483   3.492   5.194  14.040 -0.1964 -0.1515  0.0878
  125CHL1   H2A15484   3.493   5.094  13.993 -1.3915  0.1428 -0.5895
  125CHL1   H2B15485   3.597   5.230  14.051 -0.3285  0.7820 -1.4576
  125CHL1   C2015486   3.260   5.410  14.931  0.2459 -0.7298  0.1174
  125CHL1   H2015487   3.364   5.434  14.961 -0.1754  0.1667  0.9527
  125CHL1   C2115488   3.240   5.255  14.948  0.4021 -0.3197 -0.8214
  125CHL1  H21A15489   3.331   5.200  14.915  1.7842  2.3792 -1.9129
  125CHL1  H21B15490   3.155   5.223  14.884  1.0006  0.6240 -2.1585
  125CHL1  H21C15491   3.217   5.247  15.056  1.3986  4.9542  0.0506
  125CHL1   C2215492   3.184   5.492  15.050  0.2732  0.6801  0.7767
  125CHL1  H22A15493   3.186   5.600  15.023 -0.4967  0.0646 -2.0789
  125CHL1  H22B15494   3.077   5.465  15.040  0.1466  1.3800  0.2069
  125CHL1   C2315495   3.244   5.471  15.187 -0.2148 -0.5001 -0.5298
  125CHL1  H23A15496   3.244   5.365  15.220  0.0497 -0.6902 -1.1234
  125CHL1  H23B15497   3.349   5.505  15.196 -0.5002  0.7106 -1.5162
  125CHL1   C2415498   3.171   5.549  15.297  0.3151 -0.0997  0.3713
  125CHL1  H24A15499   3.149   5.653  15.265 -0.3139 -0.6705 -1.1738
  125CHL1  H24B15500   3.076   5.494  15.317 -0.1330  0.1432 -0.9449
  125CHL1   C2515501   3.250   5.562  15.425  0.3653 -0.0771 -1.3737
  125CHL1   H2515502   3.296   5.469  15.466  0.1722  2.1123  5.0642
  125CHL1   C2615503   3.356   5.673  15.407 -0.3583  0.3996 -0.3600
  125CHL1  H26A15504   3.396   5.708  15.505  0.8706 -0.2892 -0.5955
  125CHL1  H26B15505   3.434   5.647  15.333 -2.3066 -0.8391 -2.0827
  125CHL1  H26C15506   3.313   5.768  15.368  2.2047  2.1702  0.7800
  125CHL1   C2715507   3.155   5.597  15.544  0.3410  0.4492 -0.1119
  125CHL1  H27A15508   3.095   5.686  15.516  2.3344  1.9064  0.0017
  125CHL1  H27B15509   3.085   5.513  15.560  1.0686 -0.0787  0.3286
  125CHL1  H27C15510   3.207   5.617  15.640 -1.2974  1.5410  0.5937
  126CHL1    C315511   1.677   5.645  13.852  0.2574 -0.0027 -0.9329
  126CHL1    H315512   1.777   5.601  13.873  0.3485 -0.2221 -1.7617
  126CHL1    O315513   1.650   5.612  13.714  0.1386 -0.5651 -0.3609
  126CHL1   H3'15514   1.555   5.613  13.698  0.0233 -0.3000  0.3269
  126CHL1    C415515   1.575   5.578  13.945 -0.0530  0.6217  0.1365
  126CHL1   H4A15516   1.477   5.628  13.935 -0.5398 -0.4689 -0.6414
  126CHL1   H4B15517   1.556   5.475  13.910 -0.1825  1.0249 -1.0124
  126CHL1    C515518   1.613   5.601  14.087 -0.1593  0.1052 -0.0617
  126CHL1    C615519   1.646   5.499  14.174 -0.1635  0.0315  0.6467
  126CHL1    H615520   1.629   5.399  14.131 -0.3424  0.6544 -0.8014
  126CHL1    C715521   1.666   5.510  14.327  0.1669 -0.0780  0.2496
  126CHL1   H7A15522   1.598   5.444  14.384  1.5372 -1.3178  0.5040
  126CHL1   H7B15523   1.768   5.488  14.365  0.1309  1.3833  1.2563
  126CHL1    C815524   1.639   5.660  14.373  0.4179 -0.1985 -0.4742
  126CHL1    H815525   1.528   5.672  14.368  0.3809 -0.5175 -0.4696
  126CHL1   C1415526   1.685   5.682  14.515 -0.6511  0.0022 -0.2497
  126CHL1   H1415527   1.796   5.678  14.509 -0.5807  1.5735 -0.4253
  126CHL1   C1515528   1.654   5.576  14.621  0.2168 -0.0975 -0.4182
  126CHL1  H15A15529   1.555   5.538  14.587  1.1799 -0.0365 -3.7090
  126CHL1  H15B15530   1.729   5.494  14.626 -1.9776 -2.1601  0.3887
  126CHL1   C1615531   1.655   5.655  14.753  0.0014  0.7178  0.2499
  126CHL1  H16A15532   1.554   5.650  14.799 -0.5708  0.7036 -0.9406
  126CHL1  H16B15533   1.734   5.598  14.805  1.3995  0.6101 -1.8661
  126CHL1   C1715534   1.684   5.807  14.720  0.0127  0.6834  0.4376
  126CHL1   H1715535   1.793   5.828  14.724  0.0389  0.4589  1.0220
  126CHL1   C1315536   1.649   5.820  14.576 -0.0290  0.1902 -0.0307
  126CHL1   C1815537   1.502   5.851  14.555  0.4124 -0.0933 -0.0822
  126CHL1  H18A15538   1.443   5.774  14.610 -3.2881  1.2486 -1.8237
  126CHL1  H18B15539   1.468   5.946  14.603 -0.7806 -0.2024 -0.6537
  126CHL1  H18C15540   1.464   5.844  14.451 -1.9292  0.2472  0.6729
  126CHL1   C1215541   1.728   5.920  14.490 -0.1486  0.4024 -0.8110
  126CHL1  H12A15542   1.691   6.022  14.514 -2.1669 -0.7597  1.3742
  126CHL1  H12B15543   1.838   5.914  14.507  0.0936  2.2806 -1.4484
  126CHL1   C1115544   1.704   5.905  14.336  0.2174  0.2718  0.7805
  126CHL1  H11A15545   1.611   5.962  14.314 -0.3231 -0.7650  0.3293
  126CHL1  H11B15546   1.784   5.963  14.285  1.8734 -1.5840  1.1740
  126CHL1    C915547   1.700   5.762  14.277 -0.2049 -0.8186  0.0946
  126CHL1    H915548   1.807   5.738  14.261  0.6960  1.3670  2.1196
  126CHL1   C1015549   1.635   5.749  14.133  0.0499 -0.5128 -0.0899
  126CHL1   C1915550   1.499   5.826  14.124  0.1507  0.2248  0.5176
  126CHL1  H19A15551   1.505   5.936  14.140 -0.8454  0.3739 -0.0342
  126CHL1  H19B15552   1.449   5.826  14.025 -0.2794  0.2741  0.7322
  126CHL1  H19C15553   1.435   5.792  14.208 -0.5781 -0.1801 -0.1873
  126CHL1    C115554   1.732   5.813  14.026 -0.0218 -0.0641 -0.1393
  126CHL1   H1A15555   1.752   5.920  14.047 -4.0158  0.9798 -0.7617
  126CHL1   H1B15556   1.827   5.757  14.025  0.3256  0.5236 -0.4648
  126CHL1    C215557   1.680   5.795  13.883 -0.0548  0.1846  0.3172
  126CHL1   H2A15558   1.746   5.853  13.815  0.3061  0.9199  1.2697
  126CHL1   H2B15559   1.586   5.853  13.877 -0.3902 -0.3822 -0.0080
  126CHL1   C2015560   1.630   5.899  14.826 -0.5814  0.2726  0.0770
  126CHL1   H2015561   1.519   5.893  14.828 -0.7509  2.5853  1.5301
  126CHL1   C2115562   1.677   6.045  14.798 -0.1386 -0.0332  0.1874
  126CHL1  H21A15563   1.787   6.038  14.801 -0.1198 -0.0991 -0.6006
  126CHL1  H21B15564   1.635   6.123  14.866  1.0133  1.6894 -1.0134
  126CHL1  H21C15565   1.653   6.080  14.695  2.1616  0.9058 -0.0730
  126CHL1   C2215566   1.684   5.864  14.965 -0.4097  0.3152 -0.2579
  126CHL1  H22A15567   1.677   5.754  14.985  2.0191  0.2919  0.7037
  126CHL1  H22B15568   1.792   5.888  14.965 -0.2923 -0.0826  1.1678
  126CHL1   C2315569   1.607   5.934  15.075  0.1205  0.1724 -0.5460
  126CHL1  H23A15570   1.637   6.041  15.075 -4.2463  1.5825 -1.8845
  126CHL1  H23B15571   1.499   5.949  15.054  0.4159  0.5085 -1.8969
  126CHL1   C2415572   1.622   5.856  15.211  0.4394  0.0046  0.0037
  126CHL1  H24A15573   1.576   5.756  15.196 -1.8377  0.9967 -0.0839
  126CHL1  H24B15574   1.731   5.845  15.230  0.5908  2.4245  0.9576
  126CHL1   C2515575   1.575   5.933  15.344 -0.3356 -0.6187 -0.1263
  126CHL1   H2515576   1.645   6.016  15.366 -1.5790  1.2293 -2.5658
  126CHL1   C2615577   1.440   5.985  15.335  0.5097  0.1076 -0.1303
  126CHL1  H26A15578   1.424   6.048  15.245 -0.2482  0.2102  0.0636
  126CHL1  H26B15579   1.371   5.899  15.317  1.0323 -0.0486 -1.5174
  126CHL1  H26C15580   1.416   6.035  15.432  0.5930  1.9882 -1.0285
  126CHL1   C2715581   1.589   5.830  15.458  0.2016 -0.5233  0.4078
  126CHL1  H27A15582   1.501   5.764  15.440  0.8477 -1.6141  1.1686
  126CHL1  H27B15583   1.687   5.779  15.464 -0.3980 -1.6967  0.3963
  126CHL1  H27C15584   1.579   5.881  15.556 -1.0857  0.4552 -0.1887
  127CHL1    C315585   2.163   6.738  13.705 -0.9240 -0.1114  0.8357
  127CHL1    H315586   2.270   6.720  13.682 -1.0099  0.8185 -0.4241
  127CHL1    O315587   2.103   6.737  13.574  0.5324  0.8189  0.2742
  127CHL1   H3'15588   2.057   6.821  13.569 -1.5621 -0.2710 -0.0244
  127CHL1    C415589   2.116   6.623  13.798  0.4419  0.4805  0.1807
  127CHL1   H4A15590   2.007   6.629  13.817  0.0719 -1.3929 -1.0305
  127CHL1   H4B15591   2.131   6.524  13.750  0.6852  1.2551 -1.3978
  127CHL1    C515592   2.196   6.630  13.923  0.3699 -1.4833  0.1709
  127CHL1    C615593   2.278   6.531  13.969 -0.1475 -0.2965 -0.0184
  127CHL1    H615594   2.280   6.439  13.910  3.5756 -1.3221  1.4116
  127CHL1    C715595   2.356   6.528  14.091  0.0518 -0.1844 -0.2746
  127CHL1   H7A15596   2.340   6.434  14.148  0.9360  0.9682  2.0066
  127CHL1   H7B15597   2.467   6.535  14.079  0.2268 -1.3621  0.5167
  127CHL1    C815598   2.307   6.633  14.190  0.2850 -0.6282 -0.2335
  127CHL1    H815599   2.217   6.594  14.243  1.0488  2.0535  3.4409
  127CHL1   C1415600   2.402   6.659  14.305 -0.3359  0.0497 -0.2168
  127CHL1   H1415601   2.501   6.687  14.262  0.4144  1.2790  2.1235
  127CHL1   C1515602   2.439   6.536  14.397  0.3368  0.1549  0.0087
  127CHL1  H15A15603   2.340   6.497  14.431 -0.0575  2.2287  1.4002
  127CHL1  H15B15604   2.496   6.456  14.346 -1.1807 -0.3176 -1.0315
  127CHL1   C1615605   2.521   6.596  14.513 -0.0218 -0.0933  0.4309
  127CHL1  H16A15606   2.489   6.556  14.611  1.1002  1.4367  1.4557
  127CHL1  H16B15607   2.631   6.587  14.504  0.1364  2.1224 -0.4823
  127CHL1   C1715608   2.493   6.750  14.500 -0.3701 -0.2049  0.5077
  127CHL1   H1715609   2.582   6.775  14.439  1.2597 -3.8654  1.0669
  127CHL1   C1315610   2.372   6.771  14.411  0.0517 -0.3801  0.6152
  127CHL1   C1815611   2.245   6.741  14.483 -0.2631 -1.0560  0.1657
  127CHL1  H18A15612   2.275   6.687  14.576 -0.2127 -0.3864  0.5466
  127CHL1  H18B15613   2.205   6.830  14.537  1.7995 -0.9539  1.6616
  127CHL1  H18C15614   2.172   6.677  14.430  0.6034 -2.7454  0.9434
  127CHL1   C1215615   2.368   6.902  14.331 -0.0432 -0.4384  0.4324
  127CHL1  H12A15616   2.355   6.990  14.397 -0.7302  1.5990 -2.2413
  127CHL1  H12B15617   2.468   6.920  14.285 -0.6396 -2.0268 -1.6845
  127CHL1   C1115618   2.274   6.889  14.214 -0.0203 -0.4532  0.7480
  127CHL1  H11A15619   2.173   6.903  14.256 -0.7676  1.5271 -1.4733
  127CHL1  H11B15620   2.285   6.977  14.148  0.6920 -1.7932 -1.0267
  127CHL1    C915621   2.292   6.768  14.121 -0.1568  0.4271 -0.3098
  127CHL1    H915622   2.386   6.786  14.066  0.7995 -2.7679  0.0756
  127CHL1   C1015623   2.196   6.766  13.997  0.1467  0.5711 -0.6782
  127CHL1   C1915624   2.052   6.780  14.056 -0.0037 -0.4983 -0.1366
  127CHL1  H19A15625   2.035   6.707  14.139 -0.0805 -0.5957 -0.2372
  127CHL1  H19B15626   2.040   6.878  14.107  0.3479 -0.0817 -0.8393
  127CHL1  H19C15627   1.971   6.786  13.980  1.2015  2.3361 -1.3180
  127CHL1    C115628   2.232   6.880  13.899  0.1223  0.2569 -0.4696
  127CHL1   H1A15629   2.241   6.983  13.939  2.1379 -0.4915  1.1723
  127CHL1   H1B15630   2.332   6.852  13.859 -0.3976 -0.7799 -1.1061
  127CHL1    C215631   2.146   6.873  13.765 -0.5743 -0.4580  0.2569
  127CHL1   H2A15632   2.187   6.956  13.703 -1.9574 -0.1673 -0.3055
  127CHL1   H2B15633   2.038   6.899  13.769 -0.7628 -1.3022  0.6782
  127CHL1   C2015634   2.512   6.838  14.626  0.7045  0.4149 -0.0531
  127CHL1   H2015635   2.472   6.939  14.601  1.6968  1.4329  2.1915
  127CHL1   C2115636   2.666   6.847  14.648  0.3342  0.2621 -0.1779
  127CHL1  H21A15637   2.710   6.752  14.686  1.8140  1.1292  0.3421
  127CHL1  H21B15638   2.673   6.921  14.730  0.4980 -1.4191  1.3754
  127CHL1  H21C15639   2.715   6.879  14.554  2.7010 -2.5255 -0.0444
  127CHL1   C2215640   2.434   6.781  14.755 -0.4164 -0.7527 -1.3251
  127CHL1  H22A15641   2.323   6.776  14.749 -0.8421  1.1343  2.2826
  127CHL1  H22B15642   2.464   6.676  14.776  1.5868 -0.0143 -0.1513
  127CHL1   C2315643   2.459   6.858  14.887 -0.3015  0.0928 -0.4917
  127CHL1  H23A15644   2.568   6.867  14.903 -0.6762  2.6737  1.1770
  127CHL1  H23B15645   2.407   6.954  14.864 -0.4146 -0.1323 -1.1912
  127CHL1   C2415646   2.383   6.807  15.017 -0.3807 -0.6116  0.7473
  127CHL1  H24A15647   2.363   6.890  15.088  0.9136 -0.1473  0.5800
  127CHL1  H24B15648   2.282   6.769  14.989 -0.5696 -1.6599  2.6790
  127CHL1   C2515649   2.458   6.693  15.088  0.3066 -0.6596 -0.5607
  127CHL1   H2515650   2.476   6.610  15.016 -1.0865  0.7178 -2.6200
  127CHL1   C2615651   2.592   6.743  15.141 -0.4630  0.2392  0.0419
  127CHL1  H26A15652   2.657   6.764  15.053  0.6987 -3.2753 -0.0761
  127CHL1  H26B15653   2.592   6.831  15.209  0.0646  2.7545 -2.9539
  127CHL1  H26C15654   2.645   6.657  15.188 -0.0351 -0.4561 -1.6509
  127CHL1   C2715655   2.373   6.645  15.208 -0.1447  0.5421  0.6604
  127CHL1  H27A15656   2.276   6.610  15.166  0.1971 -0.2820  0.5344
  127CHL1  H27B15657   2.421   6.571  15.275  0.0035 -0.4844 -0.5337
  127CHL1  H27C15658   2.352   6.732  15.274  0.6007  0.6972  0.7007
  128CHL1    C315659   1.572   3.026  13.655  0.9386 -0.3460 -0.1406
  128CHL1    H315660   1.673   3.073  13.648 -0.4042  2.6871 -0.5804
  128CHL1    O315661   1.517   3.018  13.531  0.5113 -0.4987  0.0852
  128CHL1   H3'15662   1.444   2.956  13.528 -0.6261  0.8010 -0.4903
  128CHL1    C415663   1.570   2.886  13.727  0.3202 -0.3819  0.1681
  128CHL1   H4A15664   1.463   2.857  13.724  0.4125 -0.6815 -0.3314
  128CHL1   H4B15665   1.620   2.804  13.672  0.1996 -0.0007 -0.5358
  128CHL1    C515666   1.626   2.895  13.866 -0.7191 -0.7774 -0.6792
  128CHL1    C615667   1.732   2.822  13.913  0.6786 -0.1770 -0.1301
  128CHL1    H615668   1.790   2.756  13.847  0.7355  1.1352 -1.4499
  128CHL1    C715669   1.791   2.836  14.050 -0.4284 -0.2972 -0.6510
  128CHL1   H7A15670   1.842   2.742  14.081 -0.7178  0.1989  1.4814
  128CHL1   H7B15671   1.871   2.910  14.029  1.0775 -1.5403  0.4210
  128CHL1    C815672   1.693   2.898  14.152 -0.1702 -0.1053 -0.1870
  128CHL1    H815673   1.612   2.825  14.176 -0.0008  0.2724  1.7277
  128CHL1   C1415674   1.764   2.942  14.278 -0.1128 -0.2367  0.0624
  128CHL1   H1415675   1.839   3.016  14.242 -1.0526  0.7102 -0.0112
  128CHL1   C1515676   1.852   2.826  14.340  0.3520  0.1429 -0.3405
  128CHL1  H15A15677   1.793   2.732  14.333 -0.1369  0.4037  0.1977
  128CHL1  H15B15678   1.942   2.832  14.275  1.0333  1.2396  0.6471
  128CHL1   C1615679   1.874   2.883  14.481  0.3069  0.1291  0.3939
  128CHL1  H16A15680   1.841   2.816  14.564 -2.2118  2.0436  1.0799
  128CHL1  H16B15681   1.982   2.904  14.491  0.1456  1.1271  0.1747
  128CHL1   C1715682   1.784   3.012  14.498 -0.1601 -0.4454 -0.1199
  128CHL1   H1715683   1.851   3.093  14.461 -1.2748  1.3136  1.5283
  128CHL1   C1315684   1.678   3.010  14.384 -0.3102 -0.2435 -0.0040
  128CHL1   C1815685   1.573   2.906  14.432 -0.8378  0.1232  0.4062
  128CHL1  H18A15686   1.619   2.811  14.467 -1.7090 -1.2729 -1.9753
  128CHL1  H18B15687   1.510   2.952  14.510  0.6856  1.0191  1.1544
  128CHL1  H18C15688   1.511   2.868  14.347 -1.3703 -2.1952  1.7480
  128CHL1   C1215689   1.620   3.139  14.328  0.0429  0.1319  0.1919
  128CHL1  H12A15690   1.543   3.189  14.391 -0.3480  0.8006 -0.7863
  128CHL1  H12B15691   1.704   3.210  14.312 -0.6581  1.6890  2.7459
  128CHL1   C1115692   1.546   3.112  14.192 -0.5094 -0.0203  0.5498
  128CHL1  H11A15693   1.460   3.048  14.216 -0.1493 -0.7567 -0.0800
  128CHL1  H11B15694   1.493   3.201  14.151 -0.1315  0.1468  0.4100
  128CHL1    C915695   1.629   3.029  14.090 -0.0060  0.6268  0.4658
  128CHL1    H915696   1.718   3.084  14.054  0.5277 -0.6713 -0.3013
  128CHL1   C1015697   1.551   2.999  13.953 -0.6217 -0.5786 -0.7023
  128CHL1   C1915698   1.416   2.940  13.986  0.2605 -0.2468 -0.0917
  128CHL1  H19A15699   1.350   3.013  14.038 -1.8929 -1.1954 -1.3669
  128CHL1  H19B15700   1.347   2.909  13.905  0.0006 -4.2599  1.4356
  128CHL1  H19C15701   1.418   2.846  14.044 -2.3750 -1.3192 -1.5863
  128CHL1    C115702   1.544   3.137  13.883 -0.1495 -0.0982  0.4973
  128CHL1   H1A15703   1.463   3.193  13.935 -2.8715  0.0222 -3.4539
  128CHL1   H1B15704   1.634   3.201  13.876 -0.9992  1.2602  1.5372
  128CHL1    C215705   1.493   3.130  13.742 -0.5059 -0.0321 -0.0417
  128CHL1   H2A15706   1.488   3.229  13.692  1.0790  0.4643  0.7123
  128CHL1   H2B15707   1.389   3.091  13.750  0.7843 -4.2119 -1.6472
  128CHL1   C2015708   1.749   3.034  14.644  0.5562  0.6212 -0.1991
  128CHL1   H2015709   1.682   2.953  14.680 -0.1529  0.3487 -2.0086
  128CHL1   C2115710   1.654   3.160  14.659 -0.2451  1.1898  0.0031
  128CHL1  H21A15711   1.706   3.250  14.621  1.2572 -0.6639 -2.7537
  128CHL1  H21B15712   1.635   3.174  14.767 -3.3602  0.4794 -0.3535
  128CHL1  H21C15713   1.556   3.141  14.609 -0.8676  0.2589  1.5011
  128CHL1   C2215714   1.870   3.048  14.731 -0.7212  0.0888 -0.2162
  128CHL1  H22A15715   1.847   3.056  14.839  0.2292 -0.4547  0.0370
  128CHL1  H22B15716   1.919   2.948  14.730  0.7320  0.7359  1.3651
  128CHL1   C2315717   1.969   3.153  14.679 -0.8633 -0.2107 -0.3618
  128CHL1  H23A15718   2.025   3.120  14.590 -0.2515 -3.0893  0.9655
  128CHL1  H23B15719   1.914   3.246  14.654  2.6604  1.6088 -1.9825
  128CHL1   C2415720   2.071   3.177  14.793  0.0008  0.0069  0.2539
  128CHL1  H24A15721   2.018   3.199  14.888 -3.9434  0.8911 -1.9291
  128CHL1  H24B15722   2.128   3.082  14.798 -1.3495 -0.9970 -1.8663
  128CHL1   C2515723   2.178   3.284  14.765  0.0671  0.2313  0.0902
  128CHL1   H2515724   2.123   3.373  14.728 -0.1780  1.3971  2.9368
  128CHL1   C2615725   2.239   3.312  14.902 -0.0008 -0.7849 -0.1855
  128CHL1  H26A15726   2.300   3.226  14.940  0.6420  0.2140  1.1059
  128CHL1  H26B15727   2.298   3.405  14.910  1.1474 -1.6796  3.3969
  128CHL1  H26C15728   2.159   3.332  14.976  0.6260  2.4873 -0.2489
  128CHL1   C2715729   2.276   3.260  14.652  0.5366 -0.7369  0.1433
  128CHL1  H27A15730   2.211   3.255  14.563  0.4618  0.4604  0.1160
  128CHL1  H27B15731   2.342   3.349  14.635 -0.0643 -0.4498 -0.7499
  128CHL1  H27C15732   2.338   3.170  14.670  1.9782 -0.1253 -1.5006
  129CHL1    C315733   5.142   7.183  13.713  0.0183 -0.1665  0.3788
  129CHL1    H315734   5.093   7.243  13.634 -1.9703 -0.9793  0.9298
  129CHL1    O315735   5.235   7.082  13.667  0.0670  0.0553  0.1325
  129CHL1   H3'15736   5.306   7.142  13.643 -0.4995  0.5816 -0.2686
  129CHL1    C415737   5.218   7.272  13.804 -0.4247 -0.6343 -0.4469
  129CHL1   H4A15738   5.256   7.205  13.884 -0.6012 -0.3935 -0.1615
  129CHL1   H4B15739   5.292   7.328  13.743 -1.5130  0.1443 -1.1012
  129CHL1    C515740   5.131   7.377  13.876 -0.3859  0.4699 -0.5036
  129CHL1    C615741   5.142   7.507  13.853 -0.1964 -0.7168  0.1501
  129CHL1    H615742   5.215   7.543  13.778  0.2379 -2.2451 -0.1916
  129CHL1    C715743   5.060   7.616  13.909  0.1133 -0.5465 -0.3194
  129CHL1   H7A15744   5.119   7.703  13.944  0.2676 -0.8904  0.2913
  129CHL1   H7B15745   4.983   7.653  13.838  1.5107  1.9033 -0.6459
  129CHL1    C815746   4.992   7.562  14.039  0.3000  0.3849 -0.7336
  129CHL1    H815747   5.060   7.553  14.126 -0.2022  2.4972 -0.0640
  129CHL1   C1415748   4.885   7.657  14.084 -0.6767  0.4109  0.0293
  129CHL1   H1415749   4.816   7.665  13.997 -1.3173  1.3740  0.6019
  129CHL1   C1515750   4.924   7.805  14.115  0.0785  1.0660 -0.0912
  129CHL1  H15A15751   5.019   7.812  14.172 -0.7587  0.2652  1.5007
  129CHL1  H15B15752   4.927   7.863  14.020 -0.1679  0.5556 -0.4142
  129CHL1   C1615753   4.817   7.846  14.209  0.5479  0.2447 -0.3257
  129CHL1  H16A15754   4.847   7.880  14.310  0.3541  2.9973 -1.0981
  129CHL1  H16B15755   4.777   7.941  14.168  3.6012  1.5573 -0.5280
  129CHL1   C1715756   4.704   7.740  14.212  0.1873  0.6719 -0.0792
  129CHL1   H1715757   4.648   7.758  14.118  0.6111  0.9766 -0.2754
  129CHL1   C1315758   4.792   7.610  14.196 -0.1351 -0.4201 -0.1577
  129CHL1   C1815759   4.872   7.590  14.329  0.2793  0.4403  0.3035
  129CHL1  H18A15760   4.924   7.681  14.365 -0.2889  0.4141  1.2530
  129CHL1  H18B15761   4.798   7.562  14.408  0.5357 -2.0261 -0.2469
  129CHL1  H18C15762   4.945   7.506  14.325  1.6968  1.6908 -1.4058
  129CHL1   C1215763   4.716   7.483  14.156 -0.3198 -0.1000 -0.1419
  129CHL1  H12A15764   4.633   7.451  14.223  1.2647 -1.8462  1.1055
  129CHL1  H12B15765   4.663   7.514  14.064  1.3731  1.1988 -0.7254
  129CHL1   C1115766   4.823   7.376  14.128  0.1084  0.3849 -0.1026
  129CHL1  H11A15767   4.869   7.336  14.221 -0.8585  0.5212  0.4452
  129CHL1  H11B15768   4.778   7.284  14.086  0.3656  0.5075 -0.6508
  129CHL1    C915769   4.929   7.421  14.012 -0.1191  0.3370  0.1716
  129CHL1    H915770   4.856   7.446  13.932 -0.4909  0.1504  0.4529
  129CHL1   C1015771   5.018   7.309  13.957 -0.4074 -0.9901 -0.1145
  129CHL1   C1915772   5.069   7.227  14.081  0.0022 -0.1043  0.1810
  129CHL1  H19A15773   5.119   7.297  14.151 -0.4638  0.9054 -0.4632
  129CHL1  H19B15774   4.983   7.186  14.138  0.3277  0.0657  0.8060
  129CHL1  H19C15775   5.142   7.148  14.054 -0.4271 -0.6995  0.7659
  129CHL1    C115776   4.940   7.212  13.870  0.2363  0.9603 -0.1262
  129CHL1   H1A15777   4.864   7.153  13.925  0.8672 -1.8194 -2.0158
  129CHL1   H1B15778   4.881   7.273  13.798 -0.7551  0.3374  0.1393
  129CHL1    C215779   5.033   7.112  13.785  0.1314  0.7527 -0.3423
  129CHL1   H2A15780   4.968   7.061  13.712 -0.6538 -1.3327  1.6937
  129CHL1   H2B15781   5.082   7.036  13.850  2.1478  0.8192 -1.7056
  129CHL1   C2015782   4.601   7.765  14.323  0.0630 -0.6311  0.2632
  129CHL1   H2015783   4.651   7.758  14.421 -0.4011 -0.3467  0.5267
  129CHL1   C2115784   4.484   7.658  14.315 -0.1070 -0.0718 -0.2940
  129CHL1  H21A15785   4.519   7.554  14.335 -3.3633 -0.8960  2.0262
  129CHL1  H21B15786   4.441   7.661  14.213 -0.3970  1.0787 -0.1534
  129CHL1  H21C15787   4.399   7.685  14.381 -1.1005 -0.7453 -1.2627
  129CHL1   C2215788   4.531   7.904  14.324 -0.3211  0.2084  0.1245
  129CHL1  H22A15789   4.622   7.961  14.298 -0.3502 -0.8817 -2.8491
  129CHL1  H22B15790   4.459   7.906  14.239 -0.6691  2.6324  0.4175
  129CHL1   C2315791   4.449   7.938  14.446 -0.5063  0.4107  0.2448
  129CHL1  H23A15792   4.340   7.918  14.436 -0.4100 -0.4085  0.7028
  129CHL1  H23B15793   4.471   7.865  14.527 -1.2784  0.8898  0.8961
  129CHL1   C2415794   4.472   8.080  14.477  0.0163  0.2967 -0.6499
  129CHL1  H24A15795   4.577   8.092  14.512 -0.4446 -1.0269  1.3595
  129CHL1  H24B15796   4.455   8.141  14.386  1.4776  3.1138  0.8521
  129CHL1   C2515797   4.377   8.145  14.587  0.7661 -0.2014 -0.6060
  129CHL1   H2515798   4.415   8.245  14.618  0.6969 -0.1780 -0.5993
  129CHL1   C2615799   4.240   8.168  14.522  0.3039 -0.0203  0.2967
  129CHL1  H26A15800   4.164   8.209  14.592 -0.8160  2.0726 -1.9857
  129CHL1  H26B15801   4.267   8.244  14.445 -0.1315  0.4024  0.5501
  129CHL1  H26C15802   4.197   8.085  14.463  0.1188 -0.3077  0.8266
  129CHL1   C2715803   4.366   8.058  14.717  0.1221  0.2035 -0.3588
  129CHL1  H27A15804   4.297   8.104  14.791  1.6045  3.0351 -0.6005
  129CHL1  H27B15805   4.342   7.951  14.701  0.8508 -0.0742  0.3111
  129CHL1  H27C15806   4.461   8.073  14.772 -0.9206  4.6717  0.6055
  130CHL1    C315807   1.685   6.179  13.811 -0.6964 -0.0654  0.3838
  130CHL1    H315808   1.686   6.078  13.858  3.4765 -0.3408  0.1404
  130CHL1    O315809   1.649   6.154  13.680  0.2269 -0.0262  0.6303
  130CHL1   H3'15810   1.560   6.119  13.686  0.4139 -0.6685 -0.1394
  130CHL1    C415811   1.589   6.266  13.889 -0.5153  0.0992 -0.4118
  130CHL1   H4A15812   1.572   6.360  13.834 -1.1693  2.5049  3.5130
  130CHL1   H4B15813   1.492   6.213  13.882 -0.3229 -0.0553 -3.8381
  130CHL1    C515814   1.645   6.311  14.020 -0.0846 -0.4230 -0.3817
  130CHL1    C615815   1.573   6.264  14.126 -0.5111  0.2438 -0.1405
  130CHL1    H615816   1.480   6.208  14.106 -1.0312  1.1445 -0.3029
  130CHL1    C715817   1.606   6.277  14.272 -0.4992 -0.2555  0.3654
  130CHL1   H7A15818   1.524   6.334  14.320  1.0886  1.0444  1.6429
  130CHL1   H7B15819   1.612   6.178  14.321  0.3209 -1.0577 -1.2589
  130CHL1    C815820   1.734   6.370  14.286 -0.4063  0.7020 -0.5299
  130CHL1    H815821   1.691   6.470  14.266 -0.4077  0.3705 -2.3103
  130CHL1   C1415822   1.777   6.365  14.433  0.1369 -0.0652 -0.2148
  130CHL1   H1415823   1.799   6.257  14.450 -0.3476  0.1415  1.9089
  130CHL1   C1515824   1.681   6.408  14.546 -0.0045  0.0053  0.4660
  130CHL1  H15A15825   1.636   6.508  14.531  1.1731  0.6580  1.1643
  130CHL1  H15B15826   1.605   6.331  14.571 -0.8209  1.2812  2.1031
  130CHL1   C1615827   1.775   6.410  14.671  0.6006 -0.4645 -0.0698
  130CHL1  H16A15828   1.743   6.482  14.750  0.7968  0.5154 -0.8712
  130CHL1  H16B15829   1.780   6.312  14.725  1.7274 -1.3610 -1.7190
  130CHL1   C1715830   1.918   6.430  14.617 -0.6210 -0.0783 -0.1539
  130CHL1   H1715831   1.961   6.329  14.630  2.4340  1.4079  3.0390
  130CHL1   C1315832   1.902   6.451  14.467 -0.0375 -0.3527  0.4718
  130CHL1   C1815833   1.873   6.603  14.442 -0.0260  0.2295 -0.7991
  130CHL1  H18A15834   1.803   6.651  14.514  1.7802  1.4624  0.2260
  130CHL1  H18B15835   1.958   6.672  14.462 -0.5298  0.1547  2.1490
  130CHL1  H18C15836   1.833   6.615  14.339 -3.0488 -2.5644 -0.1198
  130CHL1   C1215837   2.013   6.400  14.377  0.1257 -0.2458  0.2835
  130CHL1  H12A15838   2.106   6.459  14.393  0.4799 -0.5740 -0.5234
  130CHL1  H12B15839   2.043   6.295  14.394 -0.3041 -0.1116  2.0955
  130CHL1   C1115840   1.970   6.411  14.224 -0.2072 -0.6083 -0.3739
  130CHL1  H11A15841   1.956   6.521  14.218 -0.7354 -0.5771  1.0144
  130CHL1  H11B15842   2.056   6.391  14.156 -0.6635 -0.6358 -0.9491
  130CHL1    C915843   1.841   6.334  14.187 -0.3269  0.0185  0.0138
  130CHL1    H915844   1.860   6.225  14.194  1.7943  0.2552 -1.2174
  130CHL1   C1015845   1.792   6.351  14.037  0.3983  0.0486  0.0952
  130CHL1   C1915846   1.826   6.494  13.988 -0.2499  0.7107  0.5379
  130CHL1  H19A15847   1.772   6.510  13.893  0.4753 -2.4936 -0.5640
  130CHL1  H19B15848   1.793   6.562  14.069  1.0901 -1.4235  3.0425
  130CHL1  H19C15849   1.933   6.514  13.970  0.1131 -1.6091 -0.2045
  130CHL1    C115850   1.883   6.256  13.949  0.2353 -0.1752  0.1534
  130CHL1   H1A15851   1.989   6.289  13.949  0.4211 -0.7076  1.7309
  130CHL1   H1B15852   1.871   6.155  13.995  0.8446 -0.8704 -1.1422
  130CHL1    C215853   1.834   6.236  13.805 -0.5855 -0.3468  0.1822
  130CHL1   H2A15854   1.901   6.163  13.755 -0.8613 -0.5575  0.1128
  130CHL1   H2B15855   1.846   6.325  13.739 -0.2941 -0.3067  0.2884
  130CHL1   C2015856   2.015   6.520  14.691 -0.1505  0.3190 -0.2543
  130CHL1   H2015857   2.033   6.616  14.639  2.9953 -1.1711 -2.2558
  130CHL1   C2115858   2.158   6.453  14.683 -0.2481 -0.4590 -0.2451
  130CHL1  H21A15859   2.160   6.353  14.730  0.5411  0.6996  2.3948
  130CHL1  H21B15860   2.228   6.519  14.739 -0.2926 -1.0427  0.5000
  130CHL1  H21C15861   2.199   6.443  14.580 -0.6836 -0.4220 -0.4239
  130CHL1   C2215862   1.978   6.558  14.838  0.0353  0.0562  0.0070
  130CHL1  H22A15863   2.035   6.634  14.895  1.8650 -1.5115  0.3629
  130CHL1  H22B15864   1.878   6.605  14.838  0.7473  1.6820  1.2037
  130CHL1   C2315865   1.972   6.445  14.929  0.7456 -0.2353  0.4894
  130CHL1  H23A15866   1.929   6.350  14.890 -1.0136 -0.2480  2.3120
  130CHL1  H23B15867   2.080   6.425  14.948  1.4343 -3.0684 -4.6398
  130CHL1   C2415868   1.891   6.472  15.058  0.0434  0.0326 -0.3693
  130CHL1  H24A15869   1.942   6.561  15.102 -1.0305  0.1582  0.6729
  130CHL1  H24B15870   1.785   6.492  15.032 -0.5282 -0.7071  1.2554
  130CHL1   C2515871   1.896   6.356  15.162  0.1192 -0.8360  0.6216
  130CHL1   H2515872   1.997   6.312  15.178  0.3571 -1.0766 -1.3732
  130CHL1   C2615873   1.840   6.404  15.302 -0.0400 -0.6687 -0.3512
  130CHL1  H26A15874   1.849   6.322  15.376 -0.6527  0.5412  1.1053
  130CHL1  H26B15875   1.903   6.490  15.331  0.2266 -0.4381 -1.5420
  130CHL1  H26C15876   1.733   6.433  15.292 -0.3430 -1.9632 -1.1532
  130CHL1   C2715877   1.826   6.230  15.125 -0.1089  0.1052  0.8538
  130CHL1  H27A15878   1.842   6.152  15.202  0.6257 -0.8250 -0.2286
  130CHL1  H27B15879   1.716   6.239  15.111 -0.1503 -0.0732  1.0615
  130CHL1  H27C15880   1.873   6.189  15.034 -0.1155  1.7277  0.0738
  131CHL1    C315881   0.712   6.380  13.984  0.2106 -0.6830 -0.5372
  131CHL1    H315882   0.705   6.482  13.939 -0.5777 -1.0379 -1.2320
  131CHL1    O315883   0.747   6.295  13.876  0.0186  0.0364 -0.1302
  131CHL1   H3'15884   0.751   6.206  13.913  0.6105 -0.0222 -0.3183
  131CHL1    C415885   0.830   6.377  14.076  0.4281 -0.7796 -0.5075
  131CHL1   H4A15886   0.850   6.276  14.116 -0.4169 -1.1675 -1.0348
  131CHL1   H4B15887   0.928   6.402  14.029 -0.1364  1.2680 -0.6798
  131CHL1    C515888   0.813   6.467  14.196 -0.5342 -0.3220 -0.0797
  131CHL1    C615889   0.888   6.583  14.212 -0.4909 -0.1849 -0.5050
  131CHL1    H615890   0.975   6.601  14.148  1.7248 -2.9316  1.4948
  131CHL1    C715891   0.866   6.671  14.331 -0.2568  0.7738 -0.1010
  131CHL1   H7A15892   0.963   6.694  14.381  0.7598  0.3196 -1.7768
  131CHL1   H7B15893   0.833   6.766  14.283 -0.5030  0.2582 -0.9839
  131CHL1    C815894   0.760   6.625  14.436  0.6707  0.2740 -1.1065
  131CHL1    H815895   0.816   6.558  14.504 -1.2651 -1.5542 -1.2047
  131CHL1   C1415896   0.705   6.752  14.518 -0.3064  0.4418  1.0254
  131CHL1   H1415897   0.645   6.817  14.451 -0.6889  0.2693  1.1967
  131CHL1   C1515898   0.804   6.852  14.575 -0.1953 -0.0703 -0.1449
  131CHL1  H15A15899   0.880   6.793  14.630  0.6528  3.6337  3.1075
  131CHL1  H15B15900   0.860   6.915  14.503  0.9645 -0.9835 -0.0606
  131CHL1   C1615901   0.717   6.938  14.671 -0.7289  0.1721  0.1304
  131CHL1  H16A15902   0.771   6.953  14.767  2.3470  0.0101 -1.4343
  131CHL1  H16B15903   0.694   7.035  14.623  0.7264  1.2650  1.5413
  131CHL1   C1715904   0.585   6.853  14.697 -0.7626 -0.8024 -0.5969
  131CHL1   H1715905   0.505   6.896  14.633 -1.5003 -1.0708  0.1200
  131CHL1   C1315906   0.612   6.714  14.626  0.2280 -0.5793 -0.1847
  131CHL1   C1815907   0.676   6.633  14.738  0.0155  0.3238  0.0129
  131CHL1  H18A15908   0.763   6.685  14.783  0.9772  0.5349 -1.9825
  131CHL1  H18B15909   0.600   6.607  14.815  0.8549 -0.9304  0.4543
  131CHL1  H18C15910   0.709   6.535  14.698 -1.7666 -0.4781  0.3893
  131CHL1   C1215911   0.492   6.638  14.563 -0.3896  0.5280 -0.4430
  131CHL1  H12A15912   0.422   6.621  14.647  1.6533  1.1401  1.4754
  131CHL1  H12B15913   0.437   6.704  14.491  0.4744  0.6837 -0.9727
  131CHL1   C1115914   0.536   6.514  14.480 -0.6101  0.5098  0.7323
  131CHL1  H11A15915   0.579   6.442  14.553  3.0618  2.1521  0.4068
  131CHL1  H11B15916   0.456   6.467  14.419  1.1470  0.0386 -1.3069
  131CHL1    C915917   0.648   6.545  14.375  0.2955  0.1925 -0.3418
  131CHL1    H915918   0.606   6.619  14.303  1.6266 -0.2036 -1.5734
  131CHL1   C1015919   0.693   6.428  14.284  0.6062 -0.0576  0.7040
  131CHL1   C1915920   0.718   6.308  14.374 -0.0776  0.1107 -0.8191
  131CHL1  H19A15921   0.622   6.278  14.422  0.6065  0.1093  0.6081
  131CHL1  H19B15922   0.758   6.219  14.321  1.1376  0.7765 -1.0437
  131CHL1  H19C15923   0.785   6.332  14.459 -1.2002 -1.7760  0.6801
  131CHL1    C115924   0.563   6.415  14.187 -0.0629  0.0829  0.6062
  131CHL1   H1A15925   0.483   6.361  14.241  1.4985 -2.8787  0.1311
  131CHL1   H1B15926   0.533   6.516  14.149 -0.5325 -0.6488 -1.0571
  131CHL1    C215927   0.588   6.331  14.057 -0.0509  0.7010  0.3502
  131CHL1   H2A15928   0.501   6.327  13.987  1.3278 -0.3483 -1.3814
  131CHL1   H2B15929   0.609   6.226  14.086 -1.7715  0.0336 -0.6623
  131CHL1   C2015930   0.525   6.859  14.840 -0.1440  0.2312  0.8183
  131CHL1   H2015931   0.588   6.799  14.909 -2.3941  1.3202  4.0596
  131CHL1   C2115932   0.382   6.798  14.845  0.7329  0.0376 -0.3520
  131CHL1  H21A15933   0.312   6.850  14.776  0.7654 -1.7530 -1.8142
  131CHL1  H21B15934   0.340   6.801  14.947  1.0437 -0.3767 -0.2114
  131CHL1  H21C15935   0.383   6.692  14.813  3.1641  0.4029 -1.7644
  131CHL1   C2215936   0.518   7.005  14.898 -0.1848 -0.7180 -0.0037
  131CHL1  H22A15937   0.609   7.065  14.877 -0.3736 -0.3561  0.1963
  131CHL1  H22B15938   0.431   7.051  14.846 -0.4925  0.5060  1.5207
  131CHL1   C2315939   0.496   7.025  15.054  0.2272 -0.1340 -0.1918
  131CHL1  H23A15940   0.398   6.977  15.075 -0.4277 -0.5407 -3.5834
  131CHL1  H23B15941   0.578   6.973  15.108 -1.1467 -1.7367  0.4416
  131CHL1   C2415942   0.496   7.174  15.085  0.1714 -0.0814  0.0056
  131CHL1  H24A15943   0.593   7.211  15.046 -0.6466  1.2579 -0.8424
  131CHL1  H24B15944   0.416   7.220  15.024 -0.3133 -0.2251  0.5211
  131CHL1   C2515945   0.488   7.198  15.235  0.7691 -0.1641 -0.0037
  131CHL1   H2515946   0.411   7.130  15.278  1.4883 -0.6278  0.5867
  131CHL1   C2615947   0.605   7.152  15.327  0.1579  0.1924 -0.4096
  131CHL1  H26A15948   0.637   7.047  15.309 -0.6227  0.0204 -0.8540
  131CHL1  H26B15949   0.697   7.208  15.300  1.6382 -2.5593 -1.4197
  131CHL1  H26C15950   0.568   7.164  15.431 -1.3139  1.9740 -1.0826
  131CHL1   C2715951   0.453   7.342  15.269  0.5247  0.2811 -0.3020
  131CHL1  H27A15952   0.426   7.354  15.376 -0.8156  0.6748 -0.6571
  131CHL1  H27B15953   0.528   7.413  15.229  2.7613 -1.4837  0.5398
  131CHL1  H27C15954   0.356   7.372  15.224 -1.0186 -0.4022  2.3512
  132CHL1    C315955   2.051   7.734  14.045  0.7274 -0.2040  0.4621
  132CHL1    H315956   2.111   7.640  14.040 -1.3547 -1.5752 -0.2576
  132CHL1    O315957   2.083   7.816  13.928 -0.0279 -0.4891 -0.2851
  132CHL1   H3'15958   2.039   7.786  13.849  1.8424  0.6336 -1.8380
  132CHL1    C415959   1.901   7.703  14.033  0.2400 -0.1389 -0.2789
  132CHL1   H4A15960   1.857   7.802  14.008 -2.9214 -0.2608  3.7428
  132CHL1   H4B15961   1.891   7.631  13.948  0.4285  0.2908 -0.6709
  132CHL1    C515962   1.833   7.650  14.157 -1.1683  0.2750 -0.0306
  132CHL1    C615963   1.763   7.536  14.157 -0.3930 -0.0984  0.3593
  132CHL1    H615964   1.736   7.483  14.064  1.4053  0.3467 -0.4661
  132CHL1    C715965   1.709   7.475  14.281 -0.0459 -0.2887  0.4271
  132CHL1   H7A15966   1.601   7.453  14.267  0.0802 -2.0520  1.7788
  132CHL1   H7B15967   1.772   7.384  14.290  1.4810  0.6313 -0.6227
  132CHL1    C815968   1.717   7.563  14.406  1.0852 -0.4822  0.2302
  132CHL1    H815969   1.630   7.632  14.405  0.8912 -0.7238 -1.3054
  132CHL1   C1415970   1.712   7.465  14.524  0.1040  0.0348 -0.0744
  132CHL1   H1415971   1.802   7.400  14.521 -1.5221 -2.2729 -3.1280
  132CHL1   C1515972   1.588   7.373  14.527  0.5076 -0.4004  0.4942
  132CHL1  H15A15973   1.501   7.432  14.491 -0.8472 -2.0771  0.8766
  132CHL1  H15B15974   1.595   7.283  14.462 -2.2403  1.6588 -3.0549
  132CHL1   C1615975   1.570   7.340  14.672  0.0441  0.4855 -0.2677
  132CHL1  H16A15976   1.479   7.378  14.724  1.6868  0.6115  2.7677
  132CHL1  H16B15977   1.591   7.232  14.686 -0.6035  0.3928  0.0466
  132CHL1   C1715978   1.680   7.422  14.755  0.0019  0.0792 -0.3819
  132CHL1   H1715979   1.778   7.371  14.766  0.8576  1.9085  1.0850
  132CHL1   C1315980   1.714   7.536  14.663 -0.2374 -0.4766  0.2319
  132CHL1   C1815981   1.602   7.635  14.668  0.7210 -0.5879  0.1408
  132CHL1  H18A15982   1.620   7.725  14.604 -3.0824 -0.5987 -1.2445
  132CHL1  H18B15983   1.499   7.594  14.661 -0.1673  1.3863  0.7879
  132CHL1  H18C15984   1.598   7.684  14.768 -1.9394  1.4671 -0.8231
  132CHL1   C1215985   1.859   7.592  14.669  0.8819 -0.1911 -0.0856
  132CHL1  H12A15986   1.873   7.633  14.771  1.8658 -0.4969 -0.0908
  132CHL1  H12B15987   1.928   7.506  14.657  1.2870 -0.3051  2.4454
  132CHL1   C1115988   1.884   7.692  14.556  0.0176  0.0475  0.1277
  132CHL1  H11A15989   1.824   7.785  14.571  0.4730  0.4105 -0.2885
  132CHL1  H11B15990   1.992   7.718  14.559 -0.0561  0.2950  0.9709
  132CHL1    C915991   1.857   7.631  14.407  0.1681 -0.1582  0.0692
  132CHL1    H915992   1.934   7.550  14.407 -0.9857 -1.3720  2.2707
  132CHL1   C1015993   1.884   7.724  14.287 -0.2287  0.4155  0.0311
  132CHL1   C1915994   1.789   7.847  14.316 -0.5988  0.3982 -0.0661
  132CHL1  H19A15995   1.834   7.908  14.397  1.5878  0.1428 -1.0396
  132CHL1  H19B15996   1.788   7.914  14.228 -0.6497  0.1558 -0.2491
  132CHL1  H19C15997   1.688   7.822  14.357 -0.5104  0.6399  0.3090
  132CHL1    C115998   2.033   7.759  14.293  0.4189  0.0408 -0.6780
  132CHL1   H1A15999   2.032   7.831  14.378 -3.0540  1.4536 -1.7427
  132CHL1   H1B16000   2.107   7.680  14.317  2.8045  2.3105 -0.0119
  132CHL1    C216001   2.080   7.829  14.165  0.0400  0.8818 -0.3294
  132CHL1   H2A16002   2.187   7.857  14.156  0.9602 -1.9195  0.7975
  132CHL1   H2B16003   2.036   7.930  14.153  1.2073  1.5039  0.3799
  132CHL1   C2016004   1.633   7.447  14.899 -0.6910 -0.1809 -0.2939
  132CHL1   H2016005   1.557   7.528  14.891  1.1283  1.4049 -2.5436
  132CHL1   C2116006   1.756   7.491  14.988 -0.0798 -0.3738  0.0856
  132CHL1  H21A16007   1.812   7.571  14.936 -0.8741  0.5209  0.5650
  132CHL1  H21B16008   1.827   7.408  15.007 -0.2509 -0.3426  0.9002
  132CHL1  H21C16009   1.737   7.523  15.093  1.1788 -0.8848  0.4873
  132CHL1   C2216010   1.571   7.319  14.969 -0.1847  0.5372  0.5993
  132CHL1  H22A16011   1.538   7.248  14.890 -0.3232  1.5969 -0.3250
  132CHL1  H22B16012   1.646   7.261  15.026  0.3877 -1.3905 -1.9281
  132CHL1   C2316013   1.449   7.344  15.062 -0.0744  0.5987  0.1148
  132CHL1  H23A16014   1.367   7.387  15.000 -0.0614 -0.1409 -0.4323
  132CHL1  H23B16015   1.415   7.246  15.102  3.1529 -0.2327  1.1407
  132CHL1   C2416016   1.487   7.436  15.174  0.5511 -0.6561 -1.1604
  132CHL1  H24A16017   1.572   7.398  15.233  0.8624 -0.6900 -1.6281
  132CHL1  H24B16018   1.513   7.534  15.129 -1.4689  0.7220  0.4605
  132CHL1   C2516019   1.369   7.472  15.269 -0.7768 -0.3485  0.9347
  132CHL1   H2516020   1.317   7.384  15.311 -2.1553 -0.1654 -0.3182
  132CHL1   C2616021   1.443   7.549  15.392  0.8069 -0.0459  0.1593
  132CHL1  H26A16022   1.517   7.482  15.442 -0.3769 -0.6626  1.1386
  132CHL1  H26B16023   1.488   7.646  15.363  1.9591 -0.5036  0.3398
  132CHL1  H26C16024   1.358   7.564  15.461  0.8563  1.0267 -0.0048
  132CHL1   C2716025   1.261   7.559  15.199  0.4608  0.5280 -0.1503
  132CHL1  H27A16026   1.311   7.643  15.146  0.0572 -0.2329 -1.8357
  132CHL1  H27B16027   1.228   7.492  15.117  0.2495 -0.8899  1.0664
  132CHL1  H27C16028   1.174   7.594  15.258  1.1352  1.8160  0.1115
  133CHL1    C316029   0.308   3.184  14.057  0.3735 -0.1236  0.6932
  133CHL1    H316030   0.237   3.269  14.072 -0.2918 -0.0715 -2.2767
  133CHL1    O316031   0.366   3.199  13.933  0.0876 -0.1968 -0.2625
  133CHL1   H3'16032   0.399   3.111  13.912 -0.6365 -1.6126  3.7876
  133CHL1    C416033   0.416   3.190  14.164 -0.0069 -0.2647  0.6207
  133CHL1   H4A16034   0.486   3.110  14.132 -0.5758  0.0196 -1.4971
  133CHL1   H4B16035   0.455   3.293  14.157 -0.5160 -0.0985  0.0919
  133CHL1    C516036   0.367   3.171  14.300 -0.2500  0.7062 -0.3341
  133CHL1    C616037   0.384   3.264  14.397  0.2034 -0.5710  0.1556
  133CHL1    H616038   0.435   3.358  14.374  0.2816  0.0634  2.7135
  133CHL1    C716039   0.342   3.238  14.540  0.0182 -1.0935  0.0110
  133CHL1   H7A16040   0.421   3.268  14.612 -2.0471  0.0221  1.9640
  133CHL1   H7B16041   0.254   3.296  14.576  0.9580  0.2947  0.1277
  133CHL1    C816042   0.307   3.085  14.563 -0.5259  0.4095  0.2558
  133CHL1    H816043   0.405   3.035  14.550 -0.2507  0.6959  1.1772
  133CHL1   C1416044   0.246   3.063  14.698 -1.0802  0.0067 -0.5199
  133CHL1   H1416045   0.154   3.124  14.702 -0.6424  0.6517  0.1411
  133CHL1   C1516046   0.336   3.101  14.815  0.3878  0.3056  0.0484
  133CHL1  H15A16047   0.440   3.070  14.791  0.5463  0.5973  0.3581
  133CHL1  H15B16048   0.338   3.210  14.835  0.1960  0.0636  1.4838
  133CHL1   C1616049   0.282   3.028  14.935 -0.3418  0.2716 -0.8170
  133CHL1  H16A16050   0.367   2.970  14.976 -0.5443  0.1597 -0.5551
  133CHL1  H16B16051   0.233   3.085  15.016 -1.8850  0.6199 -1.9483
  133CHL1   C1716052   0.173   2.932  14.881 -0.2540  0.2507  0.2694
  133CHL1   H1716053   0.074   2.981  14.890 -0.4314  0.0349 -0.4364
  133CHL1   C1316054   0.208   2.922  14.733  0.3113 -0.2417  0.0704
  133CHL1   C1816055   0.326   2.830  14.715 -0.5178 -0.1475 -0.3132
  133CHL1  H18A16056   0.304   2.723  14.734  1.0147 -0.1342  1.9972
  133CHL1  H18B16057   0.380   2.845  14.619  1.1910  0.7393  0.7216
  133CHL1  H18C16058   0.406   2.851  14.790  0.8019  1.4032 -2.0559
  133CHL1   C1216059   0.095   2.895  14.634  0.2228  0.1562 -1.6060
  133CHL1  H12A16060   0.057   2.791  14.645 -1.0715  0.6357 -1.3514
  133CHL1  H12B16061   0.014   2.970  14.645 -0.4472 -0.3631 -2.8401
  133CHL1   C1116062   0.136   2.904  14.492 -0.2765 -0.3260 -0.2812
  133CHL1  H11A16063   0.216   2.828  14.479  2.0108  1.2151  3.2666
  133CHL1  H11B16064   0.046   2.889  14.429 -0.6855  2.1889 -0.4015
  133CHL1    C916065   0.209   3.039  14.451  0.3397 -0.1614  0.1271
  133CHL1    H916066   0.135   3.121  14.450  0.8900  0.4045  1.7343
  133CHL1   C1016067   0.277   3.038  14.310 -0.2711  0.3426 -0.4541
  133CHL1   C1916068   0.372   2.914  14.293 -0.1194  0.7580  0.2239
  133CHL1  H19A16069   0.459   2.909  14.363 -0.6998  0.5546  0.9365
  133CHL1  H19B16070   0.318   2.818  14.286  2.1899 -0.5384 -1.3035
  133CHL1  H19C16071   0.419   2.919  14.192  1.0603  1.6390  0.7788
  133CHL1    C116072   0.173   3.038  14.198  0.4593  0.1217 -0.1308
  133CHL1   H1A16073   0.119   2.940  14.203  0.8896 -0.0676  3.2533
  133CHL1   H1B16074   0.092   3.113  14.208 -0.6897 -1.2038  1.0125
  133CHL1    C216075   0.223   3.052  14.054 -0.4881 -0.2538 -0.6720
  133CHL1   H2A16076   0.131   3.074  13.996 -1.0379  1.7239  0.8010
  133CHL1   H2B16077   0.281   2.964  14.020 -1.3017 -1.0254 -0.1093
  133CHL1   C2016078   0.148   2.800  14.961  0.0827 -0.6566 -0.2261
  133CHL1   H2016079   0.250   2.760  14.977  0.6942  0.5924 -0.8267
  133CHL1   C2116080   0.058   2.700  14.883  0.3353  0.1223 -0.5973
  133CHL1  H21A16081  -0.032   2.749  14.839  0.5852  0.1818 -1.0540
  133CHL1  H21B16082   0.024   2.616  14.947 -0.0644 -0.4666 -1.5441
  133CHL1  H21C16083   0.118   2.652  14.802  1.7684  1.0352 -0.0934
  133CHL1   C2216084   0.083   2.827  15.100 -0.3847  0.6516 -0.1572
  133CHL1  H22A16085   0.125   2.920  15.143  0.4070  1.2318 -2.0848
  133CHL1  H22B16086  -0.025   2.839  15.078 -1.0328  0.5342  2.5568
  133CHL1   C2316087   0.111   2.704  15.195  0.0006  0.0464 -0.2497
  133CHL1  H23A16088   0.068   2.613  15.146  1.8934 -1.1250  0.1625
  133CHL1  H23B16089   0.220   2.685  15.196  0.0624  0.4106  1.0568
  133CHL1   C2416090   0.056   2.723  15.339 -0.2291  0.0227 -0.1173
  133CHL1  H24A16091   0.110   2.810  15.384 -1.3594  0.5648  0.2320
  133CHL1  H24B16092  -0.050   2.753  15.326 -1.4620 -2.5793  2.6142
  133CHL1   C2516093   0.072   2.593  15.422  0.4499 -0.4975  0.4060
  133CHL1   H2516094   0.034   2.511  15.357  0.4593 -0.1339 -0.0675
  133CHL1   C2616095   0.221   2.583  15.451  0.1886  0.3414 -0.3985
  133CHL1  H26A16096   0.261   2.686  15.467 -0.7567  1.1690 -2.8953
  133CHL1  H26B16097   0.243   2.526  15.544 -1.2652 -1.8751 -1.3500
  133CHL1  H26C16098   0.283   2.541  15.369  1.0743 -1.4686  1.1308
  133CHL1   C2716099  -0.021   2.594  15.541  0.0614 -0.1391  0.4960
  133CHL1  H27A16100  -0.015   2.504  15.605 -0.7319  0.6049  1.6614
  133CHL1  H27B16101  -0.010   2.679  15.612 -2.4486  0.0198  0.7742
  133CHL1  H27C16102  -0.121   2.585  15.494  0.5025  0.7657 -0.6786
  134CHL1    C316103   5.951   3.376  14.021 -0.3898  0.5028 -0.4269
  134CHL1    H316104   5.925   3.276  14.062  2.5514 -0.2567 -0.1952
  134CHL1    O316105   5.970   3.361  13.883 -0.1980 -0.3885 -0.3305
  134CHL1   H3'16106   6.022   3.434  13.850 -1.3188 -0.2822 -1.9509
  134CHL1    C416107   5.849   3.484  14.053 -0.3475  0.0324  0.6574
  134CHL1   H4A16108   5.862   3.570  13.984  1.0794  0.0018  0.8597
  134CHL1   H4B16109   5.754   3.440  14.016  0.1419 -1.0539  0.6572
  134CHL1    C516110   5.845   3.541  14.193 -0.3019  0.0330  0.3034
  134CHL1    C616111   5.731   3.536  14.263 -0.3220  0.1623 -0.8871
  134CHL1    H616112   5.642   3.497  14.212 -0.3929 -0.1611 -0.5257
  134CHL1    C716113   5.720   3.582  14.404  0.0982 -0.1016  0.0613
  134CHL1   H7A16114   5.638   3.657  14.403  0.9842  0.8866 -0.8158
  134CHL1   H7B16115   5.702   3.498  14.474  0.6222  1.3483  2.0000
  134CHL1    C816116   5.848   3.664  14.452  0.5767 -0.4314  0.1241
  134CHL1    H816117   5.845   3.760  14.396  1.0593 -1.7648 -2.3225
  134CHL1   C1416118   5.840   3.675  14.604  0.3815  0.3177  0.1625
  134CHL1   H1416119   5.841   3.568  14.632 -3.2727  0.6154  2.0370
  134CHL1   C1516120   5.718   3.734  14.679  0.9087  0.2003  0.3163
  134CHL1  H15A16121   5.674   3.815  14.616 -0.9244 -0.4937  0.6397
  134CHL1  H15B16122   5.646   3.650  14.691 -1.4034  1.9863 -0.2102
  134CHL1   C1616123   5.769   3.774  14.814  0.0512 -0.3307 -0.4938
  134CHL1  H16A16124   5.751   3.883  14.827  1.5010 -0.1234 -0.0722
  134CHL1  H16B16125   5.721   3.719  14.898  3.0800 -0.8235  1.0808
  134CHL1   C1716126   5.921   3.733  14.813  0.1326  0.1929  0.0794
  134CHL1   H1716127   5.925   3.624  14.837 -0.7252  0.1614  0.1203
  134CHL1   C1316128   5.962   3.740  14.663 -0.5198  0.4426 -0.3674
  134CHL1   C1816129   5.980   3.883  14.609  0.3303 -0.4694 -0.0924
  134CHL1  H18A16130   5.886   3.941  14.604 -0.3603 -1.6421 -1.2743
  134CHL1  H18B16131   6.048   3.936  14.680  1.4140 -1.0465 -0.6684
  134CHL1  H18C16132   6.022   3.879  14.506  0.1960  0.8904 -0.2260
  134CHL1   C1216133   6.096   3.662  14.624  0.2596 -0.4847  0.0564
  134CHL1  H12A16134   6.174   3.725  14.671 -0.6024 -0.6722  1.8421
  134CHL1  H12B16135   6.108   3.562  14.671 -0.5185 -0.3647  0.5347
  134CHL1   C1116136   6.113   3.646  14.469 -0.0785 -0.0542 -0.1248
  134CHL1  H11A16137   6.136   3.744  14.422  1.3286 -0.9800 -1.4883
  134CHL1  H11B16138   6.203   3.583  14.452  1.4251  2.0131 -0.1795
  134CHL1    C916139   5.983   3.589  14.408 -0.1100  0.3063  0.3761
  134CHL1    H916140   5.978   3.493  14.463 -0.2228  0.2383  0.2446
  134CHL1   C1016141   5.982   3.570  14.250 -0.5559 -0.2961  0.2552
  134CHL1   C1916142   6.037   3.699  14.177 -0.1779 -0.1713 -0.0000
  134CHL1  H19A16143   5.972   3.786  14.202 -1.7203 -0.7235 -1.8313
  134CHL1  H19B16144   6.141   3.725  14.208 -0.4385  0.8837  0.0357
  134CHL1  H19C16145   6.034   3.684  14.067  0.5246  0.0111 -0.0518
  134CHL1    C116146   6.080   3.454  14.217 -0.1241  0.0896 -0.2788
  134CHL1   H1A16147   6.183   3.481  14.250 -0.5350 -1.7189  2.9310
  134CHL1   H1B16148   6.065   3.361  14.276  0.2779  1.3002  1.8169
  134CHL1    C216149   6.092   3.414  14.067 -0.2539 -0.0200  0.0771
  134CHL1   H2A16150   6.152   3.322  14.053 -0.6158 -0.2962  0.3057
  134CHL1   H2B16151   6.135   3.498  14.009  1.0321 -0.3512  0.5262
  134CHL1   C2016152   6.012   3.795  14.921  0.3052 -0.3745 -0.5781
  134CHL1   H2016153   6.118   3.811  14.891 -0.6296  2.2884 -2.9025
  134CHL1   C2116154   6.019   3.709  15.047 -0.5133  0.1801 -0.4628
  134CHL1  H21A16155   6.095   3.746  15.119  3.0954  0.5974 -4.1018
  134CHL1  H21B16156   6.050   3.605  15.022 -2.4699 -1.0059  1.7139
  134CHL1  H21C16157   5.914   3.692  15.078 -0.3027 -3.0120 -1.0943
  134CHL1   C2216158   5.979   3.948  14.952 -0.2868  1.0032 -0.2891
  134CHL1  H22A16159   5.961   3.990  14.851 -0.9116 -1.6204 -1.3641
  134CHL1  H22B16160   5.881   3.954  15.005 -1.3504 -2.4543 -1.5485
  134CHL1   C2316161   6.094   4.023  15.020  0.6510 -0.4250  0.9787
  134CHL1  H23A16162   6.100   3.990  15.126 -0.8500  0.2427  1.2921
  134CHL1  H23B16163   6.190   3.991  14.975  0.4778 -0.9201  0.9494
  134CHL1   C2416164   6.088   4.173  14.995 -0.0592  0.2562 -0.0817
  134CHL1  H24A16165   6.097   4.190  14.886 -1.6007  1.3367 -0.0726
  134CHL1  H24B16166   5.992   4.222  15.022 -0.1288  0.8472 -1.3389
  134CHL1   C2516167   6.208   4.247  15.068  0.1294  0.2935 -0.0008
  134CHL1   H2516168   6.218   4.206  15.171  2.3018  2.0972  0.5944
  134CHL1   C2616169   6.338   4.221  14.992 -0.4238  0.2768  0.7185
  134CHL1  H26A16170   6.324   4.254  14.887 -0.0731 -1.0149  0.2475
  134CHL1  H26B16171   6.422   4.272  15.045 -0.7941  0.2401  1.3553
  134CHL1  H26C16172   6.351   4.110  14.998 -0.9000  0.2025  0.3800
  134CHL1   C2716173   6.197   4.397  15.080 -0.1389 -0.6143 -0.0507
  134CHL1  H27A16174   6.195   4.451  14.982  0.5190  0.4587  0.5133
  134CHL1  H27B16175   6.103   4.425  15.131  0.1868 -0.0800  0.2651
  134CHL1  H27C16176   6.284   4.434  15.138 -1.1997 -0.7240  1.6656
  135CHL1    C316177   5.333   3.728  14.044  0.4676 -0.0449  0.0132
  135CHL1    H316178   5.441   3.701  14.049  0.6384  0.6325  0.1366
  135CHL1    O316179   5.282   3.711  13.912  0.3614  0.1898  0.1397
  135CHL1   H3'16180   5.196   3.754  13.907  0.2624 -0.1144 -0.9828
  135CHL1    C416181   5.238   3.643  14.133 -0.1409 -0.7845 -0.3044
  135CHL1   H4A16182   5.133   3.670  14.106 -0.8110 -0.6862  2.1760
  135CHL1   H4B16183   5.260   3.541  14.094 -1.5811 -0.1764 -2.9960
  135CHL1    C516184   5.257   3.669  14.282 -0.3484  0.1562 -0.1483
  135CHL1    C616185   5.273   3.578  14.377  0.1732  1.1000  0.0706
  135CHL1    H616186   5.272   3.471  14.350  1.7803  1.1176 -0.1161
  135CHL1    C716187   5.307   3.594  14.521 -0.4501  0.7773  0.2230
  135CHL1   H7A16188   5.274   3.520  14.596  0.8691 -0.0157  0.0502
  135CHL1   H7B16189   5.416   3.573  14.527 -0.6683 -0.7266 -0.5459
  135CHL1    C816190   5.279   3.733  14.571 -1.1224 -0.5422 -0.6031
  135CHL1    H816191   5.168   3.734  14.580 -1.0088  1.8346  1.9238
  135CHL1   C1416192   5.350   3.761  14.704  0.1028 -1.2599 -0.1490
  135CHL1   H1416193   5.460   3.756  14.686  0.2545  2.0409 -0.7886
  135CHL1   C1516194   5.339   3.662  14.827  0.0442  0.1218  0.5541
  135CHL1  H15A16195   5.238   3.619  14.841  0.8045 -1.9137  0.1208
  135CHL1  H15B16196   5.399   3.569  14.812 -2.8112 -1.9150  1.0820
  135CHL1   C1616197   5.368   3.748  14.950  0.4069 -0.2888  0.0329
  135CHL1  H16A16198   5.285   3.751  15.024  0.0728 -2.1805 -0.2159
  135CHL1  H16B16199   5.454   3.722  15.015  0.5387 -1.6526 -0.6519
  135CHL1   C1716200   5.400   3.894  14.901  0.7121  0.2070  0.0026
  135CHL1   H1716201   5.506   3.901  14.869  0.8144 -0.0062  0.2842
  135CHL1   C1316202   5.321   3.900  14.767 -0.6552  0.5360  0.0721
  135CHL1   C1816203   5.168   3.916  14.791 -0.1966  0.2532 -0.1009
  135CHL1  H18A16204   5.103   3.912  14.701 -3.4749  0.0845  2.1008
  135CHL1  H18B16205   5.147   3.836  14.866  0.6804  1.0444  1.0267
  135CHL1  H18C16206   5.157   4.014  14.843 -1.6211 -0.4822  1.0623
  135CHL1   C1216207   5.369   4.005  14.665  0.4928 -0.2682 -0.0862
  135CHL1  H12A16208   5.349   4.109  14.699  1.5362  0.0564 -0.4276
  135CHL1  H12B16209   5.480   3.998  14.661  0.5770  0.5617  0.4554
  135CHL1   C1116210   5.302   3.983  14.528  0.6588  0.1038  0.4372
  135CHL1  H11A16211   5.193   3.997  14.545  0.9318  0.5569  2.0133
  135CHL1  H11B16212   5.337   4.061  14.457 -0.9482  1.3410  0.9291
  135CHL1    C916213   5.324   3.846  14.471  0.0422 -0.5159 -0.3876
  135CHL1    H916214   5.433   3.842  14.450 -0.0487 -0.3686 -0.8883
  135CHL1   C1016215   5.259   3.818  14.325 -0.2533 -0.1427 -0.4539
  135CHL1   C1916216   5.111   3.877  14.321  0.3098  0.1754 -0.2961
  135CHL1  H19A16217   5.060   3.837  14.411 -0.9935  1.3273 -0.4887
  135CHL1  H19B16218   5.099   3.985  14.345  2.5476 -0.1153  2.7986
  135CHL1  H19C16219   5.058   3.830  14.235  0.4124 -1.4187  0.4811
  135CHL1    C116220   5.342   3.896  14.218 -0.2318  0.1469  0.0518
  135CHL1   H1A16221   5.334   4.006  14.233 -0.8883  0.1265 -0.1139
  135CHL1   H1B16222   5.449   3.874  14.236  0.6064  2.1698 -1.9872
  135CHL1    C216223   5.311   3.877  14.071  0.0280 -0.6212 -0.2175
  135CHL1   H2A16224   5.380   3.933  14.004  0.7479  0.2258  1.1843
  135CHL1   H2B16225   5.208   3.915  14.058  0.2493 -0.3513 -1.2438
  135CHL1   C2016226   5.379   4.012  14.999 -0.0190 -0.0484  0.3009
  135CHL1   H2016227   5.369   4.105  14.939 -0.1325  1.3766  2.3872
  135CHL1   C2116228   5.511   4.031  15.080  0.4406  0.0038  0.8554
  135CHL1  H21A16229   5.578   4.088  15.012  0.3115  0.0785  0.7891
  135CHL1  H21B16230   5.551   3.930  15.103 -2.8587 -1.6082  0.1196
  135CHL1  H21C16231   5.497   4.094  15.171  1.7616 -1.0736  1.8491
  135CHL1   C2216232   5.265   4.002  15.103 -0.2176 -0.1390  0.2067
  135CHL1  H22A16233   5.184   3.951  15.048 -1.7942  2.1818  0.2284
  135CHL1  H22B16234   5.304   3.939  15.186 -0.9018 -0.8112  0.0287
  135CHL1   C2316235   5.218   4.141  15.160 -0.6114  0.1959  0.0112
  135CHL1  H23A16236   5.306   4.182  15.215  0.1676 -0.3352 -0.7996
  135CHL1  H23B16237   5.199   4.208  15.073 -0.3103 -1.3655 -1.2947
  135CHL1   C2416238   5.095   4.130  15.251 -0.2683  0.4663  0.2469
  135CHL1  H24A16239   5.009   4.084  15.197 -0.6549 -1.4519  2.3655
  135CHL1  H24B16240   5.113   4.050  15.326  1.1385 -0.0363 -0.5951
  135CHL1   C2516241   5.048   4.278  15.292 -0.0083  0.9614 -0.5556
  135CHL1   H2516242   5.029   4.332  15.197  0.1983  1.1464 -0.4933
  135CHL1   C2616243   4.916   4.269  15.372  0.0818 -0.0096 -0.3187
  135CHL1  H26A16244   4.935   4.210  15.465 -3.1802  0.5680  0.8236
  135CHL1  H26B16245   4.882   4.367  15.409 -2.6521 -0.6693 -0.8899
  135CHL1  H26C16246   4.836   4.227  15.308  0.0875  0.4138 -0.6043
  135CHL1   C2716247   5.143   4.368  15.377  1.0669  0.1650 -0.0770
  135CHL1  H27A16248   5.163   4.320  15.476 -3.3496 -0.4867  0.7195
  135CHL1  H27B16249   5.240   4.391  15.328  1.0620  0.2244 -0.0588
  135CHL1  H27C16250   5.090   4.463  15.399  0.0576 -0.1512 -1.0631
  136CHL1    C316251   5.355   1.104  14.133 -0.2922  0.4694  0.4107
  136CHL1    H316252   5.321   0.999  14.146 -1.4347  1.0347  2.3213
  136CHL1    O316253   5.410   1.116  14.003 -0.3336  0.3975 -0.0567
  136CHL1   H3'16254   5.422   1.209  13.981  1.3758  0.6051  1.4481
  136CHL1    C416255   5.222   1.183  14.140 -0.6223  0.2196  0.9703
  136CHL1   H4A16256   5.232   1.293  14.134 -0.3809  0.3289  2.7520
  136CHL1   H4B16257   5.153   1.161  14.056 -2.1165 -0.3335  2.2835
  136CHL1    C516258   5.145   1.175  14.267  0.4229  0.9770 -0.2609
  136CHL1    C616259   5.019   1.132  14.265  0.4527  0.4615  0.0943
  136CHL1    H616260   4.961   1.099  14.178 -1.2141  0.3467  1.1949
  136CHL1    C716261   4.935   1.120  14.399  0.5647 -0.2860  0.1169
  136CHL1   H7A16262   4.839   1.176  14.399 -0.6376 -2.2275 -0.6607
  136CHL1   H7B16263   4.920   1.016  14.435 -1.9015  0.6879  2.2336
  136CHL1    C816264   5.010   1.197  14.514 -0.2537 -0.5409 -0.8146
  136CHL1    H816265   5.004   1.306  14.491  1.1835 -0.5353 -1.2526
  136CHL1   C1416266   4.949   1.165  14.645  0.0590 -0.6965  0.4323
  136CHL1   H1416267   4.959   1.056  14.664 -2.4637 -1.1539 -0.4114
  136CHL1   C1516268   4.801   1.202  14.662  1.3183 -0.5069 -0.4009
  136CHL1  H15A16269   4.766   1.302  14.629 -0.7306 -0.5897  1.2222
  136CHL1  H15B16270   4.740   1.115  14.626 -1.1852  0.1227  1.9068
  136CHL1   C1616271   4.784   1.205  14.819 -0.0380 -0.3240  0.5188
  136CHL1  H16A16272   4.747   1.308  14.838 -1.2748 -0.6346 -0.0866
  136CHL1  H16B16273   4.712   1.126  14.851 -2.3535  0.6280 -1.9114
  136CHL1   C1716274   4.920   1.185  14.882 -0.7019  0.4581  0.3525
  136CHL1   H1716275   4.936   1.075  14.892  2.4348  0.5122 -2.1704
  136CHL1   C1316276   5.011   1.234  14.768 -0.6736  0.1199  0.6749
  136CHL1   C1816277   5.012   1.392  14.764  0.1441 -0.0146  0.8426
  136CHL1  H18A16278   5.074   1.433  14.682  0.2394 -1.6339  0.0487
  136CHL1  H18B16279   4.910   1.434  14.756 -0.5393 -1.4939  1.2949
  136CHL1  H18C16280   5.063   1.411  14.861  1.2886 -1.7549  0.6389
  136CHL1   C1216281   5.154   1.180  14.776  0.1403  0.1428  0.9429
  136CHL1  H12A16282   5.192   1.229  14.868 -1.9708  1.3993  1.1959
  136CHL1  H12B16283   5.140   1.071  14.793 -0.4486  0.1525  0.5509
  136CHL1   C1116284   5.236   1.196  14.650  0.1121  0.5689  0.1539
  136CHL1  H11A16285   5.256   1.306  14.652  0.4710  0.5442  3.1968
  136CHL1  H11B16286   5.332   1.139  14.654  0.6117  1.4196  0.7451
  136CHL1    C916287   5.159   1.160  14.518 -0.0824 -0.6263 -0.2840
  136CHL1    H916288   5.146   1.050  14.513 -0.5420 -0.5111 -3.8535
  136CHL1   C1016289   5.231   1.203  14.387 -0.2221 -0.1936 -0.8793
  136CHL1   C1916290   5.265   1.358  14.397 -0.8011 -0.0478  0.3284
  136CHL1  H19A16291   5.175   1.423  14.393 -0.7934 -0.0781 -1.9732
  136CHL1  H19B16292   5.331   1.384  14.481  0.0721 -0.6993 -0.1427
  136CHL1  H19C16293   5.319   1.393  14.306 -3.8182  1.3340 -1.1067
  136CHL1    C116294   5.370   1.125  14.381  0.7886 -0.1579  0.2816
  136CHL1   H1A16295   5.437   1.163  14.461 -0.3654  0.9992  0.7386
  136CHL1   H1B16296   5.356   1.016  14.398 -0.0949 -0.1597 -0.4022
  136CHL1    C216297   5.449   1.147  14.247  0.1994  1.0135 -0.2188
  136CHL1   H2A16298   5.538   1.082  14.261 -1.3860 -1.2059  0.1471
  136CHL1   H2B16299   5.483   1.253  14.238  2.9049  0.3983  1.5602
  136CHL1   C2016300   4.940   1.242  15.023  0.5612 -0.4660 -0.4694
  136CHL1   H2016301   4.987   1.343  15.019  0.1604 -0.3056 -1.2625
  136CHL1   C2116302   5.032   1.149  15.113  0.9443  0.3116 -0.5867
  136CHL1  H21A16303   4.998   1.044  15.106  0.8469  0.3051 -0.0348
  136CHL1  H21B16304   5.032   1.173  15.221  1.3525 -2.6762  0.1503
  136CHL1  H21C16305   5.136   1.141  15.076 -0.4881 -2.8768 -4.8346
  136CHL1   C2216306   4.810   1.268  15.099  0.9953  0.3581 -0.1361
  136CHL1  H22A16307   4.746   1.336  15.039 -0.4771  0.2197  1.2082
  136CHL1  H22B16308   4.755   1.172  15.112 -1.0312  1.3443 -0.9067
  136CHL1   C2316309   4.834   1.342  15.239  0.2134 -0.4355  0.8582
  136CHL1  H23A16310   4.866   1.260  15.307  1.0559 -1.1116 -0.3171
  136CHL1  H23B16311   4.915   1.418  15.227 -2.2059  2.0255 -1.1175
  136CHL1   C2416312   4.706   1.399  15.297  0.8994 -0.0230  0.5534
  136CHL1  H24A16313   4.655   1.456  15.217  1.2717 -0.6611 -0.1496
  136CHL1  H24B16314   4.652   1.307  15.327  0.1751  0.7204  1.6211
  136CHL1   C2516315   4.731   1.488  15.422  0.1622  0.6572 -0.0830
  136CHL1   H2516316   4.807   1.562  15.389 -0.6586  1.3054 -0.5754
  136CHL1   C2616317   4.607   1.563  15.466  0.5809 -0.5899 -0.6868
  136CHL1  H26A16318   4.637   1.623  15.554  0.6073 -1.2347 -0.2537
  136CHL1  H26B16319   4.551   1.615  15.385 -0.7787  0.6101  0.9561
  136CHL1  H26C16320   4.537   1.480  15.488  2.3326 -2.7879 -2.7979
  136CHL1   C2716321   4.795   1.415  15.539 -0.0600  0.0138 -0.3757
  136CHL1  H27A16322   4.814   1.490  15.618 -0.7815 -1.0373  0.8495
  136CHL1  H27B16323   4.727   1.334  15.573  0.7065 -0.6623 -0.4207
  136CHL1  H27C16324   4.894   1.374  15.510  0.4584  1.5949 -0.9447
  137CHL1    C316325   8.197   2.976  13.630 -0.4837  0.7735 -0.5393
  137CHL1    H316326   8.205   2.867  13.606 -1.9781  0.2326  1.1895
  137CHL1    O316327   8.200   3.056  13.514  0.2255  0.1218 -0.2875
  137CHL1   H3'16328   8.164   3.137  13.551 -0.4379 -0.5535  0.6025
  137CHL1    C416329   8.076   3.004  13.713  0.2944 -0.4398 -0.2284
  137CHL1   H4A16330   8.076   3.110  13.749 -0.5104 -0.9463  1.3778
  137CHL1   H4B16331   7.988   3.007  13.646 -0.5638 -0.0251  0.8669
  137CHL1    C516332   8.061   2.903  13.825  0.8228  0.5252 -0.1157
  137CHL1    C616333   7.957   2.816  13.826 -0.4447  0.9202  0.2012
  137CHL1    H616334   7.878   2.819  13.749  3.0389 -2.3193 -4.0238
  137CHL1    C716335   7.953   2.703  13.929  0.0414 -0.6432 -0.0175
  137CHL1   H7A16336   7.846   2.692  13.958  0.6223 -2.4805  1.6721
  137CHL1   H7B16337   7.997   2.616  13.876  1.2569 -0.0456 -0.0280
  137CHL1    C816338   8.040   2.749  14.055 -0.2928 -0.1185  0.1781
  137CHL1    H816339   7.997   2.841  14.101  0.7353  0.5641 -0.2020
  137CHL1   C1416340   8.043   2.636  14.162  0.0384 -0.5665  0.3401
  137CHL1   H1416341   8.087   2.553  14.103  0.0365 -1.8928  2.1281
  137CHL1   C1516342   7.910   2.580  14.222  0.3106 -0.9989 -0.3012
  137CHL1  H15A16343   7.858   2.670  14.260 -0.2737 -2.0099  1.4700
  137CHL1  H15B16344   7.840   2.531  14.151 -1.5032  2.0908 -0.7889
  137CHL1   C1616345   7.964   2.489  14.332  0.0957 -0.5039  0.1411
  137CHL1  H16A16346   7.907   2.511  14.424 -0.1723 -0.0193 -0.1346
  137CHL1  H16B16347   7.939   2.382  14.313  0.8116 -0.7950  0.7790
  137CHL1   C1716348   8.114   2.523  14.355  0.4469  0.1673 -0.5278
  137CHL1   H1716349   8.167   2.441  14.301 -2.4236 -0.7342 -2.2098
  137CHL1   C1316350   8.138   2.658  14.275 -0.5416 -0.1656 -0.8084
  137CHL1   C1816351   8.095   2.783  14.355  0.3227  0.1723 -0.0145
  137CHL1  H18A16352   8.017   2.749  14.427  1.3301 -2.8828 -0.2456
  137CHL1  H18B16353   8.182   2.826  14.410  2.8794 -0.9522 -2.9057
  137CHL1  H18C16354   8.047   2.870  14.306  0.2708 -1.0264 -2.1729
  137CHL1   C1216355   8.276   2.669  14.221 -0.0719 -0.4865 -0.1987
  137CHL1  H12A16356   8.357   2.684  14.297  2.5326 -1.0975 -2.6808
  137CHL1  H12B16357   8.312   2.575  14.173 -0.8926 -1.2622  0.6558
  137CHL1   C1116358   8.290   2.790  14.128 -0.1384  0.4486  0.6685
  137CHL1  H11A16359   8.278   2.880  14.193 -0.2944  0.0062  1.2572
  137CHL1  H11B16360   8.391   2.789  14.081 -0.4782 -0.2575 -0.0652
  137CHL1    C916361   8.189   2.784  14.009  0.5744 -0.4165  0.0294
  137CHL1    H916362   8.223   2.697  13.949 -1.5523 -1.0370 -0.3648
  137CHL1   C1016363   8.184   2.910  13.918  0.8582  0.0685 -0.2458
  137CHL1   C1916364   8.185   3.036  14.007  0.4237  0.2439  0.3712
  137CHL1  H19A16365   8.104   3.039  14.083 -0.8906  2.1397 -0.9994
  137CHL1  H19B16366   8.276   3.063  14.065  1.0393  1.5302 -1.1293
  137CHL1  H19C16367   8.157   3.130  13.956 -0.0820 -0.7746 -1.2923
  137CHL1    C116368   8.316   2.907  13.828  0.1465 -0.1177  0.1455
  137CHL1   H1A16369   8.406   2.933  13.889 -1.3109  3.7935  0.9031
  137CHL1   H1B16370   8.335   2.801  13.798 -1.8360 -0.5202  0.1648
  137CHL1    C216371   8.322   3.006  13.718  0.7741  0.0363  0.3750
  137CHL1   H2A16372   8.409   2.989  13.651  0.8149  0.4352  0.3191
  137CHL1   H2B16373   8.305   3.107  13.763 -0.8371 -0.1626  0.2504
  137CHL1   C2016374   8.148   2.517  14.501  0.1224  0.1249  0.1826
  137CHL1   H2016375   8.087   2.588  14.561  0.7363  0.9614 -0.1591
  137CHL1   C2116376   8.295   2.559  14.533  0.1017  0.1000 -0.0394
  137CHL1  H21A16377   8.370   2.492  14.486 -0.1242 -2.1878  2.6032
  137CHL1  H21B16378   8.322   2.533  14.637 -1.9293  0.8085  0.7125
  137CHL1  H21C16379   8.312   2.668  14.515 -2.2565  0.5905  0.4085
  137CHL1   C2216380   8.110   2.372  14.559  0.5874 -0.7980  0.6809
  137CHL1  H22A16381   8.001   2.354  14.542  0.3069  1.5722 -0.5541
  137CHL1  H22B16382   8.174   2.299  14.506  1.4221  0.1777  0.3173
  137CHL1   C2316383   8.155   2.344  14.702 -0.1872  0.1475  0.4018
  137CHL1  H23A16384   8.266   2.332  14.706 -0.1971  0.3894  1.7678
  137CHL1  H23B16385   8.125   2.424  14.773 -0.5383  0.0116  0.4063
  137CHL1   C2416386   8.097   2.215  14.755  0.0423  0.2380 -0.5098
  137CHL1  H24A16387   7.988   2.232  14.765  0.3810  2.6775 -0.4116
  137CHL1  H24B16388   8.113   2.119  14.701  0.7258  1.2611 -2.2137
  137CHL1   C2516389   8.157   2.197  14.899 -0.4910  0.7537 -0.1089
  137CHL1   H2516390   8.200   2.290  14.943  0.4158 -0.6618  2.1975
  137CHL1   C2616391   8.046   2.156  15.003 -0.0993 -0.0002 -0.1708
  137CHL1  H26A16392   8.087   2.127  15.103 -1.2151 -1.6809 -0.1637
  137CHL1  H26B16393   7.971   2.236  15.019  0.4045  0.5707 -0.6003
  137CHL1  H26C16394   7.999   2.064  14.963 -0.7739  0.2758 -0.0344
  137CHL1   C2716395   8.277   2.096  14.895 -0.1446 -0.2459 -0.0778
  137CHL1  H27A16396   8.243   1.990  14.889 -0.2134 -0.3024  1.0654
  137CHL1  H27B16397   8.344   2.107  14.807  0.4074  1.3674  0.5074
  137CHL1  H27C16398   8.340   2.104  14.985 -1.0690 -2.6692  0.8657
  138CHL1    C316399   6.029   1.470  13.810  0.2247 -0.7366 -0.4150
  138CHL1    H316400   5.974   1.384  13.767  0.3394 -1.0522  0.0699
  138CHL1    O316401   6.098   1.544  13.710  0.0739  0.4698  0.3500
  138CHL1   H3'16402   6.148   1.608  13.760 -1.2288 -0.3239  2.8399
  138CHL1    C416403   5.932   1.569  13.881  0.4946 -0.7519 -0.4228
  138CHL1   H4A16404   5.995   1.659  13.892  0.1517 -0.4578 -0.8619
  138CHL1   H4B16405   5.849   1.603  13.816  0.6571 -0.0211 -0.2617
  138CHL1    C516406   5.881   1.528  14.019  0.6138  0.4926  0.0460
  138CHL1    C616407   5.747   1.513  14.045 -0.2417  0.2106 -0.0688
  138CHL1    H616408   5.673   1.548  13.971  0.9785  1.6769 -0.6391
  138CHL1    C716409   5.697   1.476  14.176 -0.1554 -0.3319  0.2092
  138CHL1   H7A16410   5.623   1.553  14.207 -0.9455 -1.3234  0.8266
  138CHL1   H7B16411   5.647   1.377  14.179  0.1769 -0.5446 -0.7714
  138CHL1    C816412   5.806   1.481  14.289 -0.4671  0.4731 -0.1044
  138CHL1    H816413   5.826   1.586  14.321  1.9472 -0.0352  0.1940
  138CHL1   C1416414   5.749   1.402  14.410 -0.2982 -0.4616 -0.9860
  138CHL1   H1416415   5.730   1.299  14.374  0.9100 -0.8029 -0.6727
  138CHL1   C1516416   5.603   1.430  14.455  0.1946  0.1118 -0.7626
  138CHL1  H15A16417   5.578   1.539  14.456 -0.8397 -0.1170 -0.1104
  138CHL1  H15B16418   5.535   1.374  14.389 -0.6032 -1.3935  1.2302
  138CHL1   C1616419   5.600   1.381  14.601  0.1590 -0.1442  0.4984
  138CHL1  H16A16420   5.589   1.476  14.659 -1.0677 -0.9441  1.6363
  138CHL1  H16B16421   5.507   1.325  14.624 -0.0987 -0.7575 -1.8439
  138CHL1   C1716422   5.737   1.308  14.627  0.0692 -0.3073 -0.0109
  138CHL1   H1716423   5.735   1.209  14.578 -2.2760  0.2650 -1.1791
  138CHL1   C1316424   5.836   1.394  14.536  0.2645 -0.4232 -0.5675
  138CHL1   C1816425   5.868   1.527  14.607 -0.1924 -0.1132  0.3407
  138CHL1  H18A16426   5.937   1.512  14.693 -1.5862  1.5790  1.8109
  138CHL1  H18B16427   5.915   1.600  14.537 -2.0876  1.4346  0.6027
  138CHL1  H18C16428   5.777   1.578  14.643 -0.4289  1.1498 -1.8456
  138CHL1   C1216429   5.959   1.324  14.484 -0.0487  0.8580  0.6133
  138CHL1  H12A16430   6.029   1.307  14.569  0.4162 -1.0561 -0.0911
  138CHL1  H12B16431   5.927   1.223  14.450 -0.5287  1.4558 -0.8016
  138CHL1   C1116432   6.022   1.393  14.362 -0.1484  0.2910 -0.0510
  138CHL1  H11A16433   6.065   1.490  14.395  1.2676 -0.2232 -0.3186
  138CHL1  H11B16434   6.111   1.333  14.332  0.4339  0.8805  0.4626
  138CHL1    C916435   5.927   1.408  14.236 -0.3064 -0.1384 -0.3128
  138CHL1    H916436   5.894   1.307  14.204 -1.2411 -0.0126  0.2125
  138CHL1   C1016437   5.990   1.473  14.114  0.8497  0.2214 -0.2494
  138CHL1   C1916438   6.078   1.588  14.169 -0.0610  0.5855 -0.5800
  138CHL1  H19A16439   6.028   1.647  14.249 -0.4098 -2.5094  1.7189
  138CHL1  H19B16440   6.168   1.538  14.211 -1.2964 -0.3465  1.0927
  138CHL1  H19C16441   6.112   1.653  14.086  1.4216 -2.2145 -2.3262
  138CHL1    C116442   6.078   1.369  14.039  0.3183  0.7484  0.2114
  138CHL1   H1A16443   6.158   1.335  14.108  0.6806 -0.7810 -0.9135
  138CHL1   H1B16444   6.006   1.290  14.009  0.0067  1.6504 -1.5803
  138CHL1    C216445   6.139   1.416  13.904 -1.0945  0.2366  0.1356
  138CHL1   H2A16446   6.183   1.334  13.844 -2.9485 -0.7951  0.1119
  138CHL1   H2B16447   6.216   1.489  13.937 -0.7740 -0.9681  2.1929
  138CHL1   C2016448   5.754   1.289  14.784 -0.6599  0.7207  0.3691
  138CHL1   H2016449   5.787   1.382  14.836  2.2048 -0.3325  0.5802
  138CHL1   C2116450   5.886   1.202  14.813  0.5338 -0.1272  0.9916
  138CHL1  H21A16451   5.867   1.102  14.770 -0.0254  0.8368 -1.1843
  138CHL1  H21B16452   5.912   1.193  14.921 -1.2411 -0.9631  1.3956
  138CHL1  H21C16453   5.978   1.246  14.768  0.4188  1.3589  2.1012
  138CHL1   C2216454   5.635   1.220  14.858 -0.1201 -0.4592  0.1928
  138CHL1  H22A16455   5.562   1.303  14.866  2.6333  2.3118 -1.1106
  138CHL1  H22B16456   5.590   1.141  14.795  1.2423  0.0712 -1.5588
  138CHL1   C2316457   5.662   1.193  15.010  0.0920 -1.5094  0.2118
  138CHL1  H23A16458   5.747   1.121  15.014  2.2139  0.7454 -1.4307
  138CHL1  H23B16459   5.678   1.287  15.067 -2.8073 -0.5492 -0.3848
  138CHL1   C2416460   5.534   1.132  15.083 -0.1586  0.3322 -0.1899
  138CHL1  H24A16461   5.483   1.227  15.107  1.7084  1.2302  0.4739
  138CHL1  H24B16462   5.461   1.091  15.011 -0.4836  0.9117 -0.1952
  138CHL1   C2516463   5.545   1.053  15.210 -0.2101 -0.6986  0.2481
  138CHL1   H2516464   5.619   0.970  15.200  0.7585 -0.1656  2.3922
  138CHL1   C2616465   5.596   1.143  15.326 -0.2437 -0.4824 -0.1092
  138CHL1  H26A16466   5.698   1.179  15.301 -0.8870  0.3101 -1.7463
  138CHL1  H26B16467   5.532   1.232  15.340  0.4200 -0.0167  0.0089
  138CHL1  H26C16468   5.593   1.083  15.420 -3.6602  0.1204  0.2971
  138CHL1   C2716469   5.414   0.978  15.244 -0.0597 -0.4844  0.0445
  138CHL1  H27A16470   5.385   0.904  15.167 -0.9666  1.9309 -2.0714
  138CHL1  H27B16471   5.417   0.919  15.338  0.9164 -1.8273 -0.7915
  138CHL1  H27C16472   5.321   1.038  15.243 -1.1278 -2.0834  0.3679
  139CHL1    C316473   7.620   7.980  13.943  0.3733 -0.0311 -0.0096
  139CHL1    H316474   7.715   8.028  13.976  0.2248 -0.4161  1.0143
  139CHL1    O316475   7.660   7.890  13.844 -0.0266 -1.1192 -0.6745
  139CHL1   H3'16476   7.670   7.939  13.762 -0.3504 -1.9257 -1.2147
  139CHL1    C416477   7.556   7.904  14.063  0.1283  0.1642 -0.0554
  139CHL1   H4A16478   7.470   7.849  14.018 -0.7232  0.7407  0.8286
  139CHL1   H4B16479   7.626   7.825  14.096 -1.0939 -0.9703 -0.0940
  139CHL1    C516480   7.507   8.004  14.166  0.3641 -0.2455  0.5380
  139CHL1    C616481   7.550   7.993  14.288  0.0832 -0.0322  0.4325
  139CHL1    H616482   7.616   7.907  14.307  0.8946  0.2897 -0.7910
  139CHL1    C716483   7.514   8.077  14.407 -0.1366 -0.1293  0.0448
  139CHL1   H7A16484   7.478   8.007  14.486  0.6842  0.1730  0.7065
  139CHL1   H7B16485   7.600   8.139  14.442 -2.0450  3.2094 -0.8067
  139CHL1    C816486   7.399   8.175  14.365  0.4595  0.2967  0.1152
  139CHL1    H816487   7.301   8.123  14.372  1.5696 -1.9217  0.0233
  139CHL1   C1416488   7.396   8.292  14.462  0.1090 -0.0523 -0.0181
  139CHL1   H1416489   7.495   8.337  14.441  1.7022 -3.5468 -0.8017
  139CHL1   C1516490   7.393   8.259  14.613 -0.3785 -0.1558  1.3776
  139CHL1  H15A16491   7.310   8.187  14.630  0.8028 -1.6304  1.0691
  139CHL1  H15B16492   7.494   8.225  14.645 -0.7998 -0.6236  2.2558
  139CHL1   C1616493   7.363   8.397  14.670  0.3463  0.2643 -0.1235
  139CHL1  H16A16494   7.267   8.385  14.725 -0.6388 -0.5080 -1.9188
  139CHL1  H16B16495   7.444   8.445  14.729 -1.3277  1.4731  1.3335
  139CHL1   C1716496   7.324   8.494  14.553 -0.0840  0.4252  0.6114
  139CHL1   H1716497   7.419   8.547  14.528 -1.0760  1.3142 -1.4210
  139CHL1   C1316498   7.284   8.396  14.439 -0.3662 -0.2670 -0.5320
  139CHL1   C1816499   7.139   8.344  14.467 -0.7302 -0.2430 -0.2660
  139CHL1  H18A16500   7.060   8.421  14.454  2.1590  2.8563 -0.9646
  139CHL1  H18B16501   7.109   8.258  14.402  0.9484 -1.6814  0.7806
  139CHL1  H18C16502   7.128   8.301  14.568  1.6827  1.5630  0.8487
  139CHL1   C1216503   7.302   8.451  14.299  0.7566  0.1534  0.0278
  139CHL1  H12A16504   7.222   8.522  14.271  0.1613 -0.5250 -0.0122
  139CHL1  H12B16505   7.396   8.508  14.282  0.4918  0.6514  0.2273
  139CHL1   C1116506   7.296   8.336  14.196 -0.0986  0.9217  0.7132
  139CHL1  H11A16507   7.193   8.295  14.207 -0.2256  1.2901  0.9135
  139CHL1  H11B16508   7.310   8.379  14.094  1.3302 -2.2424 -0.5513
  139CHL1    C916509   7.416   8.235  14.223  0.7880 -0.0462  0.2552
  139CHL1    H916510   7.508   8.298  14.219  1.9007 -1.6152 -0.0577
  139CHL1   C1016511   7.418   8.121  14.117  0.0379 -0.5435  0.5173
  139CHL1   C1916512   7.276   8.077  14.084 -0.2300  0.0977  0.1021
  139CHL1  H19A16513   7.227   8.052  14.181  1.0668 -0.0213  0.7388
  139CHL1  H19B16514   7.217   8.155  14.031  0.1698  0.8107  0.6984
  139CHL1  H19C16515   7.280   7.982  14.026 -1.5383 -0.1587  0.3887
  139CHL1    C116516   7.479   8.184  13.985 -0.1603  0.1211 -0.0785
  139CHL1   H1A16517   7.401   8.248  13.937  0.1950  1.3869  0.9936
  139CHL1   H1B16518   7.567   8.244  14.014  1.5295 -1.6209 -1.3493
  139CHL1    C216519   7.518   8.078  13.884  0.1493  0.3533 -0.3338
  139CHL1   H2A16520   7.568   8.130  13.799  0.5083 -0.4582 -0.6229
  139CHL1   H2B16521   7.429   8.022  13.847 -0.2015  1.6432 -1.5389
  139CHL1   C2016522   7.227   8.610  14.597 -0.5033 -0.8095 -0.2831
  139CHL1   H2016523   7.127   8.568  14.620 -1.4674  0.8296 -1.3040
  139CHL1   C2116524   7.228   8.709  14.482  0.0102  0.0879  0.3269
  139CHL1  H21A16525   7.207   8.816  14.504  0.8384  0.6099 -1.2302
  139CHL1  H21B16526   7.153   8.673  14.409 -0.0904  1.7886 -0.4567
  139CHL1  H21C16527   7.325   8.707  14.427 -1.4691  0.8398 -2.5253
  139CHL1   C2216528   7.273   8.682  14.727 -0.4057 -0.0646  0.7127
  139CHL1  H22A16529   7.308   8.618  14.810  0.4313 -0.3707  0.1433
  139CHL1  H22B16530   7.364   8.743  14.706 -0.8299  1.7161  3.5549
  139CHL1   C2316531   7.169   8.768  14.800 -0.5464 -0.7723 -0.0566
  139CHL1  H23A16532   7.146   8.855  14.736  1.0876 -1.7452 -2.0928
  139CHL1  H23B16533   7.077   8.707  14.807  0.2879 -2.2168 -0.9922
  139CHL1   C2416534   7.220   8.818  14.933 -0.2092  0.0343 -0.5747
  139CHL1  H24A16535   7.275   8.739  14.990  0.3881  1.5075  0.9910
  139CHL1  H24B16536   7.284   8.903  14.903 -0.2422  0.6026  0.8515
  139CHL1   C2516537   7.135   8.898  15.030  0.5301  0.2921  0.4874
  139CHL1   H2516538   7.126   9.000  14.987 -0.3451 -0.1961 -0.5231
  139CHL1   C2616539   7.007   8.819  15.048 -0.3504  0.1292  0.4594
  139CHL1  H26A16540   6.946   8.816  14.955  0.5891  2.4949 -0.3087
  139CHL1  H26B16541   7.034   8.722  15.092  0.2513  0.8122  1.6398
  139CHL1  H26C16542   6.936   8.871  15.116 -0.6632 -0.7233  0.7935
  139CHL1   C2716543   7.201   8.913  15.172  0.3555  0.0453  0.2886
  139CHL1  H27A16544   7.223   8.807  15.198  0.4026 -0.1693 -0.6001
  139CHL1  H27B16545   7.295   8.971  15.158 -0.5887  1.7472  0.7061
  139CHL1  H27C16546   7.129   8.952  15.246 -1.7208 -1.1982 -0.9759
  140CHL1    C316547   7.198   0.768  13.869 -0.0231  0.4169  0.3369
  140CHL1    H316548   7.200   0.879  13.859 -3.9607  0.6167  0.3459
  140CHL1    O316549   7.160   0.724  13.743 -0.3950 -0.2974 -0.5493
  140CHL1   H3'16550   7.174   0.629  13.738 -0.1504 -0.2922 -0.0360
  140CHL1    C416551   7.318   0.692  13.925  0.2092  0.6042  0.1266
  140CHL1   H4A16552   7.289   0.585  13.935 -2.3301  1.2884  0.9169
  140CHL1   H4B16553   7.405   0.701  13.857  0.5711 -1.7837  0.2067
  140CHL1    C516554   7.352   0.738  14.062 -0.0637  0.2247 -0.0323
  140CHL1    C616555   7.474   0.779  14.097 -0.6239  0.2412 -0.6301
  140CHL1    H616556   7.558   0.776  14.026  0.1873 -4.1123  0.2188
  140CHL1    C716557   7.515   0.815  14.229 -0.0213 -0.0374  0.5888
  140CHL1   H7A16558   7.614   0.774  14.257 -0.1310 -1.9947 -1.6120
  140CHL1   H7B16559   7.517   0.926  14.222 -0.6771 -0.0698 -0.3466
  140CHL1    C816560   7.413   0.777  14.337  0.1307 -0.0240  0.5195
  140CHL1    H816561   7.413   0.666  14.345 -1.4457 -0.1469 -0.7263
  140CHL1   C1416562   7.449   0.845  14.468  0.0097  0.6683 -0.1429
  140CHL1   H1416563   7.448   0.953  14.443 -3.6678  0.4224 -1.6787
  140CHL1   C1516564   7.585   0.823  14.526  0.6427  0.2162 -0.4266
  140CHL1  H15A16565   7.609   0.715  14.519 -2.4302 -0.6289  0.2986
  140CHL1  H15B16566   7.660   0.886  14.474  1.2707  2.0289  2.4173
  140CHL1   C1616567   7.578   0.860  14.677  0.4305 -0.9488 -1.0185
  140CHL1  H16A16568   7.613   0.776  14.740 -0.7301 -0.2575  0.5977
  140CHL1  H16B16569   7.632   0.953  14.707 -1.1981 -0.4688  0.5985
  140CHL1   C1716570   7.426   0.874  14.700 -0.0278 -0.4046  0.8301
  140CHL1   H1716571   7.407   0.979  14.668 -0.6040 -0.7327  0.0739
  140CHL1   C1316572   7.357   0.807  14.584 -0.3293 -0.1884  0.1858
  140CHL1   C1816573   7.336   0.655  14.609  0.1558 -0.1060  0.2422
  140CHL1  H18A16574   7.431   0.606  14.640 -0.2767  0.3171  2.3529
  140CHL1  H18B16575   7.258   0.648  14.688 -1.3350 -1.2655 -1.2431
  140CHL1  H18C16576   7.293   0.604  14.520 -0.5081  1.3954 -0.3216
  140CHL1   C1216577   7.222   0.863  14.543  0.3275  0.0962  0.0136
  140CHL1  H12A16578   7.139   0.853  14.617  0.3542  4.8255  1.0196
  140CHL1  H12B16579   7.221   0.974  14.540 -0.3990  0.1283  0.8964
  140CHL1   C1116580   7.171   0.811  14.405  0.2727 -0.2212  0.5896
  140CHL1  H11A16581   7.117   0.717  14.430 -2.9602  2.1188  3.3228
  140CHL1  H11B16582   7.094   0.882  14.369  0.3766 -0.1263  0.5552
  140CHL1    C916583   7.272   0.814  14.295 -0.1569  0.3934  0.2979
  140CHL1    H916584   7.283   0.922  14.273 -2.7302  0.4434 -1.1180
  140CHL1   C1016585   7.233   0.739  14.166 -0.2288  0.1886  0.0957
  140CHL1   C1916586   7.207   0.591  14.212 -0.7363 -0.2161  0.2830
  140CHL1  H19A16587   7.166   0.534  14.127 -0.4427  1.3433 -0.9590
  140CHL1  H19B16588   7.302   0.547  14.249 -0.3651  0.4000  0.0794
  140CHL1  H19C16589   7.128   0.581  14.291  1.3728 -1.9493  2.3136
  140CHL1    C116590   7.105   0.799  14.105 -0.5863 -0.2545  0.9763
  140CHL1   H1A16591   7.024   0.768  14.174  0.9211 -0.8913  2.5288
  140CHL1   H1B16592   7.104   0.910  14.102  0.6448 -0.2270 -2.5288
  140CHL1    C216593   7.082   0.745  13.962  0.0609 -0.5573 -0.5538
  140CHL1   H2A16594   6.987   0.789  13.924  0.4757  0.1907 -0.7608
  140CHL1   H2B16595   7.064   0.636  13.963  0.0801 -0.5635 -0.7968
  140CHL1   C2016596   7.376   0.884  14.842 -0.4801 -0.3887 -0.1881
  140CHL1   H2016597   7.434   0.968  14.886 -2.0430  1.2202 -1.0875
  140CHL1   C2116598   7.410   0.757  14.916 -0.5281  0.3320 -0.3653
  140CHL1  H21A16599   7.349   0.675  14.872  0.0099  0.8705 -2.2232
  140CHL1  H21B16600   7.396   0.761  15.026 -0.7166  1.7348 -0.4294
  140CHL1  H21C16601   7.516   0.722  14.907 -0.2864  0.2492  2.0595
  140CHL1   C2216602   7.227   0.929  14.850 -0.0371 -0.3509 -0.2087
  140CHL1  H22A16603   7.208   1.004  14.771 -1.3617 -1.6179 -1.1487
  140CHL1  H22B16604   7.169   0.835  14.841  1.7700 -1.3920 -1.6820
  140CHL1   C2316605   7.200   0.978  14.990 -0.4352 -0.5757  0.0346
  140CHL1  H23A16606   7.223   0.910  15.074  0.6484 -0.2823 -0.0114
  140CHL1  H23B16607   7.271   1.063  15.001 -1.9644  0.8817 -0.7638
  140CHL1   C2416608   7.058   1.039  15.016  0.4251  0.2744 -0.2659
  140CHL1  H24A16609   7.048   1.051  15.126  0.0653  0.6693 -0.3394
  140CHL1  H24B16610   7.057   1.142  14.974 -0.9421  0.6409  0.6165
  140CHL1   C2516611   6.939   0.959  14.954 -0.7718  0.4512  0.4574
  140CHL1   H2516612   6.956   0.950  14.845 -0.9216 -0.4370  0.5016
  140CHL1   C2616613   6.807   1.031  14.992 -0.2968 -0.6123  0.3208
  140CHL1  H26A16614   6.795   1.128  14.938 -1.6625 -0.2884  1.1489
  140CHL1  H26B16615   6.728   0.957  14.968 -1.8225  0.2559  2.3923
  140CHL1  H26C16616   6.812   1.051  15.101  1.1867  0.9570  0.0013
  140CHL1   C2716617   6.934   0.819  15.020  0.4376  0.4644  0.2788
  140CHL1  H27A16618   6.926   0.828  15.131  3.5930  0.4819  0.5844
  140CHL1  H27B16619   6.845   0.755  15.000 -1.8007  2.3387  3.4075
  140CHL1  H27C16620   7.024   0.763  14.987 -0.2938 -1.8076  1.8685
  141DOPC     N16621   2.942   4.280  17.074 -0.5479 -0.1543 -0.3234
  141DOPC   C1216622   3.020   4.416  17.079 -0.5339  0.3763  0.0626
  141DOPC  H12A16623   3.111   4.388  17.132  0.7422 -0.3903 -2.3775
  141DOPC  H12B16624   2.954   4.483  17.132 -1.8736  0.9200 -2.1754
  141DOPC   C1316625   3.038   4.170  17.036  0.5414  0.1801 -0.1092
  141DOPC  H13A16626   3.135   4.162  17.083  0.7331  0.9794 -0.3604
  141DOPC  H13B16627   2.989   4.077  17.062  0.7134 -0.3380 -1.5414
  141DOPC  H13C16628   3.043   4.167  16.928 -2.0929  1.7662 -0.3680
  141DOPC   C1416629   2.835   4.290  16.980  0.2396 -0.6857  1.2093
  141DOPC  H14A16630   2.775   4.200  16.969 -2.4999  1.2300 -1.5092
  141DOPC  H14B16631   2.771   4.373  17.004  0.2628 -0.2597 -0.0991
  141DOPC  H14C16632   2.872   4.327  16.886  2.9217  0.6632  2.7071
  141DOPC   C1516633   2.889   4.258  17.213 -0.4151  0.3373  0.1301
  141DOPC  H15A16634   2.870   4.348  17.271  0.8398  0.8778 -0.2633
  141DOPC  H15B16635   2.967   4.202  17.262  2.1213  0.9626 -2.8890
  141DOPC  H15C16636   2.794   4.208  17.213  0.1854 -0.8480  1.2597
  141DOPC   C1116637   3.058   4.482  16.945  0.2148 -0.1856 -0.1879
  141DOPC  H11A16638   2.966   4.496  16.885  0.0946  0.4251  0.1261
  141DOPC  H11B16639   3.097   4.584  16.968 -1.1827  0.2567  0.3269
  141DOPC     P16640   3.307   4.417  16.942  0.2695 -0.0296 -0.0634
  141DOPC   O1316641   3.329   4.287  17.011 -0.7081 -0.4714 -0.1111
  141DOPC   O1416642   3.312   4.542  17.020 -0.0734  0.3232 -0.3797
  141DOPC   O1216643   3.163   4.409  16.880  0.9361 -0.1729  0.5034
  141DOPC   O1116644   3.404   4.428  16.815  0.5761  0.1009 -0.4570
  141DOPC    C116645   3.364   4.361  16.692 -0.5651 -0.4191 -0.0083
  141DOPC    HA16646   3.265   4.384  16.648  0.3184 -0.4862 -2.1987
  141DOPC    HB16647   3.366   4.251  16.707 -1.0270 -0.2648  1.3218
  141DOPC    C216648   3.477   4.384  16.582  0.1417  0.0585  0.3692
  141DOPC    HS16649   3.569   4.323  16.599  0.9404  1.2944  0.6413
  141DOPC   O2116650   3.520   4.521  16.569  0.1112  0.0106  0.1876
  141DOPC   C2116651   3.622   4.559  16.650 -0.5139  0.2180 -0.8522
  141DOPC   O2216652   3.692   4.493  16.727  0.8807 -0.3469  0.5888
  141DOPC   C2216653   3.636   4.712  16.633  0.9017  0.6678 -0.1424
  141DOPC   H2R16654   3.740   4.729  16.668  0.0218  0.6877  2.7380
  141DOPC   H2S16655   3.574   4.769  16.706 -2.2087 -0.6071 -1.5997
  141DOPC    C316656   3.430   4.337  16.440 -1.2107 -0.3296 -0.2297
  141DOPC    HX16657   3.422   4.226  16.443  1.7408 -0.6222  0.8914
  141DOPC    HY16658   3.512   4.361  16.369 -1.3852 -0.0807 -0.3488
  141DOPC   O3116659   3.310   4.398  16.403  0.2892 -0.2167 -0.2442
  141DOPC   C3116660   3.204   4.329  16.365 -0.3043  0.4882 -0.0321
  141DOPC   O3216661   3.195   4.209  16.358  0.1725  0.0424  0.4490
  141DOPC   C3216662   3.096   4.429  16.306 -0.1695  1.2201 -0.4847
  141DOPC   H2X16663   3.008   4.372  16.269  0.0478  0.3549  0.2807
  141DOPC   H2Y16664   3.061   4.476  16.400 -2.6437 -0.9201 -0.2210
  141DOPC   C2316665   3.626   4.767  16.486 -0.2945  0.3307  0.0031
  141DOPC   H3R16666   3.525   4.742  16.449  0.7205 -0.4491 -2.4721
  141DOPC   H3S16667   3.703   4.711  16.429 -0.1174  0.8022 -0.2334
  141DOPC   C2416668   3.634   4.918  16.477 -0.0561  0.3870  0.0286
  141DOPC   H4R16669   3.569   4.967  16.553 -0.1056 -1.6216  1.3734
  141DOPC   H4S16670   3.613   4.950  16.373 -0.2423  0.9148  0.2245
  141DOPC   C2516671   3.784   4.957  16.494  0.1127  0.0346  0.3696
  141DOPC   H5R16672   3.835   4.902  16.413 -1.4183  1.5589 -1.7525
  141DOPC   H5S16673   3.823   4.915  16.589  0.8717 -0.9158 -0.3377
  141DOPC   C2616674   3.814   5.107  16.510 -0.3321  0.3923 -0.1362
  141DOPC   H6R16675   3.741   5.151  16.582  1.4348  2.1339  0.7026
  141DOPC   H6S16676   3.807   5.161  16.413 -0.1167 -0.2702 -0.5203
  141DOPC   C2716677   3.947   5.135  16.576  0.1155  0.0452  0.0580
  141DOPC   H7R16678   3.959   5.082  16.672  0.1489 -2.8640 -1.4250
  141DOPC   H7S16679   3.942   5.244  16.595  1.1836 -0.0651  1.0713
  141DOPC   C2816680   4.070   5.104  16.488 -0.3748  0.4337  0.6834
  141DOPC   H8R16681   4.041   5.122  16.382 -1.4311 -2.8733  0.2972
  141DOPC   H8S16682   4.101   4.999  16.504 -0.4721  0.6098  2.1578
  141DOPC   C2916683   4.187   5.197  16.536  0.0574 -0.8307 -0.2672
  141DOPC   H9R16684   4.166   5.303  16.553  2.4293 -0.6921  2.5273
  141DOPC  C21016685   4.314   5.159  16.566 -0.3770  0.8126  0.1946
  141DOPC  H10R16686   4.389   5.237  16.587  1.9562 -1.6140  1.4720
  141DOPC  C21116687   4.367   5.024  16.586 -0.7550  0.6214 -0.1551
  141DOPC  H11R16688   4.292   4.943  16.574  0.0353 -0.1598  0.0946
  141DOPC  H11S16689   4.415   5.019  16.686 -0.0105 -0.5718 -0.5558
  141DOPC  C21216690   4.481   4.992  16.489 -0.4289  0.3313 -0.8365
  141DOPC  H12R16691   4.552   4.920  16.535 -1.2448  0.4936  0.7079
  141DOPC  H12S16692   4.537   5.085  16.466  0.0676  0.3838  0.4930
  141DOPC  C21316693   4.427   4.928  16.354  0.0112 -0.5839 -0.2551
  141DOPC  H13R16694   4.375   5.010  16.301 -0.9860 -0.1604  1.2927
  141DOPC  H13S16695   4.351   4.851  16.376 -0.3116 -0.5078 -1.1042
  141DOPC  C21416696   4.532   4.879  16.254  0.7240 -0.2112 -0.0195
  141DOPC  H14R16697   4.606   4.811  16.302  0.0334  0.1471  1.6220
  141DOPC  H14S16698   4.594   4.966  16.224  1.3245 -1.2693 -1.9775
  141DOPC  C21516699   4.476   4.815  16.129  0.2224  0.4550 -0.5723
  141DOPC  H15R16700   4.397   4.876  16.080 -0.4806  0.4306  0.5049
  141DOPC  H15S16701   4.434   4.719  16.164  1.3822  0.1634  0.0882
  141DOPC  C21616702   4.587   4.780  16.024 -0.2553 -0.0749  0.4322
  141DOPC  H16R16703   4.673   4.719  16.060  0.1621 -0.0957 -0.5646
  141DOPC  H16S16704   4.621   4.877  15.985  1.0956 -1.2471 -1.4677
  141DOPC  C21716705   4.530   4.702  15.905 -0.3049  0.3137 -0.2118
  141DOPC  H17R16706   4.424   4.722  15.880 -0.6494 -0.3085  0.7126
  141DOPC  H17S16707   4.517   4.596  15.934 -1.2323  0.4774  0.0043
  141DOPC  C21816708   4.613   4.706  15.778  0.3186  0.0874  0.3083
  141DOPC  H18R16709   4.585   4.632  15.701 -1.5793  1.7657 -0.7107
  141DOPC  H18S16710   4.722   4.692  15.799  0.6016  1.6860  0.0235
  141DOPC  H18T16711   4.592   4.806  15.734 -0.2810  0.5222  1.5402
  141DOPC   C3316712   3.141   4.534  16.202  0.1350  0.5259  0.7516
  141DOPC   H3X16713   3.238   4.583  16.228  0.2449  0.6062  0.2160
  141DOPC   H3Y16714   3.067   4.617  16.203 -0.8105 -0.2453 -0.9400
  141DOPC   C3416715   3.157   4.487  16.053 -0.7246 -0.1719  0.5337
  141DOPC   H4X16716   3.053   4.479  16.013 -1.9273  4.9935  1.8698
  141DOPC   H4Y16717   3.216   4.393  16.050  1.3179  0.9304  2.8784
  141DOPC   C3516718   3.238   4.589  15.971  0.4588  0.6092 -0.5072
  141DOPC   H5X16719   3.343   4.580  16.007 -0.5577 -0.2782  2.5333
  141DOPC   H5Y16720   3.201   4.690  16.000 -0.0292 -0.0894  1.4320
  141DOPC   C3616721   3.246   4.563  15.818  0.3514  0.6028 -0.7472
  141DOPC   H6X16722   3.265   4.456  15.799  1.9569  0.9771 -1.3748
  141DOPC   H6Y16723   3.147   4.603  15.786 -0.0874  0.3747  0.2674
  141DOPC   C3716724   3.355   4.641  15.746  0.4389 -0.5812 -0.0255
  141DOPC   H7X16725   3.338   4.751  15.747 -1.0834 -0.7487 -1.8615
  141DOPC   H7Y16726   3.456   4.614  15.785  0.2316 -2.4889 -0.7081
  141DOPC   C3816727   3.349   4.601  15.600 -1.1294 -0.1068 -0.0352
  141DOPC   H8X16728   3.257   4.647  15.559 -0.7518  0.3661 -0.3667
  141DOPC   H8Y16729   3.328   4.493  15.586  0.1467 -0.1908 -1.6113
  141DOPC   C3916730   3.459   4.641  15.505 -0.2436  0.9613  0.7682
  141DOPC   H9X16731   3.546   4.684  15.558 -1.7289  2.8218  1.8036
  141DOPC  C31016732   3.475   4.605  15.378  0.4802 -0.9597  0.2737
  141DOPC  H10X16733   3.568   4.641  15.331  0.5897 -2.2602 -0.5742
  141DOPC  C31116734   3.398   4.521  15.286  0.6872  0.1803  0.1132
  141DOPC  H11X16735   3.378   4.578  15.193  2.4104 -1.1182 -1.1001
  141DOPC  H11Y16736   3.298   4.507  15.334  0.4632 -1.3336 -0.7420
  141DOPC  C31216737   3.465   4.395  15.235  0.0268  0.8318 -0.5731
  141DOPC  H12X16738   3.569   4.408  15.199  0.1241  0.0416 -0.5961
  141DOPC  H12Y16739   3.408   4.361  15.145 -0.5552  1.5883 -0.5027
  141DOPC  C31316740   3.461   4.289  15.343 -0.6908  0.0938  0.0373
  141DOPC  H13X16741   3.526   4.315  15.429 -1.2461 -1.2029  0.8880
  141DOPC  H13Y16742   3.358   4.265  15.377 -0.0361 -1.4263  1.0498
  141DOPC  C31416743   3.518   4.158  15.286 -0.7358  0.4102  0.0445
  141DOPC  H14X16744   3.434   4.110  15.230 -1.8860  0.9794  1.2199
  141DOPC  H14Y16745   3.601   4.186  15.218  0.7479 -1.7526  0.8422
  141DOPC  C31516746   3.584   4.068  15.392 -0.2555  0.0433  0.2098
  141DOPC  H15X16747   3.651   4.123  15.462 -0.0337  2.2664 -1.6349
  141DOPC  H15Y16748   3.648   3.996  15.336  0.2053 -0.0187  0.8102
  141DOPC  C31616749   3.482   3.989  15.473 -0.3817  0.2918 -0.3717
  141DOPC  H16X16750   3.402   4.052  15.518 -0.7111  0.3726 -1.0498
  141DOPC  H16Y16751   3.431   3.913  15.409  0.5764 -0.6349 -0.0601
  141DOPC  C31716752   3.548   3.913  15.591 -0.1321  0.1471 -0.0008
  141DOPC  H17X16753   3.604   3.984  15.657  1.4843 -1.1365  0.0937
  141DOPC  H17Y16754   3.472   3.859  15.651 -0.2229 -0.0900 -0.3268
  141DOPC  C31816755   3.651   3.812  15.546 -0.0914  1.1051 -0.0405
  141DOPC  H18X16756   3.685   3.748  15.630 -1.6168  0.0645 -0.1695
  141DOPC  H18Y16757   3.602   3.735  15.482  3.8142 -1.5263 -0.2099
  141DOPC  H18Z16758   3.734   3.866  15.495  0.4498  1.5643  1.2805
  142DOPC     N16759   3.801   4.537  17.130  0.5455  0.0862  0.4820
  142DOPC   C1216760   3.923   4.597  17.066 -0.0335 -0.0894 -0.3979
  142DOPC  H12A16761   3.998   4.604  17.144  0.2250 -2.4516 -0.3638
  142DOPC  H12B16762   3.903   4.694  17.024  3.2715  0.6152 -0.6061
  142DOPC   C1316763   3.695   4.526  17.024  0.2171 -0.4292 -0.0614
  142DOPC  H13A16764   3.598   4.498  17.060  0.0960 -2.6277 -1.8917
  142DOPC  H13B16765   3.683   4.626  16.985  1.4576  0.1482  0.9353
  142DOPC  H13C16766   3.723   4.466  16.939 -0.1030 -1.1689  0.3474
  142DOPC   C1416767   3.755   4.623  17.248  0.3802 -0.2993 -0.1772
  142DOPC  H14A16768   3.843   4.656  17.300 -0.4023  1.2920  0.2025
  142DOPC  H14B16769   3.703   4.714  17.219 -0.8960 -0.3898  1.6450
  142DOPC  H14C16770   3.705   4.560  17.320  0.9221 -1.9676 -1.2072
  142DOPC   C1516771   3.838   4.399  17.182  0.3661 -0.3694 -0.3103
  142DOPC  H15A16772   3.754   4.342  17.220  1.5137 -1.2788  0.9390
  142DOPC  H15B16773   3.922   4.398  17.250  1.2014 -0.2504 -1.3262
  142DOPC  H15C16774   3.875   4.348  17.095  1.1561  1.5222 -1.1374
  142DOPC   C1116775   3.988   4.506  16.956  0.8258 -0.4589  0.4669
  142DOPC  H11A16776   3.901   4.473  16.894 -0.2439  2.4078  0.2602
  142DOPC  H11B16777   4.047   4.580  16.897  1.2899  0.8661  2.5096
  142DOPC     P16778   4.198   4.426  17.073 -0.2902 -0.3634  0.0889
  142DOPC   O1316779   4.257   4.296  17.110 -0.2245 -0.0616  0.0576
  142DOPC   O1416780   4.184   4.514  17.189  0.2694  0.0168  0.5556
  142DOPC   O1216781   4.064   4.403  16.997 -0.0784  0.3967 -0.1630
  142DOPC   O1116782   4.298   4.494  16.967 -0.3765  0.6579 -0.2796
  142DOPC    C116783   4.365   4.409  16.872 -0.4952 -0.7134 -0.3999
  142DOPC    HA16784   4.291   4.337  16.829 -0.8988  0.6998 -2.2038
  142DOPC    HB16785   4.456   4.363  16.915  0.1088  1.2975  0.5568
  142DOPC    C216786   4.407   4.497  16.747 -0.5605 -0.4398 -0.1834
  142DOPC    HS16787   4.451   4.434  16.668 -2.7686 -2.1935 -0.1248
  142DOPC   O2116788   4.497   4.594  16.809 -0.0487  0.1221  0.5609
  142DOPC   C2116789   4.575   4.664  16.727 -1.3693  0.0592 -0.0886
  142DOPC   O2216790   4.599   4.636  16.612 -0.1487  0.6623  0.8499
  142DOPC   C2216791   4.621   4.792  16.797 -0.1786  0.3591 -0.0824
  142DOPC   H2R16792   4.582   4.787  16.901 -0.2545 -1.8180 -0.1555
  142DOPC   H2S16793   4.590   4.882  16.739  0.4304  1.7362  1.6557
  142DOPC    C316794   4.284   4.578  16.681 -0.2113  0.4053 -0.2369
  142DOPC    HX16795   4.320   4.651  16.605  0.5360 -1.2395 -1.5017
  142DOPC    HY16796   4.254   4.643  16.766  1.5345  1.4805 -0.3970
  142DOPC   O3116797   4.181   4.492  16.623  0.6761  0.3709  0.2058
  142DOPC   C3116798   4.065   4.548  16.599 -0.3998 -0.0073 -0.6489
  142DOPC   O3216799   4.035   4.664  16.622  0.0318 -0.0359  0.0326
  142DOPC   C3216800   3.971   4.455  16.538 -0.6529  0.1820 -0.5135
  142DOPC   H2X16801   3.992   4.347  16.549 -1.8127 -0.1195 -1.1058
  142DOPC   H2Y16802   3.872   4.468  16.587 -1.2598 -0.6784 -1.4907
  142DOPC   C2316803   4.782   4.795  16.810  1.0223 -0.0191  0.9901
  142DOPC   H3R16804   4.812   4.899  16.835  0.3443  0.9264 -1.7435
  142DOPC   H3S16805   4.824   4.760  16.713  0.2119 -0.9059  0.9388
  142DOPC   C2416806   4.839   4.700  16.918 -0.3245  0.3579 -0.1017
  142DOPC   H4R16807   4.772   4.684  17.005  1.3970 -0.0838  1.1943
  142DOPC   H4S16808   4.929   4.751  16.959 -1.8505  2.1807  1.1906
  142DOPC   C2516809   4.872   4.552  16.862  0.2721 -0.2633  0.2649
  142DOPC   H5R16810   4.967   4.573  16.808  0.5114  1.1688  1.1965
  142DOPC   H5S16811   4.792   4.507  16.800  0.6746 -1.9661  0.9194
  142DOPC   C2616812   4.895   4.444  16.973 -0.5399  0.0530 -0.3405
  142DOPC   H6R16813   4.822   4.450  17.057 -0.5451  1.9370 -0.4309
  142DOPC   H6S16814   4.994   4.458  17.021  0.6302 -1.6465 -2.1295
  142DOPC   C2716815   4.889   4.305  16.915 -0.0197 -0.3089  0.6496
  142DOPC   H7R16816   4.785   4.283  16.881 -0.6999  1.7001  1.2269
  142DOPC   H7S16817   4.911   4.230  16.993 -0.0111 -0.0204  0.9264
  142DOPC   C2816818   4.990   4.277  16.794  0.7399  0.8984  0.3177
  142DOPC   H8R16819   5.094   4.287  16.832 -0.5277  2.0100  3.8312
  142DOPC   H8S16820   4.967   4.347  16.710 -0.6662 -1.7698 -1.6899
  142DOPC   C2916821   4.967   4.135  16.748  0.5002 -0.4440 -0.3843
  142DOPC   H9R16822   4.952   4.068  16.833 -2.0371  1.3392  0.6976
  142DOPC  C21016823   4.932   4.101  16.624  0.0403  0.4253  0.1450
  142DOPC  H10R16824   4.923   3.994  16.603  0.8575  0.3736  0.0141
  142DOPC  C21116825   4.926   4.183  16.497  0.0595 -0.7507  0.5239
  142DOPC  H11R16826   4.946   4.121  16.406 -2.2622  2.2536 -2.2624
  142DOPC  H11S16827   5.007   4.258  16.502 -0.3125 -0.3476  0.5304
  142DOPC  C21216828   4.785   4.247  16.478  0.3668 -0.6021  0.0537
  142DOPC  H12R16829   4.763   4.311  16.567  0.1626  0.2612 -0.6071
  142DOPC  H12S16830   4.708   4.168  16.471  2.5057 -2.8473  0.2646
  142DOPC  C21316831   4.767   4.327  16.358  0.4086  0.1403  0.2725
  142DOPC  H13R16832   4.830   4.418  16.358  1.3168 -0.4833 -0.3378
  142DOPC  H13S16833   4.662   4.364  16.358  0.1862 -0.4348  1.1459
  142DOPC  C21416834   4.771   4.252  16.220 -0.5965 -0.1311 -0.4297
  142DOPC  H14R16835   4.670   4.208  16.206 -2.0983  2.7135  0.5883
  142DOPC  H14S16836   4.856   4.180  16.222 -0.4782  0.0142 -0.0996
  142DOPC  C21516837   4.792   4.352  16.102 -0.0294  0.3595  0.3164
  142DOPC  H15R16838   4.890   4.402  16.115  1.3335 -2.0606 -0.0890
  142DOPC  H15S16839   4.716   4.434  16.102 -2.0045 -1.3920  1.0534
  142DOPC  C21616840   4.806   4.288  15.966  0.5846 -0.3870  0.0282
  142DOPC  H16R16841   4.710   4.238  15.942 -0.5089  2.5808 -2.2623
  142DOPC  H16S16842   4.886   4.211  15.973  0.3130 -0.6399  0.4488
  142DOPC  C21716843   4.856   4.397  15.865 -0.5392  0.8595  0.3656
  142DOPC  H17R16844   4.948   4.442  15.908  0.9612 -1.8972  0.2808
  142DOPC  H17S16845   4.779   4.477  15.870 -2.0959 -0.5454 -0.0647
  142DOPC  C21816846   4.862   4.359  15.714 -0.4057  0.3367 -0.2567
  142DOPC  H18R16847   4.894   4.446  15.653  3.2315 -1.1415 -0.7090
  142DOPC  H18S16848   4.767   4.325  15.667 -0.9527  0.4218  0.7659
  142DOPC  H18T16849   4.936   4.279  15.694 -1.3515 -1.2035  1.9728
  142DOPC   C3316850   3.934   4.482  16.389 -0.0035 -0.3292 -0.9932
  142DOPC   H3X16851   4.011   4.437  16.323  0.5037  0.3918 -0.9119
  142DOPC   H3Y16852   3.938   4.593  16.389  2.4616 -0.3649 -0.9028
  142DOPC   C3416853   3.801   4.431  16.341  0.2783  0.2135  0.0986
  142DOPC   H4X16854   3.723   4.503  16.374  1.8739  1.9990  0.1252
  142DOPC   H4Y16855   3.790   4.329  16.383 -0.4932  1.0209  1.9464
  142DOPC   C3516856   3.797   4.418  16.187 -0.5569  0.1376  0.4475
  142DOPC   H5X16857   3.860   4.331  16.159  1.0557  0.8332  1.7453
  142DOPC   H5Y16858   3.837   4.517  16.154 -1.7875  0.3521 -0.4888
  142DOPC   C3616859   3.659   4.420  16.117  0.0677  0.0000 -0.4699
  142DOPC   H6X16860   3.600   4.329  16.140 -0.0126 -0.2303 -1.5259
  142DOPC   H6Y16861   3.603   4.502  16.168 -0.1020 -0.0342 -0.6006
  142DOPC   C3716862   3.651   4.451  15.966 -0.3902  0.5088  0.7469
  142DOPC   H7X16863   3.568   4.522  15.944 -0.0507  0.9133  0.7444
  142DOPC   H7Y16864   3.739   4.496  15.914 -0.5671  0.2004  0.1762
  142DOPC   C3816865   3.615   4.319  15.892 -0.4699 -0.3866  0.5295
  142DOPC   H8X16866   3.512   4.291  15.924 -0.3076  0.7356  2.1560
  142DOPC   H8Y16867   3.682   4.239  15.929  0.4698  0.1836  0.0669
  142DOPC   C3916868   3.623   4.322  15.739 -0.5455 -0.7690 -0.4279
  142DOPC   H9X16869   3.530   4.323  15.681 -0.2406 -3.6384 -1.1278
  142DOPC  C31016870   3.738   4.334  15.669 -0.3461  0.0633  0.5396
  142DOPC  H10X16871   3.739   4.332  15.559 -1.3780  1.0014  0.4964
  142DOPC  C31116872   3.877   4.344  15.728  0.2792 -0.0890 -0.5167
  142DOPC  H11X16873   3.878   4.372  15.835  0.8377  0.9850 -0.7930
  142DOPC  H11Y16874   3.939   4.419  15.674  1.6289 -0.4695  0.4356
  142DOPC  C31216875   3.955   4.214  15.700  0.3845  0.5500 -0.4789
  142DOPC  H12X16876   4.061   4.230  15.729  0.6403  0.0588 -1.1103
  142DOPC  H12Y16877   3.958   4.195  15.591  3.1956 -1.8294 -0.1090
  142DOPC  C31316878   3.906   4.090  15.779  0.1195  0.0444 -0.1401
  142DOPC  H13X16879   3.911   4.102  15.889  1.0483 -1.2958 -0.0213
  142DOPC  H13Y16880   3.802   4.059  15.756  0.7829 -0.7051 -2.3801
  142DOPC  C31416881   4.001   3.968  15.758 -0.3870  0.2243 -0.3320
  142DOPC  H14X16882   3.977   3.929  15.657 -3.3981  1.8175 -0.3528
  142DOPC  H14Y16883   4.109   3.994  15.761 -0.6733  1.5894 -0.9060
  142DOPC  C31516884   3.975   3.862  15.870 -0.2190  0.5163 -0.5062
  142DOPC  H15X16885   3.867   3.835  15.878  0.0106  0.1514  2.8740
  142DOPC  H15Y16886   4.002   3.914  15.964 -0.0978  2.3790 -1.5305
  142DOPC  C31616887   4.068   3.733  15.854 -0.8126  1.4403 -0.3080
  142DOPC  H16X16888   4.022   3.684  15.765 -0.1682  1.2832 -0.5592
  142DOPC  H16Y16889   4.176   3.750  15.835 -0.3638 -0.8707 -0.1047
  142DOPC  C31716890   4.068   3.641  15.979 -0.0906  0.7289 -0.9113
  142DOPC  H17X16891   3.964   3.621  16.012 -0.2923  1.1369 -1.2871
  142DOPC  H17Y16892   4.124   3.551  15.947  2.6075  2.1201 -0.4625
  142DOPC  C31816893   4.152   3.700  16.098 -0.3171  0.1818 -0.7129
  142DOPC  H18X16894   4.147   3.633  16.187 -1.7954  0.1123 -0.8183
  142DOPC  H18Y16895   4.256   3.710  16.060  0.8026  1.3031  2.3293
  142DOPC  H18Z16896   4.127   3.804  16.127  1.0424  0.3057  0.1304
  143DOPC     N16897   1.136   5.105  17.390  0.4938  0.6179  0.3998
  143DOPC   C1216898   1.230   5.108  17.260 -0.1900  0.8073 -1.2712
  143DOPC  H12A16899   1.309   5.041  17.292 -2.4079 -1.5144 -0.2466
  143DOPC  H12B16900   1.263   5.210  17.249  0.4690  0.8078  0.3372
  143DOPC   C1316901   1.042   5.223  17.384 -0.6713  0.4398 -0.2975
  143DOPC  H13A16902   0.980   5.223  17.295 -2.4444  1.1582  0.8730
  143DOPC  H13B16903   0.972   5.226  17.467  0.3071  0.6135  0.5323
  143DOPC  H13C16904   1.099   5.314  17.386  0.6322 -0.3504 -0.6507
  143DOPC   C1416905   1.229   5.115  17.509  0.5823 -0.7716  0.0975
  143DOPC  H14A16906   1.295   5.200  17.508  0.1041 -0.3960 -0.3261
  143DOPC  H14B16907   1.171   5.132  17.599  0.7754 -0.7391  0.2163
  143DOPC  H14C16908   1.285   5.024  17.515  1.3719 -0.2112  2.1609
  143DOPC   C1516909   1.047   4.978  17.394 -1.1547 -0.4066  0.4789
  143DOPC  H15A16910   1.115   4.894  17.396  3.1701  2.7314 -0.5039
  143DOPC  H15B16911   0.986   4.969  17.305  1.9264  1.6986 -2.0979
  143DOPC  H15C16912   0.984   4.968  17.481  0.6183 -0.0184  1.8655
  143DOPC   C1116913   1.184   5.056  17.125  0.2219 -0.1814 -0.9665
  143DOPC  H11A16914   1.274   5.051  17.061  1.4257  1.3479  0.5169
  143DOPC  H11B16915   1.146   4.952  17.133  1.4884 -0.5348  1.1777
  143DOPC     P16916   1.094   5.267  16.995  0.4105 -0.1516 -0.0884
  143DOPC   O1316917   1.231   5.311  17.002  0.2428  0.3495 -0.2225
  143DOPC   O1416918   1.000   5.362  17.049  0.0095 -0.0556 -0.5415
  143DOPC   O1216919   1.079   5.133  17.078  0.3134 -0.0643  0.7305
  143DOPC   O1116920   1.063   5.228  16.843 -0.3804  0.2420  0.4754
  143DOPC    C116921   0.945   5.157  16.798 -0.2953  0.1719  0.1973
  143DOPC    HA16922   0.900   5.230  16.727  0.8132  1.1742  0.5046
  143DOPC    HB16923   0.876   5.124  16.879  1.3747 -1.1336  1.1326
  143DOPC    C216924   0.978   5.034  16.701  0.2994 -0.1514 -0.3094
  143DOPC    HS16925   0.884   5.012  16.646  1.7594 -0.6191 -2.7385
  143DOPC   O2116926   1.033   4.924  16.782 -0.3043  0.6206 -0.2443
  143DOPC   C2116927   0.941   4.851  16.837  0.1222  0.3446  0.1314
  143DOPC   O2216928   0.822   4.856  16.819 -0.3540 -0.0592  0.0900
  143DOPC   C2216929   1.003   4.764  16.949  0.5401  0.7158  0.2823
  143DOPC   H2R16930   1.025   4.842  17.025  0.9145  0.7022  0.1893
  143DOPC   H2S16931   1.098   4.719  16.912 -0.9261 -1.6469 -0.8820
  143DOPC    C316932   1.081   5.081  16.593 -0.4613 -0.6781 -0.3287
  143DOPC    HX16933   1.182   5.074  16.638  0.2561  1.0340 -1.5186
  143DOPC    HY16934   1.059   5.187  16.568  0.0217 -0.5771 -0.3238
  143DOPC   O3116935   1.071   5.009  16.469 -0.0328 -0.1132  0.1342
  143DOPC   C3116936   1.145   5.056  16.372 -0.2338  0.0156  0.7739
  143DOPC   O3216937   1.220   5.156  16.379  0.7806  0.2449 -0.5511
  143DOPC   C3216938   1.123   4.967  16.247 -0.5759 -0.5403 -0.2386
  143DOPC   H2X16939   1.165   4.870  16.281 -0.4918  0.0584  1.4794
  143DOPC   H2Y16940   1.014   4.959  16.227 -0.4672 -0.2804 -0.9609
  143DOPC   C2316941   0.905   4.654  16.996 -0.2257  0.4820 -0.4127
  143DOPC   H3R16942   0.808   4.689  17.036 -1.1954 -2.8450  0.4575
  143DOPC   H3S16943   0.956   4.601  17.079 -0.3981 -0.0374 -0.6352
  143DOPC   C2416944   0.892   4.543  16.891  0.1179  0.9597  0.2362
  143DOPC   H4R16945   0.990   4.518  16.845  0.1805  1.6331 -0.0045
  143DOPC   H4S16946   0.819   4.582  16.818 -0.4494 -0.8974 -0.2397
  143DOPC   C2516947   0.837   4.405  16.938  0.3457 -0.3443  0.2589
  143DOPC   H5R16948   0.746   4.416  17.001 -2.0926 -1.1495 -2.8531
  143DOPC   H5S16949   0.912   4.348  16.995 -0.3694 -2.6798 -1.0152
  143DOPC   C2616950   0.806   4.316  16.818 -0.4526 -0.0642 -0.1563
  143DOPC   H6R16951   0.790   4.216  16.863 -1.4485 -0.0899 -0.5328
  143DOPC   H6S16952   0.895   4.317  16.751  0.3481  0.2621  0.8955
  143DOPC   C2716953   0.685   4.345  16.729 -0.2676 -0.2548  0.0984
  143DOPC   H7R16954   0.694   4.439  16.672  0.5342  1.1608  2.4440
  143DOPC   H7S16955   0.598   4.348  16.799 -0.6431 -2.2905 -0.1980
  143DOPC   C2816956   0.636   4.237  16.632 -0.3733  0.4195  1.1289
  143DOPC   H8R16957   0.541   4.269  16.584  0.6931 -0.4014 -1.7352
  143DOPC   H8S16958   0.615   4.150  16.697 -1.9730 -0.0279  0.0837
  143DOPC   C2916959   0.732   4.183  16.531 -0.1799 -0.1233 -0.4052
  143DOPC   H9R16960   0.810   4.123  16.579 -0.6857 -1.0828 -0.7715
  143DOPC  C21016961   0.741   4.212  16.403  0.2458 -0.0293 -0.2644
  143DOPC  H10R16962   0.813   4.158  16.340  2.9175  0.6120  2.0641
  143DOPC  C21116963   0.648   4.307  16.330 -0.0155  0.3236  0.4586
  143DOPC  H11R16964   0.667   4.416  16.344 -1.7949  0.8511 -0.9054
  143DOPC  H11S16965   0.543   4.286  16.358  0.0332 -1.2584 -0.4578
  143DOPC  C21216966   0.651   4.261  16.178  0.3856 -0.7699 -0.7731
  143DOPC  H12R16967   0.599   4.163  16.183 -1.3036  0.1548  2.2236
  143DOPC  H12S16968   0.754   4.261  16.137  0.9289  2.1926  0.3520
  143DOPC  C21316969   0.568   4.353  16.082  0.0679  0.0011 -0.4310
  143DOPC  H13R16970   0.540   4.301  15.988 -0.9601 -1.2638  0.5307
  143DOPC  H13S16971   0.626   4.442  16.051 -0.7116  0.4761 -0.5427
  143DOPC  C21416972   0.425   4.381  16.132 -0.5325  0.0708  0.2516
  143DOPC  H14R16973   0.425   4.435  16.230  0.7013  0.1585  0.2249
  143DOPC  H14S16974   0.378   4.285  16.162  0.3413 -0.6740 -0.7115
  143DOPC  C21516975   0.345   4.459  16.040 -0.0872 -0.0188 -0.0100
  143DOPC  H15R16976   0.306   4.375  15.979 -1.2501 -3.0065  4.4187
  143DOPC  H15S16977   0.393   4.540  15.981 -0.7036 -1.2407 -2.3080
  143DOPC  C21616978   0.221   4.533  16.090  0.1071  0.4883  0.0040
  143DOPC  H16R16979   0.246   4.591  16.181  0.9604  2.3463 -1.3502
  143DOPC  H16S16980   0.143   4.459  16.119  0.8443 -0.6222 -0.7575
  143DOPC  C21716981   0.173   4.643  15.989  0.5664 -0.5760  0.1982
  143DOPC  H17R16982   0.144   4.584  15.899 -0.4301 -0.3084  0.3310
  143DOPC  H17S16983   0.262   4.709  15.976  0.0085  0.4571  1.4216
  143DOPC  C21816984   0.062   4.727  16.046 -0.4560 -0.2786 -0.1297
  143DOPC  H18R16985   0.006   4.771  15.961 -0.8225 -0.1690  0.1647
  143DOPC  H18S16986   0.095   4.809  16.114  2.5493  0.5070 -2.3185
  143DOPC  H18T16987  -0.014   4.662  16.093 -0.0756  0.6613  1.9000
  143DOPC   C3316988   1.206   5.027  16.125  0.0973  0.5408 -0.5785
  143DOPC   H3X16989   1.298   5.079  16.159 -0.4787 -0.0358  2.0442
  143DOPC   H3Y16990   1.141   5.102  16.074  0.6562 -0.6951 -3.3069
  143DOPC   C3416991   1.252   4.922  16.030 -0.4993 -0.1199  0.2054
  143DOPC   H4X16992   1.180   4.892  15.950 -0.2218 -1.6134  0.5038
  143DOPC   H4Y16993   1.275   4.829  16.086  1.2624  0.3520  0.2946
  143DOPC   C3516994   1.383   4.963  15.957 -0.4825 -0.5385 -0.2966
  143DOPC   H5X16995   1.461   4.982  16.034  0.6246 -2.2717 -0.9289
  143DOPC   H5Y16996   1.359   5.050  15.892  1.0797 -0.6443 -1.0750
  143DOPC   C3616997   1.441   4.855  15.863  0.1706 -0.0392 -0.2539
  143DOPC   H6X16998   1.429   4.764  15.926 -2.4765 -0.5860 -1.3856
  143DOPC   H6Y16999   1.372   4.843  15.776  1.0976  1.6444 -1.2677
  143DOPC   C3717000   1.597   4.877  15.822 -0.2913  0.5028 -0.3024
  143DOPC   H7X17001   1.607   4.986  15.802 -0.7229  0.3860 -1.2107
  143DOPC   H7Y17002   1.669   4.853  15.904  0.0731  0.5778 -0.5945
  143DOPC   C3817003   1.631   4.803  15.691  0.5012 -0.3956 -0.1176
  143DOPC   H8X17004   1.557   4.833  15.614  0.9429 -0.8902 -0.7500
  143DOPC   H8Y17005   1.624   4.694  15.712  2.0568 -0.3000  1.0511
  143DOPC   C3917006   1.770   4.830  15.645  0.2978 -0.3138  0.3143
  143DOPC   H9X17007   1.854   4.807  15.713  0.7692 -0.0227 -0.1706
  143DOPC  C31017008   1.802   4.894  15.532  0.1950  0.3145  0.2193
  143DOPC  H10X17009   1.910   4.908  15.515 -0.1793  0.8367 -2.0134
  143DOPC  C31117010   1.728   4.947  15.418  0.8988 -0.1783 -0.2470
  143DOPC  H11X17011   1.631   4.981  15.459  1.4896 -0.0459  1.0952
  143DOPC  H11Y17012   1.711   4.862  15.348  1.3868 -0.1961 -0.3498
  143DOPC  C31217013   1.793   5.060  15.338 -0.3799  0.8071  0.3624
  143DOPC  H12X17014   1.708   5.097  15.277  0.4782 -0.8681 -1.9679
  143DOPC  H12Y17015   1.867   5.025  15.264  0.0626  1.1759  0.6229
  143DOPC  C31317016   1.857   5.169  15.420  0.2823  0.1206  0.1407
  143DOPC  H13X17017   1.791   5.213  15.498  0.7838 -1.0800  1.2786
  143DOPC  H13Y17018   1.952   5.135  15.465  1.1531  0.7801 -1.1396
  143DOPC  C31417019   1.896   5.297  15.339 -0.2552  0.0701 -0.4517
  143DOPC  H14X17020   1.967   5.265  15.260 -1.4866 -1.4704 -0.9790
  143DOPC  H14Y17021   1.810   5.333  15.278  0.5580 -1.7742 -2.8557
  143DOPC  C31517022   1.951   5.407  15.429  1.1656 -0.2035  0.2216
  143DOPC  H15X17023   2.012   5.358  15.508  1.0385 -2.2927 -0.9008
  143DOPC  H15Y17024   1.866   5.447  15.488 -0.9264 -0.9417 -2.1088
  143DOPC  C31617025   2.026   5.511  15.344 -0.2027 -0.1668 -0.3602
  143DOPC  H16X17026   2.088   5.579  15.407 -0.5665  1.1174 -1.3570
  143DOPC  H16Y17027   2.093   5.457  15.274  0.6757  0.9546 -0.4183
  143DOPC  C31717028   1.928   5.593  15.263 -0.3349  0.4931 -0.6190
  143DOPC  H17X17029   1.846   5.528  15.224  0.0980 -1.0002  0.8676
  143DOPC  H17Y17030   1.877   5.666  15.330  1.6664  0.2550  1.2712
  143DOPC  C31817031   1.998   5.662  15.147  0.0291  0.3783 -0.5869
  143DOPC  H18X17032   2.050   5.750  15.190  0.3697 -0.4250  0.7171
  143DOPC  H18Y17033   2.074   5.598  15.096 -1.6546 -2.9279  0.7467
  143DOPC  H18Z17034   1.922   5.686  15.070 -0.9960 -2.1809 -0.4989
  144DOPC     N17035   2.622   3.385  17.642 -0.3272 -0.1642  0.7646
  144DOPC   C1217036   2.623   3.404  17.485 -1.5949 -0.4846  0.3976
  144DOPC  H12A17037   2.724   3.430  17.458 -1.8366  0.3601  0.2973
  144DOPC  H12B17038   2.579   3.501  17.468  0.1874  0.4984  1.2071
  144DOPC   C1317039   2.655   3.510  17.720  0.3729  0.3046  0.1184
  144DOPC  H13A17040   2.591   3.588  17.682 -1.8705 -1.0551  0.9204
  144DOPC  H13B17041   2.625   3.484  17.820  0.2841 -1.1055 -0.2538
  144DOPC  H13C17042   2.759   3.537  17.711  0.5309 -0.7949 -1.8062
  144DOPC   C1417043   2.722   3.274  17.676 -0.1491 -0.1085 -0.2162
  144DOPC  H14A17044   2.824   3.304  17.690 -0.4734  0.5523  0.8432
  144DOPC  H14B17045   2.690   3.211  17.758 -0.6958  0.6533  0.1602
  144DOPC  H14C17046   2.716   3.201  17.596 -0.3595 -0.1579 -0.1577
  144DOPC   C1517047   2.487   3.337  17.681 -0.3601 -0.0730 -0.0348
  144DOPC  H15A17048   2.465   3.238  17.645  0.2501  0.2800 -1.4366
  144DOPC  H15B17049   2.412   3.402  17.639 -0.0828  0.4230  0.2225
  144DOPC  H15C17050   2.485   3.337  17.789  0.9501  0.5876  0.0240
  144DOPC   C1117051   2.557   3.306  17.391 -0.3882  0.2590  0.7479
  144DOPC  H11A17052   2.446   3.308  17.400 -0.4468 -2.0610  1.1959
  144DOPC  H11B17053   2.577   3.335  17.286  0.8647 -1.2462  0.5392
  144DOPC     P17054   2.705   3.088  17.338  0.1549  0.0418  0.2328
  144DOPC   O1317055   2.731   2.956  17.394  0.0163 -0.1180  0.2037
  144DOPC   O1417056   2.828   3.162  17.304  0.3164  0.2300  0.3752
  144DOPC   O1217057   2.603   3.175  17.424  0.4414 -0.1652 -0.1328
  144DOPC   O1117058   2.616   3.074  17.203 -0.9189 -0.0384  0.3055
  144DOPC    C117059   2.513   2.988  17.175 -0.6473 -0.0566  0.8033
  144DOPC    HA17060   2.428   3.015  17.242 -0.6273  0.1607  0.7427
  144DOPC    HB17061   2.537   2.880  17.178  0.3915  0.1024 -0.7759
  144DOPC    C217062   2.465   3.021  17.029 -0.1500 -0.0379  0.1682
  144DOPC    HS17063   2.378   2.957  17.003  0.7991 -1.6535  0.8337
  144DOPC   O2117064   2.571   2.994  16.932 -0.2500  0.2196 -0.1322
  144DOPC   C2117065   2.570   2.870  16.886  0.0751 -0.4561 -0.2420
  144DOPC   O2217066   2.506   2.777  16.929  0.1534 -0.2256  0.3590
  144DOPC   C2217067   2.662   2.871  16.768 -0.2213  0.4104  0.0842
  144DOPC   H2R17068   2.712   2.772  16.765 -2.5086 -0.7641 -1.7670
  144DOPC   H2S17069   2.730   2.959  16.763 -0.4015  0.5701  0.3862
  144DOPC    C317070   2.431   3.169  17.018  0.7717  0.5608  0.6080
  144DOPC    HX17071   2.516   3.236  17.045  1.6920 -0.8485  1.3462
  144DOPC    HY17072   2.352   3.195  17.092 -0.6210 -1.9312  0.1190
  144DOPC   O3117073   2.374   3.189  16.880 -0.1085 -0.0962 -0.3381
  144DOPC   C3117074   2.466   3.209  16.787  0.0796 -0.7184  0.6971
  144DOPC   O3217075   2.581   3.246  16.804  0.0101  0.4205  0.0463
  144DOPC   C3217076   2.397   3.215  16.646  0.3802  0.2990 -0.4766
  144DOPC   H2X17077   2.338   3.123  16.626 -1.6087  1.1653  1.0467
  144DOPC   H2Y17078   2.319   3.293  16.637 -0.2329 -0.4426 -1.8294
  144DOPC   C2317079   2.595   2.858  16.625  0.2795  0.6998 -0.2707
  144DOPC   H3R17080   2.675   2.886  16.553  0.1986  2.7334  0.3607
  144DOPC   H3S17081   2.516   2.932  16.596  3.2654  3.2442 -2.5694
  144DOPC   C2417082   2.540   2.715  16.601  0.6134  0.4731  0.1986
  144DOPC   H4R17083   2.477   2.684  16.687 -1.4592  2.3247 -0.5469
  144DOPC   H4S17084   2.613   2.631  16.603  0.9841  0.7934  1.6424
  144DOPC   C2517085   2.447   2.713  16.480 -0.2912 -0.0256  0.1502
  144DOPC   H5R17086   2.361   2.782  16.496  1.5899  1.9813  2.4111
  144DOPC   H5S17087   2.417   2.607  16.467  0.8891 -0.4672  0.8067
  144DOPC   C2617088   2.517   2.745  16.348 -0.4681  1.4320  0.4204
  144DOPC   H6R17089   2.619   2.704  16.338 -0.2298  1.8790  0.9539
  144DOPC   H6S17090   2.539   2.854  16.351  2.2794  0.9356  0.9598
  144DOPC   C2717091   2.435   2.706  16.222  0.7310  0.2495 -1.1506
  144DOPC   H7R17092   2.326   2.693  16.241  0.6193  2.4476 -0.0085
  144DOPC   H7S17093   2.475   2.608  16.186 -0.9898 -0.0897 -2.2764
  144DOPC   C2817094   2.435   2.808  16.107 -0.0155  0.1056  0.6935
  144DOPC   H8R17095   2.530   2.810  16.050 -1.0527  0.6494 -1.0830
  144DOPC   H8S17096   2.436   2.912  16.146  0.2079  0.3579  0.0253
  144DOPC   C2917097   2.320   2.778  16.014 -0.1352  0.5834  0.1020
  144DOPC   H9R17098   2.305   2.669  16.010 -0.3779  0.2411  4.5689
  144DOPC  C21017099   2.234   2.860  15.953 -0.0530 -0.0082 -0.6325
  144DOPC  H10R17100   2.171   2.802  15.884  0.5237 -2.9471  1.1384
  144DOPC  C21117101   2.213   3.012  15.965 -0.4843 -0.5755  0.4747
  144DOPC  H11R17102   2.247   3.065  15.873 -2.0241 -1.0048 -0.3759
  144DOPC  H11S17103   2.280   3.056  16.042  0.5938  0.3413 -0.9123
  144DOPC  C21217104   2.067   3.054  15.996  0.5597 -0.1501  1.2981
  144DOPC  H12R17105   1.988   2.990  15.950 -0.0508  2.0381 -0.9041
  144DOPC  H12S17106   2.040   3.149  15.945  1.3807 -0.0657  1.0003
  144DOPC  C21317107   2.040   3.076  16.145 -0.3796 -0.3219 -0.2530
  144DOPC  H13R17108   1.938   3.120  16.149  0.0624  0.6251  1.4881
  144DOPC  H13S17109   2.112   3.155  16.173 -1.9440  1.7902 -1.8138
  144DOPC  C21417110   2.062   2.963  16.242  0.8678 -0.1770 -0.0798
  144DOPC  H14R17111   2.156   2.909  16.213  0.2543 -1.3653  0.0719
  144DOPC  H14S17112   1.985   2.883  16.248  1.1754 -0.5501 -0.8343
  144DOPC  C21517113   2.093   3.008  16.383  0.5199 -0.3928  0.1021
  144DOPC  H15R17114   2.150   3.103  16.385  0.9906 -0.6806  1.8177
  144DOPC  H15S17115   2.139   2.930  16.448 -0.3750  0.2393  1.5411
  144DOPC  C21617116   1.962   3.043  16.456  0.2652 -0.4812 -0.4475
  144DOPC  H16R17117   1.908   2.946  16.465 -2.1112  0.2668 -4.4057
  144DOPC  H16S17118   1.889   3.103  16.397  0.7192  0.3005 -0.2179
  144DOPC  C21717119   1.984   3.109  16.594  0.4837  0.6007  0.0440
  144DOPC  H17R17120   2.012   3.213  16.566 -1.2565  0.5984 -1.9961
  144DOPC  H17S17121   2.066   3.064  16.654 -0.5248 -0.9680  0.3259
  144DOPC  C21817122   1.862   3.122  16.676  0.4226  0.4612  0.1226
  144DOPC  H18R17123   1.777   3.166  16.620  0.4464  1.9911  1.2401
  144DOPC  H18S17124   1.878   3.181  16.768  0.3919 -1.5097  1.4564
  144DOPC  H18T17125   1.842   3.021  16.719  3.0134 -0.3852 -0.4507
  144DOPC   C3317126   2.491   3.256  16.534  0.2444 -0.1129  0.0498
  144DOPC   H3X17127   2.588   3.203  16.547  1.1549  1.2928 -0.8343
  144DOPC   H3Y17128   2.502   3.366  16.544  0.2745 -0.2045  1.1971
  144DOPC   C3417129   2.436   3.228  16.394  0.1819 -0.3628 -0.3569
  144DOPC   H4X17130   2.331   3.263  16.390  0.6343  1.4444  1.4346
  144DOPC   H4Y17131   2.429   3.118  16.380 -1.4427 -0.3175 -0.0647
  144DOPC   C3517132   2.510   3.288  16.278 -0.0727 -0.3726  0.6082
  144DOPC   H5X17133   2.619   3.272  16.294  0.2317  2.6691  2.3653
  144DOPC   H5Y17134   2.503   3.398  16.286  0.8727 -0.0208 -2.2598
  144DOPC   C3617135   2.474   3.228  16.140 -0.1119 -0.1917  0.0523
  144DOPC   H6X17136   2.467   3.118  16.143 -0.3105 -0.1942 -0.5737
  144DOPC   H6Y17137   2.375   3.275  16.120 -0.4694 -0.8972  0.1404
  144DOPC   C3717138   2.561   3.277  16.023  0.2074 -0.2588  0.3582
  144DOPC   H7X17139   2.581   3.382  16.051  0.4101 -0.7351  2.1793
  144DOPC   H7Y17140   2.660   3.226  16.031  0.3549 -0.1010 -0.3994
  144DOPC   C3817141   2.502   3.251  15.882 -0.1595 -0.0234 -0.9582
  144DOPC   H8X17142   2.396   3.284  15.875 -0.5487 -1.2917 -1.2982
  144DOPC   H8Y17143   2.499   3.141  15.872  2.7086 -0.2872  0.2425
  144DOPC   C3917144   2.596   3.302  15.777 -0.0732 -0.6645  0.0360
  144DOPC   H9X17145   2.703   3.314  15.804  0.1435  0.0832 -1.0870
  144DOPC  C31017146   2.561   3.345  15.654  0.1055 -0.1931 -0.4670
  144DOPC  H10X17147   2.641   3.395  15.598  0.8608  1.6383  2.0573
  144DOPC  C31117148   2.433   3.339  15.582  0.2823 -0.6797  0.0515
  144DOPC  H11X17149   2.395   3.439  15.551  0.6430 -0.1926  1.1124
  144DOPC  H11Y17150   2.361   3.300  15.657  0.7207 -0.3060  0.6783
  144DOPC  C31217151   2.425   3.262  15.452 -0.4270  0.0094 -0.2749
  144DOPC  H12X17152   2.463   3.159  15.468 -1.2502 -0.2422  0.1291
  144DOPC  H12Y17153   2.497   3.311  15.383  0.2801  0.7741  0.9680
  144DOPC  C31317154   2.286   3.269  15.387 -0.3363 -0.1753  0.4813
  144DOPC  H13X17155   2.218   3.237  15.469  0.5495  1.3551  1.8915
  144DOPC  H13Y17156   2.255   3.371  15.357  0.1955 -0.0770  0.2593
  144DOPC  C31417157   2.283   3.171  15.271 -0.3834  0.2300 -0.4663
  144DOPC  H14X17158   2.333   3.215  15.183  0.8767  1.7787  0.9497
  144DOPC  H14Y17159   2.350   3.088  15.301  2.6309  2.1915 -1.2946
  144DOPC  C31517160   2.150   3.115  15.230  0.1076  0.0459  0.2014
  144DOPC  H15X17161   2.088   3.201  15.199 -0.6027  0.7324  3.2172
  144DOPC  H15Y17162   2.107   3.070  15.322  0.4872  2.2895  1.5504
  144DOPC  C31617163   2.155   3.012  15.123 -0.1762  0.4989 -0.9613
  144DOPC  H16X17164   2.211   3.049  15.035 -0.2918 -0.2787 -1.3706
  144DOPC  H16Y17165   2.214   2.924  15.156 -0.1879  0.6687 -0.4816
  144DOPC  C31717166   2.018   2.954  15.083  0.7145 -0.0431 -0.4718
  144DOPC  H17X17167   1.963   2.923  15.175 -0.3750  0.4351 -0.9407
  144DOPC  H17Y17168   1.968   3.039  15.032  0.3288  0.8895  1.3694
  144DOPC  C31817169   2.027   2.831  14.992 -0.1736  0.2498  0.7335
  144DOPC  H18X17170   2.093   2.848  14.905 -2.1758 -0.3331 -0.9616
  144DOPC  H18Y17171   2.063   2.742  15.049 -1.9172 -0.0836  1.3726
  144DOPC  H18Z17172   1.930   2.792  14.954  3.2109 -6.3334 -2.7745
  145DOPC     N17173   2.626   6.341  16.874  0.0672  0.8598  0.0660
  145DOPC   C1217174   2.778   6.337  16.886 -0.5931 -0.1995 -0.0090
  145DOPC  H12A17175   2.818   6.252  16.832 -0.6911  0.7242 -1.5986
  145DOPC  H12B17176   2.797   6.313  16.989 -0.0467  1.6068  0.3522
  145DOPC   C1317177   2.595   6.349  16.733 -0.1856  0.6556  0.1564
  145DOPC  H13A17178   2.488   6.344  16.716 -0.0794 -1.2959 -0.1948
  145DOPC  H13B17179   2.634   6.441  16.692  2.2928 -0.9341 -1.3302
  145DOPC  H13C17180   2.629   6.276  16.661  0.7644  1.7009 -0.4906
  145DOPC   C1417181   2.574   6.472  16.935 -0.7342 -0.4365 -0.9555
  145DOPC  H14A17182   2.622   6.558  16.891 -0.3067  0.3347  0.9265
  145DOPC  H14B17183   2.467   6.479  16.928 -0.9336 -0.8349  1.1688
  145DOPC  H14C17184   2.598   6.470  17.040 -0.5396  1.0682 -0.9527
  145DOPC   C1517185   2.558   6.225  16.940  0.2090  0.4902  0.0753
  145DOPC  H15A17186   2.590   6.228  17.042  0.7089  1.1457 -0.0916
  145DOPC  H15B17187   2.577   6.133  16.888  3.3644  0.5190  1.0042
  145DOPC  H15C17188   2.450   6.223  16.931  0.1138  0.1964  1.2060
  145DOPC   C1117189   2.856   6.463  16.850  0.0527 -0.2489 -0.3351
  145DOPC  H11A17190   2.839   6.496  16.745 -0.6745  0.2474 -0.0697
  145DOPC  H11B17191   2.828   6.548  16.916 -0.5268 -0.9606  0.3447
  145DOPC     P17192   3.117   6.411  16.769  0.0015  0.3491 -0.1224
  145DOPC   O1317193   3.111   6.267  16.737 -0.1883  0.3867  0.1655
  145DOPC   O1417194   3.255   6.446  16.825 -0.8471 -0.6173  0.3515
  145DOPC   O1217195   2.996   6.442  16.866  0.4049 -0.0225 -0.1177
  145DOPC   O1117196   3.089   6.501  16.643 -0.2366 -0.1266  0.0730
  145DOPC    C117197   3.087   6.644  16.656  0.1830 -0.6941  0.5009
  145DOPC    HA17198   3.101   6.685  16.758  0.2725  0.9723 -0.1435
  145DOPC    HB17199   2.983   6.675  16.632 -0.8659 -1.9546  3.0176
  145DOPC    C217200   3.192   6.709  16.562  0.4565  0.8359  0.4949
  145DOPC    HS17201   3.209   6.816  16.586  2.0752  0.6179  0.4026
  145DOPC   O2117202   3.157   6.699  16.423  0.3504 -0.1201  0.7434
  145DOPC   C2117203   3.066   6.786  16.386  0.6394  0.3713 -0.1519
  145DOPC   O2217204   3.008   6.868  16.456  0.1546  0.6903  0.0534
  145DOPC   C2217205   3.021   6.757  16.241  0.2824 -0.1745 -0.1892
  145DOPC   H2R17206   2.912   6.735  16.245  0.7518 -4.0309 -2.7549
  145DOPC   H2S17207   3.065   6.660  16.208 -1.2137 -1.4738  1.4328
  145DOPC    C317208   3.325   6.635  16.582  0.9799  0.3610 -0.1268
  145DOPC    HX17209   3.303   6.529  16.555  0.1310 -0.1682  2.3409
  145DOPC    HY17210   3.331   6.637  16.693 -0.0444  1.1157 -0.0714
  145DOPC   O3117211   3.430   6.690  16.512 -0.1149  0.1521  0.6331
  145DOPC   C3117212   3.502   6.787  16.556 -0.8288  0.1992  0.0539
  145DOPC   O3217213   3.475   6.864  16.649 -0.1970  0.4140 -0.2773
  145DOPC   C3217214   3.626   6.811  16.459  0.6424 -0.1627 -0.4966
  145DOPC   H2X17215   3.713   6.836  16.523  0.2013  0.2196 -0.0405
  145DOPC   H2Y17216   3.634   6.720  16.396  0.6839 -1.6170  1.5201
  145DOPC   C2317217   3.037   6.876  16.144 -0.2007 -1.0396  0.7773
  145DOPC   H3R17218   3.144   6.877  16.112 -0.4803  0.5577 -0.1778
  145DOPC   H3S17219   3.029   6.965  16.210 -0.5815 -0.1898 -0.3919
  145DOPC   C2417220   2.953   6.874  16.015  0.3856 -0.1698 -0.1450
  145DOPC   H4R17221   2.851   6.888  16.055  0.7718  1.1219  0.4348
  145DOPC   H4S17222   2.977   6.780  15.959  2.8031  0.1527  0.2215
  145DOPC   C2517223   2.977   6.993  15.917 -0.9431  0.5308 -0.0671
  145DOPC   H5R17224   3.086   6.991  15.895 -1.2765 -0.3960 -1.7573
  145DOPC   H5S17225   2.955   7.087  15.972  1.1682  1.1843 -0.2261
  145DOPC   C2617226   2.908   6.967  15.782  0.1775 -0.0051 -0.3337
  145DOPC   H6R17227   2.800   6.994  15.790  0.4709  1.0691  0.0714
  145DOPC   H6S17228   2.929   6.863  15.749 -2.9318 -1.3614  1.5521
  145DOPC   C2717229   2.949   7.069  15.678  0.0786 -0.8878  0.1939
  145DOPC   H7R17230   3.056   7.062  15.651  0.2723  0.3901  0.6015
  145DOPC   H7S17231   2.928   7.172  15.713 -2.0454 -1.4269  0.6688
  145DOPC   C2817232   2.868   7.052  15.548  0.3881 -0.2070 -0.1418
  145DOPC   H8R17233   2.884   7.149  15.497 -0.7808 -0.2699 -0.6558
  145DOPC   H8S17234   2.759   7.044  15.572  0.3075 -0.8898 -0.7107
  145DOPC   C2917235   2.905   6.930  15.473 -0.1147  0.3462  0.7269
  145DOPC   H9R17236   2.930   6.839  15.530 -0.5892 -0.1435  0.1637
  145DOPC  C21017237   2.926   6.925  15.339  0.8050  0.1119 -0.1462
  145DOPC  H10R17238   2.949   6.827  15.295  0.3586 -0.3485  0.6360
  145DOPC  C21117239   2.899   7.037  15.236 -1.0401  0.2288 -0.2663
  145DOPC  H11R17240   2.873   7.134  15.283  0.4161  0.6471 -0.2802
  145DOPC  H11S17241   2.812   7.006  15.175 -2.9010  1.1991  1.7554
  145DOPC  C21217242   3.029   7.063  15.154 -0.5043 -0.9347  0.4247
  145DOPC  H12R17243   3.091   6.976  15.127 -0.6056 -1.0405  0.5316
  145DOPC  H12S17244   3.091   7.130  15.218 -2.7282  2.2908 -0.4977
  145DOPC  C21317245   3.002   7.115  15.011  0.6935 -0.4137 -0.1894
  145DOPC  H13R17246   2.920   7.188  15.026  0.9709 -0.4735  1.8107
  145DOPC  H13S17247   2.953   7.036  14.951 -0.9949 -0.3560  1.0484
  145DOPC  C21417248   3.119   7.176  14.934 -0.6465 -0.2144  0.0799
  145DOPC  H14R17249   3.182   7.103  14.880  0.0056  0.2447  0.2069
  145DOPC  H14S17250   3.191   7.231  14.997 -0.2363  0.5676 -1.0300
  145DOPC  C21517251   3.070   7.288  14.834  0.5101 -0.2661 -0.0841
  145DOPC  H15R17252   3.024   7.364  14.901 -0.2456 -1.2702  0.5753
  145DOPC  H15S17253   2.991   7.241  14.771  2.9869 -0.7372 -3.0598
  145DOPC  C21617254   3.189   7.347  14.756  0.2642  0.2063  0.2391
  145DOPC  H16R17255   3.245   7.262  14.712  0.8743  0.0625  1.2612
  145DOPC  H16S17256   3.251   7.414  14.820 -1.4841  2.2788 -0.1034
  145DOPC  C21717257   3.144   7.444  14.640 -0.5566 -0.1509  0.4160
  145DOPC  H17R17258   3.104   7.537  14.685  1.5693  0.5686  0.9333
  145DOPC  H17S17259   3.060   7.392  14.590 -0.2423 -1.2231  0.9633
  145DOPC  C21817260   3.257   7.476  14.540 -0.5869 -0.0944  0.0155
  145DOPC  H18R17261   3.205   7.546  14.471 -1.2742 -1.0601 -0.4806
  145DOPC  H18S17262   3.293   7.391  14.476  0.8602  0.1443  0.4820
  145DOPC  H18T17263   3.338   7.542  14.577 -0.0144  0.5888 -2.2499
  145DOPC   C3317264   3.598   6.922  16.360  0.4363 -0.7714  0.8669
  145DOPC   H3X17265   3.693   6.959  16.318  0.6054 -1.7616  0.3293
  145DOPC   H3Y17266   3.542   7.009  16.400  0.0818  0.0047 -1.1862
  145DOPC   C3417267   3.518   6.861  16.238 -0.4872  0.5202 -0.6198
  145DOPC   H4X17268   3.452   6.937  16.192  2.1817  1.2841 -3.5290
  145DOPC   H4Y17269   3.440   6.790  16.271 -0.8813  0.7230 -1.1099
  145DOPC   C3517270   3.603   6.801  16.128  0.0487  0.2389 -0.5159
  145DOPC   H5X17271   3.685   6.735  16.164 -0.4633 -0.9422 -1.4576
  145DOPC   H5Y17272   3.656   6.889  16.086  0.1701  0.8034  0.7712
  145DOPC   C3617273   3.528   6.741  16.010  0.0330  0.7633  0.6889
  145DOPC   H6X17274   3.600   6.734  15.927  0.1103  2.9833  0.5042
  145DOPC   H6Y17275   3.485   6.641  16.030  0.2019  0.3494 -0.9005
  145DOPC   C3717276   3.404   6.814  15.953  0.2075 -0.0262 -0.2798
  145DOPC   H7X17277   3.327   6.817  16.033  1.5661 -0.2295  1.0714
  145DOPC   H7Y17278   3.436   6.919  15.936 -1.1542  0.1821 -1.8032
  145DOPC   C3817279   3.341   6.760  15.828  0.0850 -0.8073  0.8507
  145DOPC   H8X17280   3.254   6.827  15.812  0.7396  0.1155  1.0670
  145DOPC   H8Y17281   3.300   6.659  15.849  0.9129 -0.9340  1.9228
  145DOPC   C3917282   3.435   6.756  15.703  0.5611 -0.0336  0.1697
  145DOPC   H9X17283   3.500   6.671  15.679  1.2169  0.3684  0.5092
  145DOPC  C31017284   3.451   6.852  15.618 -0.5401 -0.7817 -0.4751
  145DOPC  H10X17285   3.511   6.840  15.526  1.4926 -0.3776  0.7286
  145DOPC  C31117286   3.383   6.981  15.628  0.0522 -0.5273  0.3130
  145DOPC  H11X17287   3.454   7.055  15.671 -1.8279  0.5435  1.7298
  145DOPC  H11Y17288   3.304   6.982  15.706  0.6906 -0.0511  0.9688
  145DOPC  C31217289   3.328   7.025  15.492 -0.7946 -0.4717 -0.4136
  145DOPC  H12X17290   3.270   7.119  15.506 -2.4350 -1.2648 -1.5121
  145DOPC  H12Y17291   3.260   6.954  15.439  1.4057 -1.9799 -1.3443
  145DOPC  C31317292   3.440   7.063  15.393 -0.3022 -0.2502  0.7198
  145DOPC  H13X17293   3.502   7.151  15.419  0.4929  0.4298 -2.9401
  145DOPC  H13Y17294   3.517   6.984  15.379 -0.2180 -0.5819  2.8119
  145DOPC  C31417295   3.389   7.109  15.253  0.0881 -0.7078  0.1971
  145DOPC  H14X17296   3.340   7.022  15.203 -2.3804  1.3150 -1.1893
  145DOPC  H14Y17297   3.306   7.183  15.257  0.7076  0.1526 -1.6193
  145DOPC  C31517298   3.514   7.161  15.174 -0.6586  0.4567  0.4684
  145DOPC  H15X17299   3.591   7.083  15.195 -1.8662 -0.0775  3.3502
  145DOPC  H15Y17300   3.559   7.253  15.217 -0.1839 -0.7153  2.6592
  145DOPC  C31617301   3.484   7.169  15.026  0.3470 -0.0513 -0.2985
  145DOPC  H16X17302   3.406   7.092  15.008  1.0090 -0.8941  0.3493
  145DOPC  H16Y17303   3.437   7.266  15.000  0.4120 -0.5902 -2.6604
  145DOPC  C31717304   3.594   7.142  14.926  0.1913  0.3705  1.0372
  145DOPC  H17X17305   3.557   7.170  14.825  1.6763 -1.9927 -0.2682
  145DOPC  H17Y17306   3.687   7.203  14.932  0.8298  0.0540 -2.8707
  145DOPC  C31817307   3.630   6.994  14.907  0.4070  0.3258 -0.5015
  145DOPC  H18X17308   3.707   6.978  14.985 -0.5342 -0.2525  0.3447
  145DOPC  H18Y17309   3.546   6.922  14.908 -0.9515  1.7833 -2.5397
  145DOPC  H18Z17310   3.685   6.984  14.811  0.0994  1.6025 -0.8299
  146DOPC     N17311   4.075   3.944  17.139 -0.7471 -0.2695  0.2357
  146DOPC   C1217312   3.976   3.837  17.108 -0.3335 -0.3702  0.0891
  146DOPC  H12A17313   4.010   3.787  17.019 -2.4052 -2.3797  0.3234
  146DOPC  H12B17314   3.875   3.869  17.084 -0.5609 -0.7245  0.5514
  146DOPC   C1317315   4.114   4.026  17.016  0.1518  0.0633  0.0336
  146DOPC  H13A17316   4.024   4.066  16.971  0.5008  0.2468 -0.5120
  146DOPC  H13B17317   4.192   4.097  17.037  2.1066 -2.0158  0.1665
  146DOPC  H13C17318   4.164   3.957  16.950  2.0687 -2.1500  3.5177
  146DOPC   C1417319   4.212   3.884  17.184 -0.3442  0.1319 -0.7439
  146DOPC  H14A17320   4.288   3.961  17.190 -0.4489  0.2359 -0.7331
  146DOPC  H14B17321   4.201   3.832  17.278  1.8798  0.4711 -0.2423
  146DOPC  H14C17322   4.251   3.815  17.110  1.6799 -0.9375  1.2133
  146DOPC   C1517323   4.024   4.031  17.250 -0.3729  0.0751 -0.2647
  146DOPC  H15A17324   3.927   4.065  17.218 -1.6244 -2.7052  0.2267
  146DOPC  H15B17325   4.101   4.096  17.288  1.8030 -2.1909 -0.5800
  146DOPC  H15C17326   3.994   3.971  17.336 -0.9630 -0.1072 -0.5967
  146DOPC   C1117327   3.943   3.723  17.215  0.7141  0.3941  0.5707
  146DOPC  H11A17328   3.921   3.768  17.314  1.0541  3.6210 -0.6748
  146DOPC  H11B17329   3.849   3.673  17.183  1.9705 -1.1072 -0.9687
  146DOPC     P17330   4.121   3.547  17.112  0.2967 -0.0414 -0.7193
  146DOPC   O1317331   4.065   3.412  17.091  0.0048 -0.5628  0.1002
  146DOPC   O1417332   4.261   3.554  17.154  0.0871  0.1573 -0.1629
  146DOPC   O1217333   4.036   3.622  17.221 -0.0633  0.4768 -0.1096
  146DOPC   O1117334   4.107   3.634  16.978  0.4298  0.1512  0.5584
  146DOPC    C117335   4.132   3.583  16.846 -0.5165  0.3397  0.1999
  146DOPC    HA17336   4.082   3.486  16.825  1.6122 -1.3249  2.2655
  146DOPC    HB17337   4.239   3.559  16.829 -0.3504  0.1446  1.3915
  146DOPC    C217338   4.104   3.700  16.734 -0.2694  0.2797 -1.0409
  146DOPC    HS17339   4.151   3.660  16.642  2.2652  1.2354 -0.2462
  146DOPC   O2117340   4.179   3.822  16.768 -0.7925 -0.1347 -0.1345
  146DOPC   C2117341   4.312   3.825  16.743  0.9049  0.0984 -0.8801
  146DOPC   O2217342   4.378   3.727  16.713  0.4360  0.5608 -0.5247
  146DOPC   C2217343   4.359   3.965  16.754  0.3540  0.2032  0.2228
  146DOPC   H2R17344   4.404   3.985  16.853  2.0746 -0.0647 -0.4689
  146DOPC   H2S17345   4.269   4.029  16.742 -0.5135 -1.1435 -0.7938
  146DOPC    C317346   3.951   3.737  16.710 -0.4171 -0.0578  0.1257
  146DOPC    HX17347   3.927   3.786  16.806  1.5434  1.8008 -0.2632
  146DOPC    HY17348   3.892   3.647  16.680 -1.4669  0.3910  0.7981
  146DOPC   O3117349   3.946   3.829  16.597  0.7045 -0.0245 -0.2308
  146DOPC   C3117350   3.837   3.906  16.600 -0.8155  0.6794 -0.2262
  146DOPC   O3217351   3.740   3.893  16.678 -0.1168 -0.1287  0.1304
  146DOPC   C3217352   3.858   4.021  16.511 -0.2988  0.5286  0.7911
  146DOPC   H2X17353   3.781   4.099  16.527  1.4478  2.8445 -1.2208
  146DOPC   H2Y17354   3.955   4.069  16.539  0.9803 -1.4693 -0.0195
  146DOPC   C2317355   4.469   4.012  16.650  0.0426  0.2424  0.0470
  146DOPC   H3R17356   4.573   3.974  16.662 -0.5592 -2.0935 -1.5377
  146DOPC   H3S17357   4.484   4.121  16.667  0.7392  0.1502  0.0625
  146DOPC   C2417358   4.431   3.995  16.500  0.9962 -0.6715  0.2404
  146DOPC   H4R17359   4.411   3.887  16.478 -1.0829 -0.2975  0.0254
  146DOPC   H4S17360   4.503   4.041  16.430  1.0297  1.8893  1.8375
  146DOPC   C2517361   4.292   4.066  16.466 -0.7186  0.2868 -0.1978
  146DOPC   H5R17362   4.280   4.145  16.543 -1.1424  0.7991 -0.7809
  146DOPC   H5S17363   4.214   3.988  16.469 -1.9497  1.3873 -1.9248
  146DOPC   C2617364   4.303   4.124  16.321 -0.9445 -0.1890 -0.7392
  146DOPC   H6R17365   4.320   4.037  16.254  0.3778 -0.2827 -0.3148
  146DOPC   H6S17366   4.394   4.183  16.294  0.5089 -1.5527  0.9205
  146DOPC   C2717367   4.184   4.212  16.283  0.0041 -0.7095  0.4047
  146DOPC   H7R17368   4.181   4.298  16.354 -0.6042 -1.4774  1.3442
  146DOPC   H7S17369   4.092   4.158  16.315  1.3957 -1.1513  4.2262
  146DOPC   C2817370   4.179   4.249  16.141  0.4197  0.3344  0.6214
  146DOPC   H8R17371   4.076   4.265  16.102  0.3647  0.0055  0.6318
  146DOPC   H8S17372   4.216   4.159  16.087  0.3095  1.2579 -1.0810
  146DOPC   C2917373   4.271   4.357  16.113 -0.0055 -0.0111 -0.4123
  146DOPC   H9R17374   4.371   4.334  16.154 -1.1681 -0.6002  2.2863
  146DOPC  C21017375   4.254   4.473  16.043  0.2176  0.0455  0.8568
  146DOPC  H10R17376   4.343   4.533  16.017 -0.8635  1.8409  1.1034
  146DOPC  C21117377   4.132   4.527  15.985  0.4690  0.9143 -0.2024
  146DOPC  H11R17378   4.039   4.489  16.031 -0.3291  1.9458 -0.9283
  146DOPC  H11S17379   4.121   4.508  15.876  1.0255 -0.6110 -0.0092
  146DOPC  C21217380   4.123   4.673  16.018  0.3175 -0.3291  0.4020
  146DOPC  H12R17381   4.214   4.725  15.981  1.1115 -1.6307  0.4571
  146DOPC  H12S17382   4.139   4.700  16.125  2.0148 -1.6557  0.5200
  146DOPC  C21317383   4.002   4.745  15.962 -1.1829  0.0714  0.0931
  146DOPC  H13R17384   3.910   4.690  15.990 -0.4161 -0.3057  2.0257
  146DOPC  H13S17385   4.003   4.750  15.851  0.7680 -0.1892  0.0502
  146DOPC  C21417386   3.980   4.882  16.019 -0.2720 -0.5133  0.2304
  146DOPC  H14R17387   3.990   4.895  16.129  1.7966  3.1782 -0.2090
  146DOPC  H14S17388   3.884   4.918  15.975  1.1480  1.1997 -1.6483
  146DOPC  C21517389   4.086   4.980  15.979 -0.2400  0.1874  0.1539
  146DOPC  H15R17390   4.104   4.967  15.870 -3.2223  0.1416 -0.4087
  146DOPC  H15S17391   4.179   4.966  16.038 -0.9959 -0.8680  1.1293
  146DOPC  C21617392   4.041   5.125  15.981  0.5508 -0.8020  0.2499
  146DOPC  H16R17393   3.942   5.128  15.929  0.8571  0.5383 -0.3005
  146DOPC  H16S17394   4.120   5.178  15.924  0.3032 -0.0281  0.6238
  146DOPC  C21717395   4.007   5.182  16.124 -0.5077 -0.3585  0.0772
  146DOPC  H17R17396   4.091   5.156  16.192  0.5721 -0.3420 -1.2261
  146DOPC  H17S17397   3.921   5.127  16.169 -1.1536  0.8175  0.3382
  146DOPC  C21817398   3.977   5.332  16.118 -0.5225 -0.3663 -0.5575
  146DOPC  H18R17399   3.966   5.365  16.224 -1.5277 -1.4666 -0.2921
  146DOPC  H18S17400   3.882   5.352  16.066 -0.0650  0.7571 -0.9802
  146DOPC  H18T17401   4.057   5.391  16.071 -0.0752 -1.1151 -0.7616
  146DOPC   C3317402   3.864   3.980  16.365  0.2280 -0.5028 -0.1515
  146DOPC   H3X17403   3.939   3.899  16.351  1.5642  0.6757  0.0446
  146DOPC   H3Y17404   3.891   4.065  16.299  0.7795 -0.3585  0.2612
  146DOPC   C3417405   3.729   3.926  16.308  0.3277 -0.1370  0.0018
  146DOPC   H4X17406   3.652   3.987  16.359  1.4141  0.1671  1.3251
  146DOPC   H4Y17407   3.705   3.824  16.345 -1.0765  0.0327 -0.3836
  146DOPC   C3517408   3.721   3.937  16.153 -0.0728  0.5297  0.2611
  146DOPC   H5X17409   3.794   3.875  16.097  0.9662  2.2547 -0.3880
  146DOPC   H5Y17410   3.749   4.037  16.114 -1.5515  0.6423 -0.6232
  146DOPC   C3617411   3.573   3.918  16.108  0.4778  0.0086 -0.3592
  146DOPC   H6X17412   3.569   3.944  16.001 -0.1669 -1.2631 -0.6588
  146DOPC   H6Y17413   3.544   3.814  16.136 -1.3693  0.6492  0.1997
  146DOPC   C3717414   3.473   4.017  16.168  0.2792 -0.3152 -0.3124
  146DOPC   H7X17415   3.482   4.014  16.279  1.2435 -0.4665 -0.3891
  146DOPC   H7Y17416   3.490   4.122  16.137 -0.8249 -0.0509 -0.0667
  146DOPC   C3817417   3.326   3.998  16.131 -0.2264 -0.3340 -0.4242
  146DOPC   H8X17418   3.267   4.069  16.193  0.3084  0.2890 -0.6106
  146DOPC   H8Y17419   3.297   3.899  16.171 -0.7837 -0.1360 -0.3251
  146DOPC   C3917420   3.302   4.017  15.984  0.1104 -0.2775 -0.4178
  146DOPC   H9X17421   3.313   4.118  15.942 -0.0914  0.4329  1.1875
  146DOPC  C31017422   3.264   3.930  15.887  0.3250  0.0352 -0.3432
  146DOPC  H10X17423   3.277   3.949  15.780 -0.3029  2.8148 -0.0191
  146DOPC  C31117424   3.233   3.782  15.918  0.2677 -0.4543  0.1815
  146DOPC  H11X17425   3.128   3.748  15.913  0.2179 -0.3464  0.4658
  146DOPC  H11Y17426   3.258   3.760  16.024 -0.2704  1.8428  0.8366
  146DOPC  C31217427   3.328   3.693  15.836  0.1330 -0.7098  0.1115
  146DOPC  H12X17428   3.323   3.592  15.883  1.5375 -0.3236  1.1699
  146DOPC  H12Y17429   3.430   3.735  15.833  0.4965 -1.5098  0.7972
  146DOPC  C31317430   3.285   3.664  15.688 -1.0751 -0.6087  0.1066
  146DOPC  H13X17431   3.180   3.630  15.695 -1.5078  0.6260 -0.1822
  146DOPC  H13Y17432   3.280   3.760  15.632 -1.4195 -1.2090 -0.9168
  146DOPC  C31417433   3.366   3.562  15.616  0.1566  0.3395 -0.3227
  146DOPC  H14X17434   3.473   3.591  15.611 -0.5369  3.2214 -0.2582
  146DOPC  H14Y17435   3.367   3.477  15.688 -4.4437  0.5736  0.3466
  146DOPC  C31517436   3.319   3.513  15.473  0.2500  0.4044 -0.0846
  146DOPC  H15X17437   3.310   3.600  15.403 -0.4258  1.6147  1.4508
  146DOPC  H15Y17438   3.218   3.466  15.476  0.4182  0.0228 -0.3054
  146DOPC  C31617439   3.406   3.398  15.414 -0.0412  0.2461  0.3650
  146DOPC  H16X17440   3.361   3.368  15.317  0.0877  1.3017 -0.0343
  146DOPC  H16Y17441   3.500   3.452  15.388 -1.3615  1.8465 -1.3181
  146DOPC  C31717442   3.426   3.271  15.499  0.0531  0.2960  0.1152
  146DOPC  H17X17443   3.469   3.292  15.599  1.5571 -0.9913 -0.2066
  146DOPC  H17Y17444   3.326   3.235  15.529  0.6566 -2.2022 -0.5464
  146DOPC  C31817445   3.506   3.164  15.427 -0.5292 -0.6087 -0.4910
  146DOPC  H18X17446   3.450   3.139  15.335 -0.3986 -1.4828 -0.3351
  146DOPC  H18Y17447   3.610   3.187  15.396  0.8851 -1.5331  3.0050
  146DOPC  H18Z17448   3.521   3.079  15.496  1.9003 -0.8673 -1.2190
  147DOPC     N17449   1.164   4.135  17.742 -0.3179 -0.3243  0.0703
  147DOPC   C1217450   1.065   4.027  17.731 -1.1681 -0.4332 -0.5450
  147DOPC  H12A17451   1.009   4.024  17.824 -0.0458  0.6752  0.1877
  147DOPC  H12B17452   1.115   3.931  17.734  1.1866  0.6982 -1.0467
  147DOPC   C1317453   1.115   4.272  17.772  0.3416  0.6686  0.5818
  147DOPC  H13A17454   1.046   4.275  17.854 -0.1274 -1.6357  0.3314
  147DOPC  H13B17455   1.192   4.347  17.788  0.6846  0.6148 -0.6768
  147DOPC  H13C17456   1.059   4.301  17.684 -1.7610 -0.8137  1.3714
  147DOPC   C1417457   1.246   4.146  17.621 -0.0898 -0.1829  0.1820
  147DOPC  H14A17458   1.327   4.217  17.624 -0.4057  0.3705 -2.0670
  147DOPC  H14B17459   1.290   4.049  17.604 -1.9990 -1.0957  0.1824
  147DOPC  H14C17460   1.202   4.187  17.530  1.6088  1.9176  0.2229
  147DOPC   C1517461   1.256   4.112  17.853  0.4326 -0.2208 -0.7129
  147DOPC  H15A17462   1.345   4.164  17.821 -0.4344  0.5000 -2.0156
  147DOPC  H15B17463   1.303   4.015  17.853 -1.8938 -1.4198  0.1622
  147DOPC  H15C17464   1.216   4.136  17.951  2.2865 -2.2848  0.6326
  147DOPC   C1117465   0.965   4.035  17.615 -0.4116 -0.1752  0.7653
  147DOPC  H11A17466   0.899   3.946  17.616 -1.0975  0.2603 -0.9750
  147DOPC  H11B17467   0.891   4.116  17.632 -2.0006 -1.2319 -0.7228
  147DOPC     P17468   0.984   4.165  17.395  0.0225 -0.0112 -0.0051
  147DOPC   O1317469   1.052   4.144  17.266  0.0064  0.2593  0.2167
  147DOPC   O1417470   1.010   4.296  17.460 -0.4199 -0.2209 -0.6290
  147DOPC   O1217471   1.027   4.040  17.484  0.3922 -0.1681  0.2977
  147DOPC   O1117472   0.829   4.131  17.376  0.5333 -0.2700 -0.1472
  147DOPC    C117473   0.777   4.001  17.352 -0.7572  0.5951  0.3082
  147DOPC    HA17474   0.693   3.978  17.420  0.6928 -0.3588  1.8464
  147DOPC    HB17475   0.848   3.917  17.368  0.2383  1.8922  3.6504
  147DOPC    C217476   0.716   4.005  17.210 -0.4960  0.3614  0.3034
  147DOPC    HS17477   0.672   3.904  17.193  2.4769 -1.0588  0.4087
  147DOPC   O2117478   0.816   4.037  17.109 -0.1104 -0.1348  0.7654
  147DOPC   C2117479   0.913   3.947  17.097  0.2224  0.3814 -0.5011
  147DOPC   O2217480   0.916   3.835  17.139  0.5534  0.4869 -0.8529
  147DOPC   C2217481   1.025   4.005  17.009 -0.2403 -1.0682 -0.5795
  147DOPC   H2R17482   1.116   3.986  17.068 -1.2162  0.6650  1.5956
  147DOPC   H2S17483   1.007   4.114  16.998 -0.0998 -1.1442 -1.6686
  147DOPC    C317484   0.604   4.115  17.204 -0.8065  0.5114 -0.2244
  147DOPC    HX17485   0.655   4.213  17.214  1.6909 -0.7603  0.3688
  147DOPC    HY17486   0.532   4.119  17.288  1.1777  0.6366  1.5455
  147DOPC   O3117487   0.534   4.129  17.085  0.0552  0.2879  0.9805
  147DOPC   C3117488   0.450   4.032  17.060  0.3477 -0.6531 -0.5076
  147DOPC   O3217489   0.421   3.939  17.140  0.3630 -0.3103  0.3691
  147DOPC   C3217490   0.411   4.038  16.909  0.1016 -1.0205  0.5073
  147DOPC   H2X17491   0.415   4.143  16.871  0.4212 -1.3571 -0.4007
  147DOPC   H2Y17492   0.473   3.970  16.847  0.7618 -0.7521  0.8592
  147DOPC   C2317493   1.043   3.932  16.882 -0.5630  0.0886 -0.2629
  147DOPC   H3R17494   0.948   3.928  16.825 -1.9236  0.8528  1.8104
  147DOPC   H3S17495   1.075   3.829  16.908  0.1383  0.2820 -0.3337
  147DOPC   C2417496   1.148   3.989  16.789 -0.1484 -0.3359  0.1551
  147DOPC   H4R17497   1.163   3.922  16.702  1.0447 -0.8035  0.7018
  147DOPC   H4S17498   1.249   3.989  16.836 -0.9630 -1.4595  2.0202
  147DOPC   C2517499   1.112   4.126  16.730 -0.4462  0.1504  0.0605
  147DOPC   H5R17500   1.078   4.192  16.812 -0.2681  0.7063 -0.3024
  147DOPC   H5S17501   1.035   4.111  16.652  1.6661 -0.4717 -2.0359
  147DOPC   C2617502   1.230   4.196  16.652  0.2174 -0.0277  0.0867
  147DOPC   H6R17503   1.223   4.158  16.548 -3.7354 -1.1829  0.5880
  147DOPC   H6S17504   1.326   4.164  16.697  1.5557  3.1191 -0.3004
  147DOPC   C2717505   1.237   4.350  16.663  0.6794 -0.3955 -0.4297
  147DOPC   H7R17506   1.342   4.382  16.647  0.9799 -0.7881  0.6292
  147DOPC   H7S17507   1.217   4.364  16.771  0.1640  0.0587 -0.5819
  147DOPC   C2817508   1.147   4.432  16.571 -0.0441 -0.1332 -0.0565
  147DOPC   H8R17509   1.045   4.393  16.589  0.2395 -1.0641 -0.4153
  147DOPC   H8S17510   1.182   4.405  16.469 -1.8070 -1.8059 -0.2848
  147DOPC   C2917511   1.164   4.578  16.595  0.6900 -0.2242  0.0094
  147DOPC   H9R17512   1.260   4.610  16.640  0.8238 -1.4809  0.6693
  147DOPC  C21017513   1.061   4.669  16.571 -0.4861 -0.0882  0.2650
  147DOPC  H10R17514   1.087   4.775  16.585 -2.3784  0.4795 -0.2777
  147DOPC  C21117515   0.913   4.646  16.532 -0.0513  0.4170 -0.1742
  147DOPC  H11R17516   0.844   4.707  16.595  1.3690 -0.7830  2.7498
  147DOPC  H11S17517   0.889   4.539  16.545  0.6463  0.1651 -0.8752
  147DOPC  C21217518   0.893   4.656  16.378 -0.2178 -0.4881  0.1477
  147DOPC  H12R17519   0.944   4.747  16.340  0.8638 -0.5550  1.3976
  147DOPC  H12S17520   0.787   4.656  16.343 -0.0022  0.7757 -0.5772
  147DOPC  C21317521   0.961   4.546  16.291 -0.5911  0.2595  0.0837
  147DOPC  H13R17522   0.917   4.446  16.312 -0.0034  0.0697  0.4212
  147DOPC  H13S17523   1.071   4.543  16.304 -0.6166 -0.4523  0.1696
  147DOPC  C21417524   0.941   4.563  16.143 -0.2463  0.2464  0.1171
  147DOPC  H14R17525   0.984   4.660  16.112  0.2784  1.1781  3.3194
  147DOPC  H14S17526   0.833   4.573  16.118 -0.0275  0.6781 -0.6738
  147DOPC  C21517527   1.003   4.450  16.059 -0.3619  0.5757  0.6149
  147DOPC  H15R17528   0.942   4.360  16.081 -0.2986 -0.0255 -1.5082
  147DOPC  H15S17529   1.108   4.430  16.089  0.8170 -1.0712 -3.8516
  147DOPC  C21617530   1.007   4.470  15.909  0.6279 -0.1816 -0.3213
  147DOPC  H16R17531   0.913   4.510  15.865  1.4128  0.1692 -1.7204
  147DOPC  H16S17532   1.017   4.376  15.850 -0.0882  0.9676 -2.3832
  147DOPC  C21717533   1.127   4.559  15.882 -0.8125 -0.2352  0.0496
  147DOPC  H17R17534   1.218   4.517  15.930 -0.7824 -0.6087 -0.3305
  147DOPC  H17S17535   1.111   4.654  15.937 -1.9683  0.4224 -1.3505
  147DOPC  C21817536   1.131   4.591  15.733  0.1291  0.1920  0.0606
  147DOPC  H18R17537   1.225   4.638  15.698  1.4050 -1.0561  1.6745
  147DOPC  H18S17538   1.044   4.659  15.723  0.0617  0.2133  0.7365
  147DOPC  H18T17539   1.116   4.499  15.672 -0.2822 -0.2572  0.8202
  147DOPC   C3317540   0.271   3.988  16.878  0.3260  0.7076 -0.6162
  147DOPC   H3X17541   0.197   4.038  16.943 -0.5282 -3.3439  1.8980
  147DOPC   H3Y17542   0.265   3.879  16.896 -0.0152  0.9443  0.8352
  147DOPC   C3417543   0.224   4.013  16.732  0.1698  0.3199  1.0142
  147DOPC   H4X17544   0.225   4.122  16.712 -0.4059  0.6987  2.8744
  147DOPC   H4Y17545   0.120   3.978  16.720 -0.0285  1.0475  0.5104
  147DOPC   C3517546   0.301   3.942  16.622 -0.3324 -0.0773 -0.4631
  147DOPC   H5X17547   0.296   3.831  16.621  0.6711 -0.1676  1.0290
  147DOPC   H5Y17548   0.409   3.962  16.644 -0.6013 -0.1640  1.0555
  147DOPC   C3617549   0.262   3.999  16.484 -0.8752 -0.4792  0.0539
  147DOPC   H6X17550   0.155   3.989  16.459 -0.8498  1.2336 -0.8755
  147DOPC   H6Y17551   0.266   4.110  16.493  0.6812 -0.4535 -0.5155
  147DOPC   C3717552   0.354   3.956  16.365  0.2561  0.0239 -0.2204
  147DOPC   H7X17553   0.456   4.000  16.370  0.5689 -0.4047 -2.1537
  147DOPC   H7Y17554   0.361   3.845  16.362 -2.0072 -0.1551 -0.6274
  147DOPC   C3817555   0.312   4.009  16.225 -0.2518 -0.5112 -0.2448
  147DOPC   H8X17556   0.397   4.009  16.153  0.8876  4.9714  0.6180
  147DOPC   H8Y17557   0.296   4.118  16.239  0.1999 -0.3218 -1.1408
  147DOPC   C3917558   0.184   3.943  16.182 -0.6195  0.0863  0.7394
  147DOPC   H9X17559   0.127   3.898  16.264  0.3125 -1.0893  0.7590
  147DOPC  C31017560   0.142   3.932  16.054  0.1069  0.5311 -0.9741
  147DOPC  H10X17561   0.058   3.865  16.030  1.8826 -0.8327 -4.0211
  147DOPC  C31117562   0.215   3.984  15.934 -1.1193 -0.3645  0.1490
  147DOPC  H11X17563   0.267   3.899  15.884  0.3639  1.4811 -1.5826
  147DOPC  H11Y17564   0.291   4.058  15.968 -0.4083 -0.4790 -1.1155
  147DOPC  C31217565   0.111   4.035  15.835  0.4737  0.1005  0.1568
  147DOPC  H12X17566   0.168   4.086  15.754  0.2214 -0.4482 -0.3709
  147DOPC  H12Y17567   0.048   4.113  15.884  0.1730 -0.5305  0.7850
  147DOPC  C31317568   0.020   3.942  15.760  0.1358 -0.5064 -0.1668
  147DOPC  H13X17569   0.084   3.901  15.680 -0.0559  3.1454 -2.4457
  147DOPC  H13Y17570  -0.030   3.873  15.831 -1.4296 -1.2554 -1.9126
  147DOPC  C31417571  -0.098   4.012  15.685 -0.2521  0.0577 -0.3794
  147DOPC  H14X17572  -0.167   4.046  15.765  0.5304  0.7806 -0.0016
  147DOPC  H14Y17573  -0.065   4.100  15.626 -0.3129 -0.5222 -1.3002
  147DOPC  C31517574  -0.173   3.923  15.589 -0.5352 -0.1803  0.3003
  147DOPC  H15X17575  -0.212   3.825  15.625 -0.7165 -0.9802 -1.9466
  147DOPC  H15Y17576  -0.095   3.881  15.522  0.7166 -0.7759  2.0367
  147DOPC  C31617577  -0.293   3.994  15.520  0.0415  0.2890  0.3031
  147DOPC  H16X17578  -0.331   3.925  15.442  0.9617  0.4002 -0.2660
  147DOPC  H16Y17579  -0.372   4.018  15.594 -0.5485  0.6970 -0.4511
  147DOPC  C31717580  -0.255   4.131  15.456 -0.2129  0.4223  0.3239
  147DOPC  H17X17581  -0.338   4.174  15.395 -0.0343 -2.4484 -2.1392
  147DOPC  H17Y17582  -0.229   4.197  15.541 -0.5132  0.3687  0.4575
  147DOPC  C31817583  -0.138   4.118  15.358  0.0310  0.0077  0.1790
  147DOPC  H18X17584  -0.040   4.102  15.407  1.1141 -0.0131 -1.9033
  147DOPC  H18Y17585  -0.155   4.023  15.303 -1.3406  0.3680 -0.0556
  147DOPC  H18Z17586  -0.130   4.197  15.280  1.0793 -1.6937 -1.5171
  148DOPC     N17587   1.346   7.380  17.264  0.6190 -0.7581  0.6466
  148DOPC   C1217588   1.273   7.285  17.164 -0.4275  0.2005  0.0137
  148DOPC  H12A17589   1.328   7.192  17.159 -1.1126 -0.1755 -0.8799
  148DOPC  H12B17590   1.284   7.324  17.064 -1.1756  0.8020  0.1564
  148DOPC   C1317591   1.321   7.312  17.402 -0.4590  0.7945  0.3247
  148DOPC  H13A17592   1.354   7.210  17.411 -0.6192  0.3675 -2.7196
  148DOPC  H13B17593   1.362   7.372  17.482 -0.6447  1.3729 -0.0034
  148DOPC  H13C17594   1.215   7.309  17.423 -0.8348  0.4613 -1.4342
  148DOPC   C1417595   1.275   7.514  17.270  0.1855  0.2401 -0.2235
  148DOPC  H14A17596   1.296   7.566  17.362  2.5149  0.3877 -0.7686
  148DOPC  H14B17597   1.313   7.578  17.192 -2.3485  0.3199 -1.4793
  148DOPC  H14C17598   1.167   7.511  17.268  0.1046 -1.0954  2.3507
  148DOPC   C1517599   1.487   7.386  17.236  0.1316  0.6388  0.1104
  148DOPC  H15A17600   1.531   7.425  17.326 -1.0454 -0.7325  1.3340
  148DOPC  H15B17601   1.502   7.448  17.149 -1.6442  0.2538 -0.5274
  148DOPC  H15C17602   1.528   7.288  17.218 -1.6546  0.1977 -1.9530
  148DOPC   C1117603   1.128   7.255  17.186 -0.7841 -0.0755 -0.2017
  148DOPC  H11A17604   1.087   7.175  17.120 -0.5607  0.0781 -0.5276
  148DOPC  H11B17605   1.119   7.216  17.290  0.6068  2.6264  1.0225
  148DOPC     P17606   1.003   7.443  17.041 -0.1582  0.4238 -0.1944
  148DOPC   O1317607   0.993   7.584  17.068  0.2526  0.3176 -0.3303
  148DOPC   O1417608   0.881   7.374  16.995  0.2734 -0.1658 -0.0346
  148DOPC   O1217609   1.045   7.371  17.178 -0.5960  0.1909  0.4952
  148DOPC   O1117610   1.118   7.409  16.945 -0.8487  0.9755  0.1794
  148DOPC    C117611   1.217   7.510  16.896 -0.1097 -0.1708  0.2818
  148DOPC    HA17612   1.317   7.462  16.882 -0.5397 -2.7552  4.3117
  148DOPC    HB17613   1.233   7.583  16.978  0.9555 -1.5753  1.3730
  148DOPC    C217614   1.154   7.583  16.772  0.3127  0.4557 -0.5247
  148DOPC    HS17615   1.060   7.624  16.814  1.4565  0.6812  1.9684
  148DOPC   O2117616   1.128   7.485  16.675  0.2152 -0.0527  0.1041
  148DOPC   C2117617   1.005   7.449  16.650  0.6337  0.4860 -0.4429
  148DOPC   O2217618   0.905   7.484  16.710 -0.2591  0.2875 -0.1639
  148DOPC   C2217619   1.009   7.322  16.564 -0.1184 -0.2065 -0.2446
  148DOPC   H2R17620   0.967   7.242  16.628 -0.5026 -0.2525 -0.5530
  148DOPC   H2S17621   1.119   7.303  16.561  0.1745  0.4692  2.5643
  148DOPC    C317622   1.233   7.698  16.712  0.7114  0.6068 -0.8315
  148DOPC    HX17623   1.322   7.653  16.664 -0.6293 -2.4121 -0.7267
  148DOPC    HY17624   1.269   7.763  16.795 -0.1269 -3.3165  3.0137
  148DOPC   O3117625   1.147   7.765  16.615 -0.2666  0.5116 -0.0670
  148DOPC   C3117626   1.057   7.856  16.655 -0.4742 -0.0131 -0.6481
  148DOPC   O3217627   1.011   7.870  16.765  0.2677  0.5645 -0.3757
  148DOPC   C3217628   1.006   7.945  16.537 -0.1575  0.4788  0.3633
  148DOPC   H2X17629   1.024   8.051  16.565  1.3418  0.3976 -0.2144
  148DOPC   H2Y17630   1.055   7.918  16.441 -2.6819 -1.5724 -0.4825
  148DOPC   C2317631   0.931   7.316  16.435 -0.0431  0.4174  0.0556
  148DOPC   H3R17632   0.835   7.371  16.448 -1.0786 -1.4170  0.7827
  148DOPC   H3S17633   0.901   7.211  16.413  0.2332 -0.1883  2.3142
  148DOPC   C2417634   1.006   7.374  16.320 -0.7073 -0.7987  0.1977
  148DOPC   H4R17635   1.099   7.313  16.315  0.5942  1.1145 -0.2779
  148DOPC   H4S17636   1.023   7.481  16.343 -1.2071 -0.9734  1.4521
  148DOPC   C2517637   0.934   7.368  16.185 -0.2014  0.7725 -0.5484
  148DOPC   H5R17638   0.934   7.260  16.156  1.8916  0.4828  0.3764
  148DOPC   H5S17639   0.990   7.421  16.105  2.1886 -0.5671  0.1375
  148DOPC   C2617640   0.790   7.423  16.193 -0.4575 -0.1099  0.7229
  148DOPC   H6R17641   0.806   7.529  16.223  0.7203  1.2166 -3.7591
  148DOPC   H6S17642   0.731   7.366  16.268  0.5971 -3.0234 -0.4852
  148DOPC   C2717643   0.726   7.432  16.053  0.5601  0.2974 -0.5538
  148DOPC   H7R17644   0.628   7.481  16.074  0.5677  0.7471 -1.4932
  148DOPC   H7S17645   0.717   7.327  16.017  1.5010 -0.1837  0.5501
  148DOPC   C2817646   0.794   7.525  15.947 -0.3116  0.4132 -0.5486
  148DOPC   H8R17647   0.741   7.524  15.850 -0.5745  1.3854 -0.4288
  148DOPC   H8S17648   0.892   7.487  15.912 -1.3627 -3.5210  0.2228
  148DOPC   C2917649   0.799   7.667  15.992  0.4081 -0.1928 -0.0223
  148DOPC   H9R17650   0.893   7.710  16.027 -0.4884  1.5560  0.3600
  148DOPC  C21017651   0.700   7.758  15.983  0.5685 -0.0967 -0.4111
  148DOPC  H10R17652   0.722   7.862  16.010  3.0187 -0.3962 -1.0281
  148DOPC  C21117653   0.573   7.741  15.914 -0.2856  0.3842 -0.3188
  148DOPC  H11R17654   0.493   7.776  15.982 -0.7039 -2.7872  1.0270
  148DOPC  H11S17655   0.553   7.632  15.903 -2.1908  0.5078  1.3825
  148DOPC  C21217656   0.553   7.819  15.781 -0.2307  0.0438 -0.4027
  148DOPC  H12R17657   0.572   7.928  15.793 -0.4591 -0.1123  1.6698
  148DOPC  H12S17658   0.447   7.809  15.747 -0.4336  0.0299  0.2224
  148DOPC  C21317659   0.629   7.759  15.664 -0.4574  0.0997  0.8958
  148DOPC  H13R17660   0.635   7.649  15.672  2.4488 -0.0993 -1.9124
  148DOPC  H13S17661   0.737   7.787  15.662  0.3136 -1.9143  4.5806
  148DOPC  C21417662   0.575   7.800  15.526  0.0158 -0.4317 -0.0503
  148DOPC  H14R17663   0.557   7.910  15.517  1.7182  0.0193  1.5398
  148DOPC  H14S17664   0.474   7.755  15.516 -0.9099  1.6092 -0.6106
  148DOPC  C21517665   0.659   7.745  15.409  0.0066 -0.7409  0.1583
  148DOPC  H15R17666   0.591   7.744  15.322 -0.0096 -1.0976  0.1707
  148DOPC  H15S17667   0.687   7.639  15.427  0.2016 -0.7432 -0.1417
  148DOPC  C21617668   0.781   7.828  15.367 -0.5027  0.8275 -0.1982
  148DOPC  H16R17669   0.819   7.779  15.275 -1.9986 -0.8571  0.0270
  148DOPC  H16S17670   0.862   7.813  15.442 -0.3634 -1.4713 -0.7300
  148DOPC  C21717671   0.749   7.973  15.346 -0.0229 -0.5833 -0.2184
  148DOPC  H17R17672   0.703   8.005  15.442  1.0195  1.0878 -0.2336
  148DOPC  H17S17673   0.680   7.995  15.262  1.5439  1.6348 -1.0182
  148DOPC  C21817674   0.870   8.062  15.319 -0.3260 -0.2693  0.0165
  148DOPC  H18R17675   0.895   8.054  15.211 -1.2622 -1.6316 -0.1248
  148DOPC  H18S17676   0.961   8.038  15.379 -0.1524 -2.4068 -1.0024
  148DOPC  H18T17677   0.830   8.162  15.342  0.9469  0.0355  1.0364
  148DOPC   C3317678   0.855   7.926  16.523 -0.1250  0.1255 -0.2801
  148DOPC   H3X17679   0.803   7.987  16.445 -2.5216 -0.1729  0.9823
  148DOPC   H3Y17680   0.808   7.968  16.615 -0.2386  2.6422 -1.3995
  148DOPC   C3417681   0.820   7.781  16.517  0.9569 -1.1688 -0.0386
  148DOPC   H4X17682   0.848   7.718  16.604  1.1789 -0.6047  0.3056
  148DOPC   H4Y17683   0.860   7.739  16.422  1.1125  0.3839 -0.6955
  148DOPC   C3517684   0.671   7.761  16.516 -0.1380  0.3433 -0.2135
  148DOPC   H5X17685   0.621   7.848  16.469 -1.4965 -1.8925 -3.2938
  148DOPC   H5Y17686   0.623   7.758  16.616 -2.1266  2.6938 -1.0211
  148DOPC   C3617687   0.625   7.635  16.435  0.0113  0.1874  0.6523
  148DOPC   H6X17688   0.643   7.658  16.328  0.2526 -1.9644  0.2017
  148DOPC   H6Y17689   0.676   7.544  16.472  1.2771  0.9067  0.7540
  148DOPC   C3717690   0.467   7.621  16.440  0.2121 -0.8822  0.3090
  148DOPC   H7X17691   0.446   7.529  16.499 -1.4792 -0.7957 -0.0996
  148DOPC   H7Y17692   0.424   7.700  16.507  0.2936 -0.5931  0.0221
  148DOPC   C3817693   0.398   7.626  16.303 -0.0397  0.0400 -1.2524
  148DOPC   H8X17694   0.437   7.547  16.235  3.2034  1.9905 -1.8783
  148DOPC   H8Y17695   0.432   7.723  16.260  1.1716 -0.3599 -1.2460
  148DOPC   C3917696   0.245   7.624  16.317  0.2317  0.0332 -0.4249
  148DOPC   H9X17697   0.208   7.671  16.409  1.4853 -0.8967  0.5919
  148DOPC  C31017698   0.166   7.595  16.210 -0.5282  0.4428  0.1700
  148DOPC  H10X17699   0.056   7.603  16.215 -0.6086 -1.0263  3.6717
  148DOPC  C31117700   0.219   7.541  16.082 -0.0433  0.3176  1.4184
  148DOPC  H11X17701   0.189   7.434  16.074 -0.2327  0.4752 -0.3199
  148DOPC  H11Y17702   0.328   7.547  16.062 -0.2167 -0.1000  0.2947
  148DOPC  C31217703   0.151   7.602  15.954  0.5940  0.0049 -0.1455
  148DOPC  H12X17704   0.042   7.593  15.971  0.9767 -1.0439  2.3181
  148DOPC  H12Y17705   0.188   7.542  15.868  0.6012  1.4858 -1.2168
  148DOPC  C31317706   0.201   7.743  15.928 -0.0901  0.1116 -0.0043
  148DOPC  H13X17707   0.194   7.803  16.021 -2.2580  1.4670 -0.9489
  148DOPC  H13Y17708   0.310   7.725  15.914  0.2508  1.5789  0.5995
  148DOPC  C31417709   0.117   7.811  15.816  0.0647 -0.1278  0.0875
  148DOPC  H14X17710   0.125   7.744  15.727  1.1371  2.7151 -2.1217
  148DOPC  H14Y17711   0.012   7.815  15.853  0.5876 -1.2161  1.8270
  148DOPC  C31517712   0.173   7.948  15.774 -0.4081  0.5135  0.5094
  148DOPC  H15X17713   0.274   7.954  15.819  0.6887 -0.2254 -1.7065
  148DOPC  H15Y17714   0.102   8.018  15.822 -2.4865 -0.3578 -1.1350
  148DOPC  C31617715   0.187   7.989  15.622  0.7052  0.4405  0.1745
  148DOPC  H16X17716   0.209   7.897  15.564 -3.0888  0.1831 -1.1225
  148DOPC  H16Y17717   0.089   8.022  15.583  0.0070  1.0298  2.2856
  148DOPC  C31717718   0.287   8.107  15.604 -0.0140  0.1519 -0.0286
  148DOPC  H17X17719   0.245   8.208  15.621 -1.5803 -0.2711 -1.1371
  148DOPC  H17Y17720   0.369   8.079  15.673 -1.0871 -2.4002  0.3326
  148DOPC  C31817721   0.342   8.099  15.460 -0.0328 -0.6241 -0.0025
  148DOPC  H18X17722   0.272   8.136  15.382  0.2366 -2.9041 -1.4080
  148DOPC  H18Y17723   0.429   8.167  15.448 -0.7527  0.2830 -0.2199
  148DOPC  H18Z17724   0.366   7.993  15.437 -1.1503 -0.7411 -0.7042
  149DOPC     N17725   1.186   3.690  17.371 -0.3739  0.4817 -0.4983
  149DOPC   C1217726   1.130   3.638  17.240  0.1111  0.2949 -0.0636
  149DOPC  H12A17727   1.060   3.712  17.203 -2.1142 -2.6873 -2.2771
  149DOPC  H12B17728   1.064   3.555  17.258 -1.4578  1.3154 -0.8690
  149DOPC   C1317729   1.285   3.796  17.351 -0.2024  0.0631  0.1627
  149DOPC  H13A17730   1.355   3.758  17.279 -2.0960 -0.1121 -1.6858
  149DOPC  H13B17731   1.253   3.885  17.300  1.5174  1.1047  0.8319
  149DOPC  H13C17732   1.330   3.836  17.441  0.7733 -0.5699 -0.0371
  149DOPC   C1417733   1.253   3.574  17.435 -1.0633 -0.4730 -0.4641
  149DOPC  H14A17734   1.347   3.546  17.390 -2.1425 -0.7411 -2.7230
  149DOPC  H14B17735   1.274   3.606  17.536  0.0861  0.9272 -1.0994
  149DOPC  H14C17736   1.187   3.492  17.457 -1.0770 -0.4752 -0.5143
  149DOPC   C1517737   1.085   3.753  17.461 -0.2971 -0.0161  0.1470
  149DOPC  H15A17738   0.991   3.699  17.457 -0.8759  0.9737 -0.1680
  149DOPC  H15B17739   1.058   3.854  17.432  0.2131  0.5385  1.5546
  149DOPC  H15C17740   1.131   3.751  17.558  1.3740 -0.2991 -0.6190
  149DOPC   C1117741   1.225   3.585  17.129  0.3699  0.3168  0.5893
  149DOPC  H11A17742   1.165   3.570  17.037  0.5516 -0.3586  0.5815
  149DOPC  H11B17743   1.306   3.655  17.098  1.0029 -1.1551 -1.2410
  149DOPC     P17744   1.212   3.327  17.189 -0.0549 -0.3033 -0.3704
  149DOPC   O1317745   1.105   3.346  17.284 -0.6121 -0.2283 -0.3962
  149DOPC   O1417746   1.316   3.225  17.236  0.1180  0.1945 -0.1347
  149DOPC   O1217747   1.293   3.465  17.162  0.3908  0.3565 -0.6454
  149DOPC   O1117748   1.160   3.301  17.048  0.0921 -0.0823 -0.0909
  149DOPC    C117749   1.236   3.230  16.948 -0.3850 -1.0670 -0.7421
  149DOPC    HA17750   1.170   3.154  16.900 -0.7599 -1.1595 -0.0937
  149DOPC    HB17751   1.318   3.171  16.993  0.4679  0.8046  0.3060
  149DOPC    C217752   1.303   3.337  16.852 -0.0179 -0.7567  0.5974
  149DOPC    HS17753   1.367   3.415  16.899  0.8006  0.4318 -2.2594
  149DOPC   O2117754   1.197   3.413  16.796  0.1320  0.6726 -0.2005
  149DOPC   C2117755   1.218   3.541  16.759 -0.6762 -0.1447  0.3026
  149DOPC   O2217756   1.318   3.606  16.788 -0.1651  0.7256 -0.0184
  149DOPC   C2217757   1.098   3.596  16.686 -0.3822 -1.1583 -0.4397
  149DOPC   H2R17758   1.054   3.679  16.745 -0.2503 -2.5134  1.6389
  149DOPC   H2S17759   1.018   3.521  16.675  0.3844 -2.2190  0.9152
  149DOPC    C317760   1.381   3.270  16.734 -0.0873 -0.2889  0.8851
  149DOPC    HX17761   1.304   3.220  16.672  0.9842  1.8376 -2.4559
  149DOPC    HY17762   1.443   3.180  16.754  0.1282 -0.2230  0.5353
  149DOPC   O3117763   1.450   3.360  16.643 -0.3205 -1.1231 -0.3866
  149DOPC   C3117764   1.559   3.422  16.704 -0.4074  0.1714 -0.0945
  149DOPC   O3217765   1.613   3.380  16.805  0.1443  0.4988  0.5122
  149DOPC   C3217766   1.595   3.537  16.615  0.6239  0.0936 -0.2094
  149DOPC   H2X17767   1.511   3.610  16.617 -1.2111 -1.7237 -3.0373
  149DOPC   H2Y17768   1.689   3.583  16.653  0.3704  0.7976 -0.4281
  149DOPC   C2317769   1.138   3.652  16.549 -0.0933  0.0636  0.0009
  149DOPC   H3R17770   1.203   3.741  16.559  0.2371 -0.2529  0.7048
  149DOPC   H3S17771   1.038   3.680  16.509 -0.4179 -1.3423 -0.2354
  149DOPC   C2417772   1.191   3.547  16.448  0.4158 -0.2969  0.2784
  149DOPC   H4R17773   1.118   3.463  16.437  1.3786 -0.8217 -3.2825
  149DOPC   H4S17774   1.288   3.496  16.465  1.2827  1.5830  1.2740
  149DOPC   C2517775   1.212   3.602  16.302 -0.3594  0.0955 -0.3771
  149DOPC   H5R17776   1.262   3.702  16.303 -0.6854  0.2734  1.4735
  149DOPC   H5S17777   1.111   3.617  16.260 -1.2412  0.5951  1.7869
  149DOPC   C2617778   1.281   3.492  16.212 -0.0225  0.7311 -0.0984
  149DOPC   H6R17779   1.227   3.395  16.221 -1.2691  1.2474 -1.5064
  149DOPC   H6S17780   1.377   3.466  16.260 -0.1761 -0.4544 -0.3962
  149DOPC   C2717781   1.305   3.525  16.066  0.4663  0.4097  0.2308
  149DOPC   H7R17782   1.215   3.503  16.005  2.6700  0.9938 -3.5310
  149DOPC   H7S17783   1.389   3.462  16.031  0.6368  1.1672 -0.7663
  149DOPC   C2817784   1.343   3.671  16.020 -0.5024  0.3109  0.0159
  149DOPC   H8R17785   1.419   3.699  16.096 -0.2433 -2.6947  0.9845
  149DOPC   H8S17786   1.256   3.740  16.031  0.1513  1.2811 -0.7276
  149DOPC   C2917787   1.400   3.674  15.880  0.4018 -0.3464 -0.0086
  149DOPC   H9R17788   1.510   3.673  15.869  0.5052 -1.5743  0.8573
  149DOPC  C21017789   1.322   3.668  15.764 -0.4444  0.2543  0.5350
  149DOPC  H10R17790   1.369   3.646  15.667 -1.6811 -0.5810  0.0953
  149DOPC  C21117791   1.173   3.668  15.769  0.0924  0.0255 -0.3326
  149DOPC  H11R17792   1.138   3.633  15.868  0.3527  1.3560  0.2635
  149DOPC  H11S17793   1.125   3.599  15.697  0.7636 -1.5785  0.6913
  149DOPC  C21217794   1.119   3.810  15.754  0.8812  0.0075  0.1603
  149DOPC  H12R17795   1.183   3.878  15.815  1.2746  0.1332 -0.3887
  149DOPC  H12S17796   1.017   3.808  15.798  1.4774 -1.5923  1.6076
  149DOPC  C21317797   1.119   3.846  15.605 -0.1014  0.3124 -0.0489
  149DOPC  H13R17798   1.065   3.769  15.546  2.2838 -2.1709  0.7855
  149DOPC  H13S17799   1.224   3.851  15.567  0.1155  0.8085  0.5887
  149DOPC  C21417800   1.055   3.985  15.579 -0.0578  0.0051 -0.9080
  149DOPC  H14R17801   0.955   3.994  15.627 -0.2781  0.9224 -1.5221
  149DOPC  H14S17802   1.042   3.997  15.470 -1.4451  0.5416 -0.7064
  149DOPC  C21517803   1.140   4.095  15.637  0.3466 -0.0365 -0.2504
  149DOPC  H15R17804   1.140   4.081  15.747  1.2607 -1.9805 -0.4500
  149DOPC  H15S17805   1.093   4.193  15.617  0.3610 -0.3473 -2.0287
  149DOPC  C21617806   1.287   4.107  15.600  0.2451  0.4412 -0.0886
  149DOPC  H16R17807   1.302   4.081  15.493 -0.1238  1.7925 -0.4778
  149DOPC  H16S17808   1.338   4.025  15.656  0.8315  1.2242  0.5354
  149DOPC  C21717809   1.351   4.241  15.618 -0.0198 -0.0966 -0.1853
  149DOPC  H17R17810   1.308   4.320  15.553  2.2244  2.5498  1.3315
  149DOPC  H17S17811   1.458   4.232  15.591 -0.0580  2.3388 -1.4909
  149DOPC  C21817812   1.347   4.299  15.765  0.7510  0.3617  0.2744
  149DOPC  H18R17813   1.401   4.397  15.769 -1.0630  1.5475 -2.0261
  149DOPC  H18S17814   1.401   4.236  15.839 -1.0001 -0.7581  0.6373
  149DOPC  H18T17815   1.243   4.316  15.799  1.4560  2.0801  1.7654
  149DOPC   C3317816   1.610   3.514  16.461 -0.1359 -0.6743  0.6174
  149DOPC   H3X17817   1.602   3.612  16.410 -1.0939 -0.3313  1.3985
  149DOPC   H3Y17818   1.528   3.446  16.430 -0.7055  0.4325 -0.4021
  149DOPC   C3417819   1.744   3.446  16.429  0.3682  0.2626  0.2649
  149DOPC   H4X17820   1.774   3.386  16.518 -1.4413 -0.0544  0.6932
  149DOPC   H4Y17821   1.820   3.528  16.422  0.9628 -0.4056 -2.2536
  149DOPC   C3517822   1.761   3.355  16.307  0.6007 -0.5045  0.7571
  149DOPC   H5X17823   1.693   3.268  16.312 -2.4172  1.6776  1.0119
  149DOPC   H5Y17824   1.867   3.325  16.296  1.6778  2.9072  0.4939
  149DOPC   C3617825   1.714   3.430  16.175 -0.3423  0.5016  0.3718
  149DOPC   H6X17826   1.615   3.478  16.189 -1.4854 -1.2523 -1.3765
  149DOPC   H6Y17827   1.789   3.509  16.153  1.3922 -1.6394 -2.0836
  149DOPC   C3717828   1.713   3.332  16.062  0.1371 -0.2029  0.1986
  149DOPC   H7X17829   1.812   3.281  16.065 -0.0989 -0.7887 -1.2710
  149DOPC   H7Y17830   1.629   3.261  16.073 -0.7610  0.9472  1.1624
  149DOPC   C3817831   1.707   3.407  15.929  0.2093 -0.1723 -0.5194
  149DOPC   H8X17832   1.777   3.492  15.937  2.0002 -1.7165  5.8840
  149DOPC   H8Y17833   1.608   3.457  15.917  0.9828  1.7306  0.6452
  149DOPC   C3917834   1.745   3.311  15.811  0.0340 -0.4455  0.5029
  149DOPC   H9X17835   1.840   3.255  15.811  0.5670  0.3637 -1.6237
  149DOPC  C31017836   1.671   3.304  15.699 -0.4906 -0.5641  0.1528
  149DOPC  H10X17837   1.697   3.232  15.620 -2.6131 -0.6001 -0.5764
  149DOPC  C31117838   1.542   3.372  15.672  0.3923 -0.3931  0.2551
  149DOPC  H11X17839   1.533   3.471  15.720 -1.5313 -0.2181 -0.3742
  149DOPC  H11Y17840   1.462   3.320  15.729 -0.5285 -0.7082 -1.2640
  149DOPC  C31217841   1.503   3.386  15.525  0.2295  0.0618 -0.2160
  149DOPC  H12X17842   1.517   3.286  15.479 -0.0375  0.1644 -0.5180
  149DOPC  H12Y17843   1.567   3.466  15.483  1.1805 -1.9210 -2.7892
  149DOPC  C31317844   1.360   3.415  15.509 -0.6041 -0.3341  0.2767
  149DOPC  H13X17845   1.304   3.342  15.572 -1.8888  0.2049 -0.2120
  149DOPC  H13Y17846   1.321   3.513  15.543 -0.6610 -0.6543  1.1600
  149DOPC  C31417847   1.311   3.385  15.367 -0.0162 -0.5756 -0.5873
  149DOPC  H14X17848   1.378   3.441  15.297 -0.6754  1.7045  0.5031
  149DOPC  H14Y17849   1.325   3.278  15.340  0.4545 -0.7927  0.4678
  149DOPC  C31517850   1.165   3.437  15.347  0.2849 -0.5341 -0.2300
  149DOPC  H15X17851   1.151   3.543  15.377 -0.7067  0.0918 -2.6690
  149DOPC  H15Y17852   1.093   3.373  15.401  1.8703 -1.6066  0.7159
  149DOPC  C31617853   1.109   3.436  15.204 -0.8260 -0.5513 -0.9709
  149DOPC  H16X17854   1.194   3.464  15.139  0.7700 -0.8152  0.8898
  149DOPC  H16Y17855   1.072   3.337  15.169 -3.5624  0.2651 -0.6441
  149DOPC  C31717856   1.004   3.545  15.191  0.1058 -0.1500  0.8339
  149DOPC  H17X17857   1.062   3.635  15.160  2.6673 -1.0973  2.4789
  149DOPC  H17Y17858   0.955   3.522  15.094 -0.2984  2.7443  0.2562
  149DOPC  C31817859   0.900   3.569  15.293  0.1253 -0.5237 -0.1044
  149DOPC  H18X17860   0.822   3.632  15.247  0.4805 -0.8363 -1.1519
  149DOPC  H18Y17861   0.866   3.469  15.328  0.5274 -1.5169 -2.3846
  149DOPC  H18Z17862   0.943   3.624  15.380 -0.2799 -0.1251 -0.1536
  150DOPC     N17863   5.387   6.817  17.002  0.0405  0.6672  0.4931
  150DOPC   C1217864   5.429   6.912  16.888 -0.0145 -1.0624 -0.5884
  150DOPC  H12A17865   5.534   6.897  16.868  0.5888  1.4165  0.3336
  150DOPC  H12B17866   5.431   7.013  16.926  2.1868  0.2193 -3.7037
  150DOPC   C1317867   5.333   6.687  16.944 -0.0236 -0.8438  0.0677
  150DOPC  H13A17868   5.294   6.615  17.015 -0.4630 -1.2775 -0.6016
  150DOPC  H13B17869   5.253   6.718  16.878 -0.6141  0.4297  1.3311
  150DOPC  H13C17870   5.403   6.643  16.874 -1.4679 -0.9563 -1.3731
  150DOPC   C1417871   5.282   6.871  17.086  0.2392  0.3820  0.2715
  150DOPC  H14A17872   5.206   6.918  17.025 -1.7341 -0.1899  2.1746
  150DOPC  H14B17873   5.232   6.806  17.156 -1.3421  2.2424  0.9520
  150DOPC  H14C17874   5.317   6.957  17.141 -0.4237  0.5797  0.3855
  150DOPC   C1517875   5.511   6.784  17.090 -0.0995  0.1977  0.5778
  150DOPC  H15A17876   5.471   6.742  17.181 -0.5182 -0.5814  0.0457
  150DOPC  H15B17877   5.554   6.879  17.116  1.4530 -0.3746  0.2036
  150DOPC  H15C17878   5.576   6.719  17.033 -1.9861 -1.2302 -0.0632
  150DOPC   C1117879   5.359   6.905  16.750  0.8961 -0.0124  0.2675
  150DOPC  H11A17880   5.249   6.914  16.760  0.9513  0.6436  0.3110
  150DOPC  H11B17881   5.402   6.988  16.691 -1.1089  1.3806  0.6615
  150DOPC     P17882   5.535   6.739  16.643  0.3314  0.6188 -0.4612
  150DOPC   O1317883   5.556   6.592  16.637 -0.2178 -0.0383  0.2670
  150DOPC   O1417884   5.632   6.816  16.721  0.6941  0.0879 -0.2976
  150DOPC   O1217885   5.390   6.779  16.683 -0.0842  0.6267 -0.4313
  150DOPC   O1117886   5.549   6.802  16.492 -0.0684 -0.3115  0.0392
  150DOPC    C117887   5.472   6.732  16.388 -0.0550  0.0289 -0.4412
  150DOPC    HA17888   5.427   6.805  16.318  2.9179  3.3935  0.8691
  150DOPC    HB17889   5.398   6.662  16.434  0.9645 -1.1593 -0.5573
  150DOPC    C217890   5.557   6.657  16.292 -0.3321  0.0541  0.2153
  150DOPC    HS17891   5.627   6.591  16.347  2.4493  0.6087 -2.3600
  150DOPC   O2117892   5.628   6.746  16.205  0.0048  0.3948 -0.3894
  150DOPC   C2117893   5.749   6.764  16.228 -0.4787 -0.1347  0.0625
  150DOPC   O2217894   5.832   6.685  16.274  0.2259  0.1331  0.6135
  150DOPC   C2217895   5.782   6.902  16.168 -0.2534 -0.2521  0.9502
  150DOPC   H2R17896   5.858   6.954  16.230  0.9180 -0.5405 -0.1924
  150DOPC   H2S17897   5.693   6.968  16.177  0.5630  1.0542 -0.0912
  150DOPC    C317898   5.471   6.556  16.209  0.6021  0.2941 -0.1335
  150DOPC    HX17899   5.399   6.617  16.151 -0.9438 -0.5365  0.8683
  150DOPC    HY17900   5.406   6.496  16.275 -1.3993  2.1938 -0.2561
  150DOPC   O3117901   5.552   6.474  16.120  0.1675  0.6108 -0.3160
  150DOPC   C3117902   5.623   6.376  16.181 -0.2613  0.3707 -0.3715
  150DOPC   O3217903   5.613   6.344  16.300  0.0714 -0.3365 -0.3324
  150DOPC   C3217904   5.725   6.317  16.076 -0.5177 -0.3074  0.0223
  150DOPC   H2X17905   5.666   6.284  15.988 -0.7157 -0.1433  0.0947
  150DOPC   H2Y17906   5.773   6.410  16.037 -0.4188  0.3067  1.5372
  150DOPC   C2317907   5.814   6.890  16.018  0.5095 -0.2720  0.0247
  150DOPC   H3R17908   5.719   6.848  15.978 -0.6010 -0.8247  2.9472
  150DOPC   H3S17909   5.894   6.815  15.999  0.9295  0.6777 -2.3591
  150DOPC   C2417910   5.857   7.021  15.957  0.4562 -0.7549  0.0887
  150DOPC   H4R17911   5.951   7.049  16.010 -0.1151  0.8690  0.2743
  150DOPC   H4S17912   5.793   7.102  15.998 -0.2037 -0.7571 -0.9259
  150DOPC   C2517913   5.865   7.021  15.802 -0.5264 -0.4392  0.2372
  150DOPC   H5R17914   5.766   6.988  15.762  0.5262 -0.3680 -2.6758
  150DOPC   H5S17915   5.939   6.945  15.770 -2.6575 -2.0515 -1.1777
  150DOPC   C2617916   5.905   7.157  15.746  0.8270  0.4595 -0.3644
  150DOPC   H6R17917   6.000   7.192  15.793 -0.0756  0.8128  1.2556
  150DOPC   H6S17918   5.838   7.243  15.765  1.3335  1.1695 -1.6097
  150DOPC   C2717919   5.916   7.144  15.597 -0.5169  0.2918  0.2873
  150DOPC   H7R17920   5.823   7.105  15.549  1.0060 -0.2115 -2.4960
  150DOPC   H7S17921   6.002   7.080  15.568 -0.2108  1.4615 -1.5646
  150DOPC   C2817922   5.956   7.272  15.536  0.7345 -0.2746  0.4647
  150DOPC   H8R17923   6.021   7.335  15.601 -0.6686 -0.1578  1.8387
  150DOPC   H8S17924   5.856   7.322  15.540  0.4811 -0.7247 -0.1233
  150DOPC   C2917925   5.999   7.273  15.390  0.4882 -0.3024 -0.1498
  150DOPC   H9R17926   5.913   7.252  15.325 -2.9238  1.6536  3.2723
  150DOPC  C21017927   6.111   7.323  15.339 -0.2775 -0.0670  0.7670
  150DOPC  H10R17928   6.117   7.336  15.230 -1.0367  0.8729  0.8261
  150DOPC  C21117929   6.240   7.365  15.415 -0.4048  0.6733  0.1544
  150DOPC  H11R17930   6.337   7.329  15.373 -0.1566  0.4770  0.8790
  150DOPC  H11S17931   6.235   7.303  15.507  1.2120  0.2578  0.0012
  150DOPC  C21217932   6.247   7.507  15.459 -0.0562  0.1817 -0.2239
  150DOPC  H12R17933   6.322   7.524  15.539 -0.9987 -1.7234  1.1499
  150DOPC  H12S17934   6.160   7.543  15.517 -0.0212 -3.8354  2.7163
  150DOPC  C21317935   6.298   7.600  15.350 -0.4112  0.6263  0.0701
  150DOPC  H13R17936   6.217   7.605  15.274  0.6468 -0.6322 -1.1904
  150DOPC  H13S17937   6.382   7.550  15.296 -0.9162 -1.0039  0.7289
  150DOPC  C21417938   6.353   7.732  15.394  1.1140  0.0771 -0.4178
  150DOPC  H14R17939   6.395   7.735  15.497 -0.5582 -2.8074  0.4771
  150DOPC  H14S17940   6.263   7.797  15.396  3.3520  3.4007  1.4093
  150DOPC  C21517941   6.449   7.806  15.298  0.5180  0.6912 -0.4703
  150DOPC  H15R17942   6.544   7.748  15.297  1.8545  2.7686 -1.8617
  150DOPC  H15S17943   6.458   7.911  15.335 -1.2951  0.7232 -0.0244
  150DOPC  C21617944   6.406   7.813  15.152  0.4821 -0.2093  0.0445
  150DOPC  H16R17945   6.305   7.856  15.136 -0.0224 -0.5663  1.9223
  150DOPC  H16S17946   6.392   7.709  15.116 -0.0743 -0.6269  1.3968
  150DOPC  C21717947   6.505   7.874  15.050  0.6349  0.8947  0.1838
  150DOPC  H17R17948   6.456   7.875  14.950 -0.4250  1.7055  0.6927
  150DOPC  H17S17949   6.600   7.818  15.038  0.2753  0.3116  0.0359
  150DOPC  C21817950   6.534   8.015  15.087 -0.6177  0.0596  0.6859
  150DOPC  H18R17951   6.447   8.077  15.117 -1.0651  0.2496 -0.9401
  150DOPC  H18S17952   6.577   8.058  14.994  0.3658  2.3258  2.0732
  150DOPC  H18T17953   6.609   8.008  15.169  1.1750 -0.8381 -0.9518
  150DOPC   C3317954   5.824   6.214  16.128 -0.5778  0.3895  0.0972
  150DOPC   H3X17955   5.775   6.133  16.186  2.3177 -1.9895 -0.4842
  150DOPC   H3Y17956   5.898   6.262  16.196 -0.1385 -0.6965  0.4110
  150DOPC   C3417957   5.911   6.144  16.023  0.2532  0.0247  0.6396
  150DOPC   H4X17958   5.950   6.223  15.955 -1.5763  0.4910  0.0641
  150DOPC   H4Y17959   5.837   6.088  15.961 -1.4457  2.4018  0.3821
  150DOPC   C3517960   6.017   6.053  16.075  0.2555 -0.6784  0.1585
  150DOPC   H5X17961   5.979   5.973  16.141 -1.9801  0.5226  0.4165
  150DOPC   H5Y17962   6.078   6.113  16.146 -0.9118 -0.4949  1.0261
  150DOPC   C3617963   6.111   5.998  15.968 -0.3045  0.6532 -0.6078
  150DOPC   H6X17964   6.049   5.956  15.886  1.1570  0.7458 -1.8243
  150DOPC   H6Y17965   6.163   6.086  15.925  1.0839 -0.1583 -0.6819
  150DOPC   C3717966   6.219   5.902  16.036  0.3955  0.1638  0.4086
  150DOPC   H7X17967   6.276   5.960  16.111  0.1273 -0.0059  0.7443
  150DOPC   H7Y17968   6.164   5.827  16.097  0.2604 -0.2398 -0.1949
  150DOPC   C3817969   6.308   5.835  15.932 -0.2431 -0.1813  0.4084
  150DOPC   H8X17970   6.248   5.771  15.863 -1.0104  1.7894 -0.8662
  150DOPC   H8Y17971   6.377   5.760  15.975 -0.4587 -0.3951  0.3808
  150DOPC   C3917972   6.391   5.939  15.854 -0.1842 -1.0467 -0.0901
  150DOPC   H9X17973   6.340   6.010  15.787  0.5397 -1.0938 -0.7031
  150DOPC  C31017974   6.521   5.976  15.864 -0.4300 -0.6364 -0.2454
  150DOPC  H10X17975   6.569   6.033  15.784  1.5016 -3.8349 -1.5489
  150DOPC  C31117976   6.611   5.902  15.958 -0.2001  0.2259  0.6246
  150DOPC  H11X17977   6.590   5.793  15.957  1.0307 -0.0613 -1.7915
  150DOPC  H11Y17978   6.592   5.946  16.058 -1.0050  0.8480  0.2119
  150DOPC  C31217979   6.758   5.926  15.922 -0.3467 -0.3934 -0.6292
  150DOPC  H12X17980   6.781   5.888  15.821  0.1681 -0.5086 -0.4747
  150DOPC  H12Y17981   6.823   5.857  15.980  1.1052  0.1714 -1.5374
  150DOPC  C31317982   6.805   6.068  15.956  0.3770 -0.0585 -0.4482
  150DOPC  H13X17983   6.755   6.135  15.883 -1.7922 -0.5079  0.5368
  150DOPC  H13Y17984   6.776   6.092  16.061  0.7692 -1.1983 -0.0675
  150DOPC  C31417985   6.958   6.084  15.938  0.3914 -0.9390  0.0772
  150DOPC  H14X17986   7.009   6.040  16.026 -1.1402  0.1932  1.5790
  150DOPC  H14Y17987   6.990   6.036  15.843 -0.1284 -0.5913 -0.2787
  150DOPC  C31517988   6.993   6.239  15.928  0.5310 -0.8040  0.3840
  150DOPC  H15X17989   6.973   6.288  16.026 -1.1398 -0.0740 -0.2896
  150DOPC  H15Y17990   6.921   6.282  15.856 -1.5354 -2.9001  1.0816
  150DOPC  C31617991   7.136   6.265  15.879 -0.1339  0.6392  0.4683
  150DOPC  H16X17992   7.200   6.255  15.969  0.4921 -0.4241 -0.0832
  150DOPC  H16Y17993   7.172   6.202  15.795 -2.6980  0.0452 -0.2842
  150DOPC  C31717994   7.149   6.407  15.823  0.2214 -0.1009  0.5902
  150DOPC  H17X17995   7.087   6.431  15.734  0.7810  3.6321  1.0424
  150DOPC  H17Y17996   7.119   6.478  15.903  0.4881 -0.8159  1.3464
  150DOPC  C31817997   7.293   6.429  15.780  0.1210 -0.3754 -0.0678
  150DOPC  H18X17998   7.335   6.350  15.715 -0.7681 -1.0925  0.2174
  150DOPC  H18Y17999   7.310   6.522  15.722  0.6325 -0.9117 -0.7906
  150DOPC  H18Z18000   7.358   6.441  15.870 -0.0845  0.9369 -0.0680
  151DOPC     N18001   0.884   3.068  17.217 -0.3951  0.7705  0.1978
  151DOPC   C1218002   0.833   3.207  17.246 -0.6466 -0.5910 -0.1623
  151DOPC  H12A18003   0.913   3.277  17.227 -1.3252  0.2668  0.0961
  151DOPC  H12B18004   0.816   3.220  17.352  0.5838  0.9180 -0.1171
  151DOPC   C1318005   0.917   3.044  17.072 -0.2408  0.2243  0.3839
  151DOPC  H13A18006   0.831   3.053  17.008 -0.2938  0.5199  0.4914
  151DOPC  H13B18007   0.982   3.125  17.042 -0.0851 -0.1918 -0.4041
  151DOPC  H13C18008   0.952   2.943  17.057 -2.2540 -0.6958  1.5017
  151DOPC   C1418009   0.788   2.963  17.261  0.7822  0.0212  0.5651
  151DOPC  H14A18010   0.788   2.950  17.368 -0.7678 -1.5517  0.4157
  151DOPC  H14B18011   0.684   2.990  17.247  0.9484 -0.1084 -1.1021
  151DOPC  H14C18012   0.800   2.866  17.217 -1.9802 -0.2765  0.2688
  151DOPC   C1518013   1.013   3.041  17.301  0.2516 -0.2820  0.1786
  151DOPC  H15A18014   0.996   3.066  17.404  0.9373 -1.9558  0.7271
  151DOPC  H15B18015   1.095   3.102  17.267 -0.0390  2.0463  3.2628
  151DOPC  H15C18016   1.040   2.936  17.299 -0.2198 -0.4102 -1.6007
  151DOPC   C1118017   0.701   3.251  17.176  0.4363  0.1074 -0.3020
  151DOPC  H11A18018   0.685   3.360  17.184  0.6267  0.0452  1.2301
  151DOPC  H11B18019   0.709   3.228  17.067 -1.0151 -1.1987 -0.1688
  151DOPC     P18020   0.467   3.230  17.298 -0.2092 -0.1961  0.0030
  151DOPC   O1318021   0.505   3.352  17.366  0.0527 -0.3769 -0.2979
  151DOPC   O1418022   0.417   3.127  17.383  0.3701 -0.2908 -0.2998
  151DOPC   O1218023   0.594   3.169  17.223 -0.1001  0.1703  0.0830
  151DOPC   O1118024   0.358   3.242  17.186  0.2171  0.0880  0.0785
  151DOPC    C118025   0.370   3.322  17.064 -0.0375  0.0566  0.9331
  151DOPC    HA18026   0.397   3.259  16.976  0.1930 -1.1071  1.8208
  151DOPC    HB18027   0.450   3.396  17.089  2.0302 -1.6713 -0.1520
  151DOPC    C218028   0.247   3.410  17.039  0.1127 -0.2720  0.8638
  151DOPC    HS18029   0.221   3.468  17.130  0.9451  1.1199  0.2564
  151DOPC   O2118030   0.134   3.327  17.002  0.0611 -0.3095  0.1886
  151DOPC   C2118031   0.015   3.380  16.974  0.1799 -0.2633  0.4844
  151DOPC   O2218032  -0.025   3.493  16.991 -0.1112 -0.0428 -0.0178
  151DOPC   C2218033  -0.057   3.254  16.928 -0.6458 -0.0336 -0.3030
  151DOPC   H2R18034  -0.107   3.217  17.020  0.0196 -0.2025  0.0006
  151DOPC   H2S18035   0.009   3.174  16.889 -0.6058  0.6011 -1.6032
  151DOPC    C318036   0.276   3.511  16.924 -0.6089  0.6576  0.1149
  151DOPC    HX18037   0.366   3.571  16.950 -2.1819  2.4847  1.6864
  151DOPC    HY18038   0.200   3.591  16.915 -0.8444  0.2931 -1.2490
  151DOPC   O3118039   0.299   3.451  16.797  0.2267 -0.1174 -0.1284
  151DOPC   C3118040   0.421   3.448  16.740  0.3695  0.3556 -0.6457
  151DOPC   O3218041   0.522   3.486  16.798  0.0855  0.3559  0.0908
  151DOPC   C3218042   0.403   3.410  16.597  0.1303  0.2646 -0.4125
  151DOPC   H2X18043   0.501   3.424  16.547 -1.2653  1.3578 -3.0215
  151DOPC   H2Y18044   0.374   3.303  16.605  0.2931  0.2773  0.4880
  151DOPC   C2318045  -0.153   3.286  16.813 -0.5900 -0.0467  0.6931
  151DOPC   H3R18046  -0.209   3.379  16.837 -0.0099  0.9698 -1.6528
  151DOPC   H3S18047  -0.229   3.206  16.795  1.4181 -1.6100 -1.3116
  151DOPC   C2418048  -0.086   3.302  16.678 -0.2952 -0.7715 -0.0543
  151DOPC   H4R18049  -0.034   3.209  16.646 -0.8269 -0.8288 -0.7835
  151DOPC   H4S18050  -0.002   3.373  16.695 -0.5450 -0.5774  0.3610
  151DOPC   C2518051  -0.177   3.341  16.562 -0.3165  0.0582 -0.1112
  151DOPC   H5R18052  -0.242   3.427  16.589 -2.8660 -0.8101 -2.9277
  151DOPC   H5S18053  -0.251   3.260  16.544 -1.9033  1.9121 -2.6751
  151DOPC   C2618054  -0.101   3.380  16.436 -0.3348  0.0779 -0.5620
  151DOPC   H6R18055  -0.009   3.318  16.425 -1.5487 -1.8786 -0.1677
  151DOPC   H6S18056  -0.062   3.484  16.443  0.6386 -0.1753 -1.7824
  151DOPC   C2718057  -0.185   3.362  16.309  0.5106  0.0446  0.1614
  151DOPC   H7R18058  -0.140   3.428  16.231  1.8643 -0.4231  0.5171
  151DOPC   H7S18059  -0.285   3.397  16.341  1.0329  2.0514 -0.2623
  151DOPC   C2818060  -0.195   3.212  16.263 -0.4948 -0.5461  0.3922
  151DOPC   H8R18061  -0.232   3.154  16.350  0.6684  2.2039  2.9074
  151DOPC   H8S18062  -0.091   3.181  16.240 -0.2130  0.7781 -0.2321
  151DOPC   C2918063  -0.289   3.206  16.146  0.1245  0.0939 -0.4409
  151DOPC   H9R18064  -0.391   3.216  16.186  0.3179 -0.7002  0.3015
  151DOPC  C21018065  -0.269   3.183  16.016 -0.6850 -0.0408 -0.3492
  151DOPC  H10R18066  -0.349   3.182  15.939  0.4421  1.9172 -1.6557
  151DOPC  C21118067  -0.131   3.151  15.966 -0.3546  0.1355 -0.6149
  151DOPC  H11R18068  -0.099   3.046  15.982 -1.4360  0.2118  2.8060
  151DOPC  H11S18069  -0.052   3.210  16.018 -1.5226  2.1479 -1.0115
  151DOPC  C21218070  -0.112   3.181  15.814 -0.4626  0.2128  0.6489
  151DOPC  H12R18071  -0.008   3.163  15.779 -0.9860 -2.5840  0.2755
  151DOPC  H12S18072  -0.146   3.284  15.790 -0.2148  0.6841  2.2350
  151DOPC  C21318073  -0.195   3.088  15.717 -0.4917 -0.4818 -0.5973
  151DOPC  H13R18074  -0.294   3.056  15.757 -0.8907  1.0199 -0.3208
  151DOPC  H13S18075  -0.135   2.995  15.717 -0.9829 -0.9909  3.3795
  151DOPC  C21418076  -0.209   3.145  15.575  0.2217  0.1179 -0.0918
  151DOPC  H14R18077  -0.108   3.168  15.534  1.1493  0.6616  2.3552
  151DOPC  H14S18078  -0.259   3.244  15.568  0.9105  0.3714 -3.2716
  151DOPC  C21518079  -0.281   3.049  15.476 -0.8078  0.1683  0.8556
  151DOPC  H15R18080  -0.380   3.023  15.520 -0.5277  0.2289  1.5403
  151DOPC  H15S18081  -0.230   2.951  15.463 -0.3711  0.6475 -1.5162
  151DOPC  C21618082  -0.295   3.107  15.337  0.8724 -0.0762 -0.1601
  151DOPC  H16R18083  -0.200   3.162  15.323  1.2489 -0.7504 -0.3011
  151DOPC  H16S18084  -0.382   3.177  15.345  0.3798 -0.8279  1.7270
  151DOPC  C21718085  -0.309   2.998  15.235  0.1032  0.8122  0.1556
  151DOPC  H17R18086  -0.406   2.946  15.254 -1.2984  2.0681 -2.8949
  151DOPC  H17S18087  -0.229   2.926  15.263  1.3670  2.2773  0.3753
  151DOPC  C21818088  -0.291   3.039  15.089  0.6508 -0.1375  0.1361
  151DOPC  H18R18089  -0.348   2.974  15.020  2.1723  0.0434 -1.3770
  151DOPC  H18S18090  -0.184   3.049  15.060  0.9379 -1.5139  0.6499
  151DOPC  H18T18091  -0.340   3.137  15.068 -0.0302 -1.0285 -2.9350
  151DOPC   C3318092   0.304   3.495  16.523 -0.0004  0.2173 -0.0589
  151DOPC   H3X18093   0.353   3.593  16.506 -1.5639  0.6613 -2.3700
  151DOPC   H3Y18094   0.208   3.506  16.579 -0.1691 -1.2000 -0.0244
  151DOPC   C3418095   0.284   3.423  16.390 -0.3112  0.3982 -0.0586
  151DOPC   H4X18096   0.225   3.331  16.409  3.6308 -1.6912  3.9110
  151DOPC   H4Y18097   0.386   3.398  16.354 -0.1128  0.5892  0.3653
  151DOPC   C3518098   0.207   3.513  16.284  0.2638  0.5074 -0.4093
  151DOPC   H5X18099   0.256   3.612  16.280 -3.4486  2.7189  2.1601
  151DOPC   H5Y18100   0.100   3.538  16.300 -0.3707 -1.7715 -0.7960
  151DOPC   C3618101   0.215   3.448  16.143  0.6604  0.0007  0.3537
  151DOPC   H6X18102   0.320   3.457  16.109  0.3618  1.1812 -0.3085
  151DOPC   H6Y18103   0.190   3.340  16.147  1.0404 -0.1279 -0.4091
  151DOPC   C3718104   0.121   3.526  16.045 -0.1372  0.1185 -0.9297
  151DOPC   H7X18105   0.023   3.526  16.097 -0.0890 -0.2055 -0.8335
  151DOPC   H7Y18106   0.158   3.630  16.040 -0.2349  0.3235  1.6332
  151DOPC   C3818107   0.112   3.466  15.905 -0.4166 -0.2884  0.2693
  151DOPC   H8X18108   0.032   3.522  15.852  0.6855  0.4779 -0.6471
  151DOPC   H8Y18109   0.097   3.357  15.896  1.9139 -0.5905 -0.5416
  151DOPC   C3918110   0.244   3.493  15.834  0.0467  0.1626  0.3302
  151DOPC   H9X18111   0.329   3.459  15.896  0.3812  2.2459  1.0849
  151DOPC  C31018112   0.273   3.557  15.726  0.3091  0.1969  0.0229
  151DOPC  H10X18113   0.380   3.555  15.699  0.4622  1.5200  0.4562
  151DOPC  C31118114   0.184   3.617  15.623 -0.0771  0.0246  0.0283
  151DOPC  H11X18115   0.238   3.693  15.563  0.8303 -0.6840 -0.0763
  151DOPC  H11Y18116   0.105   3.681  15.667 -2.1841 -0.6716 -2.4794
  151DOPC  C31218117   0.121   3.525  15.512  0.6256 -0.1010 -0.4928
  151DOPC  H12X18118   0.062   3.449  15.567 -1.6286  0.7906 -1.5355
  151DOPC  H12Y18119   0.197   3.471  15.451 -0.6165  0.7224 -2.9270
  151DOPC  C31318120   0.026   3.593  15.416  0.0459  0.5033 -0.1192
  151DOPC  H13X18121  -0.053   3.648  15.472  1.7489  2.3072  0.6524
  151DOPC  H13Y18122   0.079   3.669  15.354  1.1224  0.6451  0.9274
  151DOPC  C31418123  -0.041   3.495  15.322  0.5450  0.3649  0.4827
  151DOPC  H14X18124  -0.102   3.415  15.370 -0.6848  0.4307 -0.8923
  151DOPC  H14Y18125  -0.119   3.561  15.277  1.0177  1.5056  1.2780
  151DOPC  C31518126   0.046   3.442  15.209 -0.3742  0.2026 -0.2677
  151DOPC  H15X18127   0.132   3.379  15.239 -0.0684  0.5179 -0.4844
  151DOPC  H15Y18128   0.097   3.524  15.155 -1.0222  2.8647  2.8114
  151DOPC  C31618129  -0.033   3.357  15.104  0.1625 -0.2014  0.5341
  151DOPC  H16X18130  -0.034   3.248  15.129 -0.0682 -0.3605 -0.1310
  151DOPC  H16Y18131  -0.134   3.403  15.104  0.2962  0.0980  1.3515
  151DOPC  C31718132   0.027   3.373  14.959  0.2349 -1.1022  0.2761
  151DOPC  H17X18133  -0.008   3.476  14.934 -1.9521 -1.2103  2.4676
  151DOPC  H17Y18134   0.136   3.355  14.967  0.3033 -1.3919 -1.0953
  151DOPC  C31818135  -0.043   3.286  14.858 -0.5616  0.3320 -0.1333
  151DOPC  H18X18136   0.016   3.305  14.765  0.9512  3.4175  1.3201
  151DOPC  H18Y18137  -0.045   3.180  14.890 -0.9444  0.7118  1.1426
  151DOPC  H18Z18138  -0.148   3.317  14.844 -1.6448 -0.5016  4.4956
  152DOPC     N18139   3.056   1.675  16.885 -0.0441 -0.0043  0.0071
  152DOPC   C1218140   2.933   1.616  16.820  0.4071  0.0145  0.1681
  152DOPC  H12A18141   2.901   1.691  16.749  0.0837  0.6970  1.0198
  152DOPC  H12B18142   2.853   1.607  16.892  1.3906 -0.3538  1.2465
  152DOPC   C1318143   3.152   1.720  16.779  0.3027  0.3400 -0.4234
  152DOPC  H13A18144   3.104   1.782  16.704 -0.4049 -0.3645 -0.5731
  152DOPC  H13B18145   3.239   1.764  16.824 -0.0443  0.5189  0.0862
  152DOPC  H13C18146   3.196   1.643  16.717 -1.2741  0.6094 -1.9873
  152DOPC   C1418147   3.121   1.572  16.974  0.6082  0.7198  0.3346
  152DOPC  H14A18148   3.062   1.542  17.059  1.2405  1.0447  0.9000
  152DOPC  H14B18149   3.134   1.484  16.913 -0.7178  1.8559 -1.6724
  152DOPC  H14C18150   3.214   1.610  17.015 -0.4720  0.8726  2.8224
  152DOPC   C1518151   3.027   1.805  16.967  0.5263  0.6652 -0.0946
  152DOPC  H15A18152   2.978   1.882  16.910  0.9708  2.3916  1.7570
  152DOPC  H15B18153   3.120   1.847  17.001  0.2969  0.9072  0.2436
  152DOPC  H15C18154   2.962   1.788  17.052 -1.3818  2.4210 -1.1200
  152DOPC   C1118155   2.950   1.487  16.745  0.3347 -0.1887  0.2742
  152DOPC  H11A18156   2.877   1.480  16.661  1.3852 -1.3196 -0.5680
  152DOPC  H11B18157   3.048   1.487  16.693  0.4300 -1.7445  0.4109
  152DOPC     P18158   2.803   1.341  16.906  0.3722 -0.4538 -0.3584
  152DOPC   O1318159   2.788   1.408  17.035  0.6499 -0.1113 -0.0363
  152DOPC   O1418160   2.783   1.197  16.909  0.1066 -0.1062  0.2325
  152DOPC   O1218161   2.945   1.372  16.829  0.0002 -0.0716  0.2353
  152DOPC   O1118162   2.706   1.394  16.794 -0.8162  0.2119  0.2405
  152DOPC    C118163   2.570   1.382  16.824 -0.2888  0.6933 -0.6380
  152DOPC    HA18164   2.531   1.447  16.905  1.5193  1.3576 -0.2576
  152DOPC    HB18165   2.545   1.276  16.844  0.8801  0.9482  2.7070
  152DOPC    C218166   2.467   1.410  16.706  0.0064 -0.2604 -0.2440
  152DOPC    HS18167   2.368   1.367  16.732  0.5091 -1.9057 -0.9474
  152DOPC   O2118168   2.508   1.341  16.588 -0.4755  0.3791  0.2161
  152DOPC   C2118169   2.516   1.214  16.598 -0.0360 -0.0677  0.2130
  152DOPC   O2218170   2.455   1.146  16.677  0.1766  0.0903  0.0216
  152DOPC   C2218171   2.586   1.153  16.472  0.0933  0.0144 -0.4599
  152DOPC   H2R18172   2.593   1.234  16.397  2.2111  1.6394  1.3671
  152DOPC   H2S18173   2.517   1.070  16.446  0.3761 -0.9378  1.6070
  152DOPC    C318174   2.459   1.560  16.673  0.7162 -0.2291 -0.2954
  152DOPC    HX18175   2.549   1.583  16.611  0.6685  0.9657  0.0464
  152DOPC    HY18176   2.468   1.608  16.773 -1.7777 -0.2687  0.0156
  152DOPC   O3118177   2.338   1.600  16.612 -0.3291  0.4109  0.1554
  152DOPC   C3118178   2.230   1.605  16.689 -0.6183 -0.0602 -0.0042
  152DOPC   O3218179   2.232   1.579  16.810  0.3041 -0.0938 -0.5167
  152DOPC   C3218180   2.109   1.648  16.617 -0.4137 -0.3019  0.3608
  152DOPC   H2X18181   2.132   1.736  16.552 -2.7554 -0.5249 -0.8874
  152DOPC   H2Y18182   2.092   1.569  16.541 -1.0533  2.0891 -2.1919
  152DOPC   C2318183   2.732   1.098  16.491 -0.3752 -0.3941  0.0951
  152DOPC   H3R18184   2.750   1.044  16.395 -0.1301 -0.0681 -0.0443
  152DOPC   H3S18185   2.739   1.019  16.569  1.2000  1.9865  2.5369
  152DOPC   C2418186   2.841   1.198  16.515  0.1542  0.6207  1.1045
  152DOPC   H4R18187   2.829   1.243  16.616  1.1324  0.5208  1.2688
  152DOPC   H4S18188   2.835   1.281  16.442  2.8600 -0.5280 -0.5564
  152DOPC   C2518189   2.980   1.133  16.499  0.1712  0.5878  0.1976
  152DOPC   H5R18190   2.988   1.042  16.561  1.3646 -0.4233 -1.3628
  152DOPC   H5S18191   3.056   1.204  16.539  0.3683  0.2907  0.3518
  152DOPC   C2618192   3.023   1.104  16.350  0.2946  0.5152  0.0007
  152DOPC   H6R18193   2.985   1.187  16.286  2.2233 -0.6924 -2.9072
  152DOPC   H6S18194   2.973   1.015  16.307 -0.5797 -0.1497  2.2559
  152DOPC   C2718195   3.170   1.087  16.324  0.4469 -0.2145  0.5118
  152DOPC   H7R18196   3.214   1.001  16.379 -2.4573 -1.9619  0.2835
  152DOPC   H7S18197   3.222   1.178  16.362 -2.4509  2.0281 -0.5317
  152DOPC   C2818198   3.208   1.084  16.169 -0.3847  1.0428 -0.7282
  152DOPC   H8R18199   3.289   1.156  16.147 -0.0130  0.5596 -0.9575
  152DOPC   H8S18200   3.120   1.121  16.112 -1.4858  0.4942  0.5627
  152DOPC   C2918201   3.245   0.953  16.106 -0.1677  1.6473 -0.4177
  152DOPC   H9R18202   3.258   0.862  16.167  0.7781  2.1544  0.1717
  152DOPC  C21018203   3.283   0.933  15.979 -0.1464 -0.0262  0.0071
  152DOPC  H10R18204   3.281   0.830  15.940  0.1340  0.0820 -0.2957
  152DOPC  C21118205   3.270   1.032  15.865 -0.1926  0.0238  0.4916
  152DOPC  H11R18206   3.350   1.022  15.788 -0.4311  0.3003  0.2095
  152DOPC  H11S18207   3.273   1.137  15.901 -1.0704  0.4994 -0.7789
  152DOPC  C21218208   3.131   1.015  15.797 -0.6474 -0.4112  0.1961
  152DOPC  H12R18209   3.151   1.077  15.708  2.8416  0.4517  1.4068
  152DOPC  H12S18210   3.047   1.063  15.853 -1.0846  0.6271 -1.2937
  152DOPC  C21318211   3.108   0.867  15.750  0.1169  0.0418  0.1303
  152DOPC  H13R18212   3.017   0.856  15.687  0.9157 -3.0010 -0.6247
  152DOPC  H13S18213   3.097   0.801  15.838 -1.3481 -1.9613 -1.4658
  152DOPC  C21418214   3.226   0.806  15.666  0.7414 -0.9163 -0.3270
  152DOPC  H14R18215   3.306   0.822  15.742 -0.6988  0.3702  0.9858
  152DOPC  H14S18216   3.251   0.869  15.579 -1.0036 -0.8865 -0.8307
  152DOPC  C21518217   3.207   0.654  15.632  0.2859 -0.6584 -0.0932
  152DOPC  H15R18218   3.115   0.632  15.574  0.4075 -2.6206  0.3951
  152DOPC  H15S18219   3.188   0.607  15.731 -1.1777  1.9646  0.9753
  152DOPC  C21618220   3.325   0.599  15.554  0.0386 -0.1515  0.1199
  152DOPC  H16R18221   3.331   0.645  15.453  1.8120 -0.6480 -0.0318
  152DOPC  H16S18222   3.289   0.496  15.535 -1.1045  0.1668  0.4928
  152DOPC  C21718223   3.460   0.609  15.617  0.0641 -0.3439  0.0699
  152DOPC  H17R18224   3.503   0.508  15.602 -0.4739 -0.5359 -0.1896
  152DOPC  H17S18225   3.451   0.637  15.724 -0.6918  0.8234 -0.2753
  152DOPC  C21818226   3.548   0.717  15.550 -0.4012  0.1823 -0.0376
  152DOPC  H18R18227   3.587   0.683  15.452  0.3734 -1.3006  0.7506
  152DOPC  H18S18228   3.637   0.739  15.613 -0.8868  3.1859 -0.2731
  152DOPC  H18T18229   3.501   0.817  15.536 -0.2832  0.0287 -1.7235
  152DOPC   C3318230   1.981   1.673  16.703  0.4348  0.6135  0.3267
  152DOPC   H3X18231   1.999   1.725  16.799  3.2923  2.1437 -0.9133
  152DOPC   H3Y18232   1.951   1.570  16.734 -1.2670  1.1911  0.7350
  152DOPC   C3418233   1.875   1.747  16.630 -0.4076  0.9927  0.4220
  152DOPC   H4X18234   1.908   1.852  16.622  3.5651 -0.1373  0.0775
  152DOPC   H4Y18235   1.787   1.758  16.697 -0.7915 -0.2604  0.1485
  152DOPC   C3518236   1.814   1.688  16.505  0.0819 -0.6611 -0.1664
  152DOPC   H5X18237   1.762   1.592  16.530 -0.4155  0.0973  1.9008
  152DOPC   H5Y18238   1.894   1.654  16.436  0.2927 -2.0509  0.7204
  152DOPC   C3618239   1.728   1.782  16.423 -0.5519 -0.0553  0.4858
  152DOPC   H6X18240   1.800   1.849  16.371 -0.5201  0.6356  1.4039
  152DOPC   H6Y18241   1.679   1.725  16.341  0.7177  0.7282 -0.8767
  152DOPC   C3718242   1.639   1.873  16.499  0.4837 -0.4948 -0.2742
  152DOPC   H7X18243   1.588   1.810  16.575 -0.5609 -0.7281 -1.1356
  152DOPC   H7Y18244   1.697   1.952  16.551 -1.8745  1.3870 -0.3009
  152DOPC   C3818245   1.546   1.947  16.395 -0.1974  0.9224 -0.4507
  152DOPC   H8X18246   1.455   1.984  16.447 -0.2424  0.5377 -0.2522
  152DOPC   H8Y18247   1.512   1.867  16.325 -1.1295 -0.8979  1.9683
  152DOPC   C3918248   1.615   2.072  16.330  0.3227  0.3463  0.3259
  152DOPC   H9X18249   1.703   2.118  16.376  0.4471 -0.0383  0.4841
  152DOPC  C31018250   1.579   2.114  16.209 -0.5257 -0.1243 -1.2893
  152DOPC  H10X18251   1.631   2.205  16.176 -0.0753  0.9688  2.0754
  152DOPC  C31118252   1.464   2.074  16.128 -0.6689 -0.4740  0.6049
  152DOPC  H11X18253   1.376   2.138  16.154  1.8071  3.3404  0.4826
  152DOPC  H11Y18254   1.437   1.968  16.141  0.7746 -0.7846  1.3573
  152DOPC  C31218255   1.485   2.108  15.973  0.2609  0.0061  0.0852
  152DOPC  H12X18256   1.553   2.031  15.932 -0.3143 -1.1281  1.1933
  152DOPC  H12Y18257   1.535   2.204  15.950 -1.4485  0.8880 -0.1520
  152DOPC  C31318258   1.357   2.105  15.893 -0.8301  0.3283 -0.2214
  152DOPC  H13X18259   1.303   2.008  15.903  1.0848 -0.9948 -1.7908
  152DOPC  H13Y18260   1.293   2.185  15.936 -0.9898 -0.4725  1.0973
  152DOPC  C31418261   1.372   2.127  15.741 -0.4433  0.4754  0.6617
  152DOPC  H14X18262   1.408   2.033  15.693 -1.2482  0.6532 -0.3189
  152DOPC  H14Y18263   1.276   2.157  15.693  0.2802  1.4286 -0.2208
  152DOPC  C31518264   1.471   2.236  15.703  0.1363 -0.2627 -0.1237
  152DOPC  H15X18265   1.573   2.205  15.735  1.2550  0.7638 -2.4591
  152DOPC  H15Y18266   1.444   2.326  15.764  1.5101 -0.2517  0.5052
  152DOPC  C31618267   1.474   2.272  15.554 -0.7185 -0.4772 -0.4749
  152DOPC  H16X18268   1.475   2.177  15.496 -2.6896 -1.1128  0.4454
  152DOPC  H16Y18269   1.387   2.334  15.522  0.8620  1.5173 -1.1193
  152DOPC  C31718270   1.600   2.356  15.518  1.0243  0.0842 -0.2148
  152DOPC  H17X18271   1.691   2.293  15.522 -0.5005 -2.1283  1.4812
  152DOPC  H17Y18272   1.584   2.394  15.415  1.2014  0.2367 -0.1873
  152DOPC  C31818273   1.623   2.485  15.603  0.8450 -0.0600 -0.2778
  152DOPC  H18X18274   1.700   2.547  15.552  1.4501 -0.8660 -0.3839
  152DOPC  H18Y18275   1.532   2.545  15.622  0.8452 -0.7835  2.5738
  152DOPC  H18Z18276   1.669   2.462  15.702  2.4261  0.9068 -0.7487
  153DOPC     N18277   5.556   0.942  16.828  0.5232 -0.1404  0.1286
  153DOPC   C1218278   5.657   0.899  16.926 -0.5569  0.5333 -0.7525
  153DOPC  H12A18279   5.676   0.795  16.903  2.9493  0.8644  0.1186
  153DOPC  H12B18280   5.616   0.908  17.026 -3.6023  1.1142 -1.9337
  153DOPC   C1318281   5.441   0.842  16.818  0.3388 -0.3326  0.2622
  153DOPC  H13A18282   5.347   0.880  16.782  1.1941  1.4810 -0.1891
  153DOPC  H13B18283   5.462   0.753  16.760 -1.7890 -1.6386  1.3739
  153DOPC  H13C18284   5.419   0.805  16.916 -0.2334  0.9701  0.6470
  153DOPC   C1418285   5.614   0.971  16.689  0.3248 -0.5157  0.4046
  153DOPC  H14A18286   5.710   1.021  16.694  1.4208 -2.5781  1.2786
  153DOPC  H14B18287   5.641   0.877  16.642 -2.0943 -0.0086 -2.3150
  153DOPC  H14C18288   5.544   1.016  16.621  1.4449  1.8007  0.6889
  153DOPC   C1518289   5.496   1.071  16.880  0.5671 -0.2813  0.7400
  153DOPC  H15A18290   5.466   1.067  16.984  0.8764  0.0216  0.8418
  153DOPC  H15B18291   5.407   1.092  16.822 -0.7936 -1.7108  2.2164
  153DOPC  H15C18292   5.573   1.146  16.878  0.2683  0.0181 -0.1502
  153DOPC   C1118293   5.793   0.962  16.919 -0.4782 -0.0549  0.3071
  153DOPC  H11A18294   5.859   0.916  16.995  0.9802  0.9711 -0.2951
  153DOPC  H11B18295   5.847   0.930  16.827  1.5615  0.4934  1.2597
  153DOPC     P18296   5.882   1.203  16.869  0.0111  0.2913  0.0474
  153DOPC   O1318297   6.016   1.149  16.884  0.4093 -0.1998 -0.3150
  153DOPC   O1418298   5.860   1.347  16.900  0.8477  0.1050 -0.8518
  153DOPC   O1218299   5.781   1.102  16.938 -0.7090  0.0756  0.7289
  153DOPC   O1118300   5.844   1.180  16.718  0.2657  0.1122 -0.0430
  153DOPC    C118301   5.930   1.120  16.620 -0.2557  0.3010 -1.0976
  153DOPC    HA18302   5.944   1.012  16.640  2.6499  0.8754  0.5602
  153DOPC    HB18303   6.029   1.169  16.630 -0.1557 -0.3399  1.7416
  153DOPC    C218304   5.886   1.133  16.471  0.7281 -0.0866  0.6825
  153DOPC    HS18305   5.890   1.241  16.445 -2.2783 -0.0508  0.0853
  153DOPC   O2118306   5.756   1.071  16.443 -0.2445 -0.5673  0.2029
  153DOPC   C2118307   5.674   1.139  16.355  0.3058 -0.3773  0.4932
  153DOPC   O2218308   5.705   1.238  16.293  0.6531 -0.1980 -0.6123
  153DOPC   C2218309   5.540   1.065  16.349 -0.2641 -0.1367 -0.4492
  153DOPC   H2R18310   5.456   1.124  16.389  0.5944  1.1652 -0.5155
  153DOPC   H2S18311   5.553   0.974  16.412 -2.1422 -1.3458 -1.7111
  153DOPC    C318312   5.989   1.059  16.387 -0.2995  0.1768  0.0181
  153DOPC    HX18313   5.976   0.949  16.396 -2.7250  0.2300 -1.6868
  153DOPC    HY18314   6.087   1.077  16.435 -1.1068 -0.6807  2.1325
  153DOPC   O3118315   5.985   1.098  16.250 -0.5784  0.2665 -0.2945
  153DOPC   C3118316   5.901   1.026  16.178  0.9738 -0.8023  0.3258
  153DOPC   O3218317   5.841   0.928  16.226 -0.6666  0.4414 -0.6812
  153DOPC   C3218318   5.897   1.059  16.030 -0.4234 -1.1723 -0.6485
  153DOPC   H2X18319   5.990   1.115  16.008 -1.7014  1.9764  1.2149
  153DOPC   H2Y18320   5.874   0.963  15.980 -2.5980 -0.3463 -1.3935
  153DOPC   C2318321   5.479   1.030  16.207  0.1934 -0.6715 -0.6893
  153DOPC   H3R18322   5.545   0.955  16.157  0.8389 -0.3310 -0.3687
  153DOPC   H3S18323   5.484   1.120  16.143  0.0278 -1.3075 -1.6129
  153DOPC   C2418324   5.335   0.995  16.225  0.2199 -0.0531  0.0372
  153DOPC   H4R18325   5.270   1.084  16.210  2.7242  1.8468 -0.2652
  153DOPC   H4S18326   5.301   0.962  16.325  0.9589  1.1471  0.7067
  153DOPC   C2518327   5.299   0.886  16.126  0.0528  0.4820  0.8074
  153DOPC   H5R18328   5.340   0.791  16.167 -0.6370  0.6880  2.0202
  153DOPC   H5S18329   5.329   0.907  16.021 -2.1870  0.7409  0.1636
  153DOPC   C2618330   5.147   0.865  16.125 -0.8792 -0.3615  0.2009
  153DOPC   H6R18331   5.089   0.952  16.087  1.2413  0.4741 -1.3148
  153DOPC   H6S18332   5.120   0.847  16.231  2.1958  0.3611  1.2140
  153DOPC   C2718333   5.083   0.762  16.038 -0.0210 -0.2384 -0.5294
  153DOPC   H7R18334   5.073   0.794  15.932 -0.8153 -0.3797 -0.5072
  153DOPC   H7S18335   4.987   0.722  16.079 -0.2302  1.9869  1.3229
  153DOPC   C2818336   5.180   0.641  16.021  0.2345 -0.2486  0.1129
  153DOPC   H8R18337   5.201   0.611  16.125  1.1528 -1.7178 -0.4631
  153DOPC   H8S18338   5.276   0.672  15.973  0.8167  0.3482  1.6135
  153DOPC   C2918339   5.112   0.537  15.936  0.0901  0.3174  0.0147
  153DOPC   H9R18340   5.007   0.516  15.958 -0.9454 -0.1658 -4.4748
  153DOPC  C21018341   5.154   0.492  15.817 -0.6757 -0.6837  0.0099
  153DOPC  H10R18342   5.092   0.420  15.762 -0.5773 -1.3362  0.7314
  153DOPC  C21118343   5.277   0.543  15.743  0.7177 -0.1402 -0.0289
  153DOPC  H11R18344   5.342   0.455  15.726 -0.0173 -0.9358  1.0871
  153DOPC  H11S18345   5.346   0.617  15.789  0.4878 -0.7915  1.4226
  153DOPC  C21218346   5.234   0.594  15.604  0.7911  0.0922 -0.0630
  153DOPC  H12R18347   5.165   0.681  15.608  1.9549  1.0221  0.2731
  153DOPC  H12S18348   5.182   0.516  15.545  2.0882  0.7957 -2.2627
  153DOPC  C21318349   5.341   0.648  15.512  0.7161 -0.3639 -0.7918
  153DOPC  H13R18350   5.409   0.730  15.546 -0.2950 -1.1579  3.9729
  153DOPC  H13S18351   5.290   0.686  15.422 -2.0201 -0.5258  0.5784
  153DOPC  C21418352   5.426   0.533  15.466  0.2723  0.3536  0.4399
  153DOPC  H14R18353   5.366   0.461  15.407  0.1502 -0.9263  2.0518
  153DOPC  H14S18354   5.454   0.477  15.558  1.6260 -1.6699 -1.1105
  153DOPC  C21518355   5.551   0.577  15.388 -0.3442  0.5677 -0.1280
  153DOPC  H15R18356   5.601   0.664  15.437  2.2906 -2.2560  2.6831
  153DOPC  H15S18357   5.515   0.601  15.286  2.4474 -0.2922 -1.4371
  153DOPC  C21618358   5.653   0.470  15.364  0.7867  0.4019  0.1806
  153DOPC  H16R18359   5.612   0.376  15.319  3.1972 -0.6053 -0.0397
  153DOPC  H16S18360   5.713   0.437  15.452  0.7277  1.3905  0.5970
  153DOPC  C21718361   5.767   0.518  15.270 -0.4646  0.0451  0.2189
  153DOPC  H17R18362   5.770   0.625  15.300 -0.7774  0.1721 -0.1907
  153DOPC  H17S18363   5.734   0.520  15.164 -0.2134 -0.8125  0.1210
  153DOPC  C21818364   5.903   0.448  15.300  0.5703  0.2315 -0.0982
  153DOPC  H18R18365   5.985   0.478  15.231  1.1850 -2.9308 -0.9214
  153DOPC  H18S18366   5.905   0.338  15.282 -0.2846 -0.1412  1.8327
  153DOPC  H18T18367   5.941   0.468  15.403  1.6984 -2.3882  0.0695
  153DOPC   C3318368   5.782   1.153  15.987 -0.4542  0.3869  0.2420
  153DOPC   H3X18369   5.824   1.253  15.967 -0.9561  0.7856  1.1433
  153DOPC   H3Y18370   5.708   1.151  16.069  1.1115 -1.3119  1.6901
  153DOPC   C3418371   5.720   1.089  15.861  0.1890 -0.3599 -0.3032
  153DOPC   H4X18372   5.701   0.980  15.870 -0.1417 -0.4221 -1.5944
  153DOPC   H4Y18373   5.783   1.127  15.778 -1.2880  1.8006 -0.5235
  153DOPC   C3518374   5.574   1.141  15.839  0.4388 -0.3027 -0.3864
  153DOPC   H5X18375   5.572   1.251  15.849 -2.0206 -0.4836  3.3520
  153DOPC   H5Y18376   5.509   1.105  15.922 -1.8227  0.4206 -1.7452
  153DOPC   C3618377   5.509   1.097  15.704  0.0422  0.6611 -0.2841
  153DOPC   H6X18378   5.554   1.161  15.626 -1.6497 -1.3012 -3.0738
  153DOPC   H6Y18379   5.547   0.996  15.680 -1.3372  0.1719 -0.5401
  153DOPC   C3718380   5.361   1.113  15.689 -0.0768  0.7931  0.0401
  153DOPC   H7X18381   5.313   1.022  15.730  0.7316 -0.9607 -2.6441
  153DOPC   H7Y18382   5.331   1.207  15.739 -0.3047  2.6354 -3.2794
  153DOPC   C3818383   5.304   1.122  15.542  0.2341 -0.1236  0.3001
  153DOPC   H8X18384   5.325   1.017  15.510 -2.9771 -0.8702  0.2582
  153DOPC   H8Y18385   5.369   1.191  15.485  1.1630 -0.4809  0.9187
  153DOPC   C3918386   5.159   1.157  15.529 -0.0219 -0.4736  0.3070
  153DOPC   H9X18387   5.142   1.264  15.547  1.6824 -0.5577  2.9268
  153DOPC  C31018388   5.059   1.072  15.499 -0.1412  0.5786  0.0030
  153DOPC  H10X18389   4.956   1.105  15.517 -1.4027 -3.0218  0.2124
  153DOPC  C31118390   5.073   0.924  15.477 -0.2805 -0.1346 -0.8254
  153DOPC  H11X18391   5.070   0.864  15.570 -1.9254  0.8807 -0.1673
  153DOPC  H11Y18392   5.163   0.905  15.415 -0.8797  0.5492 -1.9475
  153DOPC  C31218393   4.961   0.864  15.390  0.2246 -0.9578  0.7235
  153DOPC  H12X18394   4.990   0.758  15.378 -1.1252 -1.2421 -0.1378
  153DOPC  H12Y18395   4.953   0.907  15.288 -2.1417 -1.2667  0.7352
  153DOPC  C31318396   4.815   0.870  15.453 -0.6053  0.1773  0.2308
  153DOPC  H13X18397   4.780   0.976  15.455  0.2708  0.4692  2.3305
  153DOPC  H13Y18398   4.744   0.810  15.392  0.7402 -0.3784 -0.8326
  153DOPC  C31418399   4.804   0.815  15.591 -0.1373 -0.4636 -0.2551
  153DOPC  H14X18400   4.851   0.714  15.596  1.3455  0.2503  2.6381
  153DOPC  H14Y18401   4.864   0.879  15.659 -0.4367  0.6190 -0.9843
  153DOPC  C31518402   4.659   0.813  15.639 -0.4461  0.2996 -0.0701
  153DOPC  H15X18403   4.616   0.717  15.603  1.8044 -1.2549  1.1610
  153DOPC  H15Y18404   4.596   0.895  15.597 -1.0182 -0.2300 -0.2558
  153DOPC  C31618405   4.644   0.818  15.792  0.2523 -0.1627  0.0837
  153DOPC  H16X18406   4.724   0.751  15.832 -0.0416 -1.0382 -0.7575
  153DOPC  H16Y18407   4.654   0.919  15.837 -0.2023 -0.7072  1.4722
  153DOPC  C31718408   4.518   0.749  15.845  1.3482 -1.1094 -0.4162
  153DOPC  H17X18409   4.428   0.801  15.804  0.3138 -0.1807  2.7069
  153DOPC  H17Y18410   4.530   0.641  15.823  1.5649 -1.3732  0.9027
  153DOPC  C31818411   4.495   0.768  15.998  0.4183  0.8438  0.1820
  153DOPC  H18X18412   4.400   0.715  16.022  1.3217 -0.7209  0.4157
  153DOPC  H18Y18413   4.574   0.716  16.055 -1.2549 -2.4650 -0.2855
  153DOPC  H18Z18414   4.476   0.875  16.023  1.1407  1.1018 -0.3187
  154DOPC     N18415   6.709   4.710  16.975  0.4224  0.1565  0.1445
  154DOPC   C1218416   6.615   4.653  16.877 -0.2941  0.5627  0.2055
  154DOPC  H12A18417   6.640   4.550  16.855  2.3338  1.6354 -2.5509
  154DOPC  H12B18418   6.622   4.711  16.786 -0.2305  3.6350  2.0485
  154DOPC   C1318419   6.707   4.648  17.112 -0.4606 -0.1060  0.7226
  154DOPC  H13A18420   6.773   4.695  17.183 -1.3762 -0.2099  1.6809
  154DOPC  H13B18421   6.608   4.653  17.156 -1.4981 -1.5875 -1.2728
  154DOPC  H13C18422   6.730   4.542  17.109 -0.2804 -0.0503 -0.3503
  154DOPC   C1418423   6.681   4.863  16.982  0.4172 -1.0549  0.1513
  154DOPC  H14A18424   6.578   4.881  17.007  0.6161  0.8033 -0.1673
  154DOPC  H14B18425   6.746   4.910  17.055 -0.6949 -0.3792  0.7326
  154DOPC  H14C18426   6.698   4.907  16.884 -1.8475  0.2235  0.2761
  154DOPC   C1518427   6.854   4.699  16.920  0.2907  0.1666  0.4602
  154DOPC  H15A18428   6.863   4.754  16.827 -1.8378 -0.2853 -0.0625
  154DOPC  H15B18429   6.885   4.598  16.897  2.2689  0.5318  1.3201
  154DOPC  H15C18430   6.921   4.744  16.992 -0.3524  1.6409  0.1602
  154DOPC   C1118431   6.465   4.649  16.920 -0.4012 -0.2589 -0.3834
  154DOPC  H11A18432   6.411   4.589  16.843  0.1872 -0.9597 -0.2659
  154DOPC  H11B18433   6.453   4.586  17.011 -2.4630  1.4496  0.6037
  154DOPC     P18434   6.366   4.867  16.812  0.3779 -0.2177  0.1260
  154DOPC   O1318435   6.491   4.886  16.732 -0.3536 -0.6231 -0.3834
  154DOPC   O1418436   6.291   4.984  16.849  0.5940  0.4393 -0.0403
  154DOPC   O1218437   6.410   4.782  16.938  0.0197 -0.2438 -0.3308
  154DOPC   O1118438   6.278   4.766  16.726 -0.3323 -0.2451 -0.2335
  154DOPC    C118439   6.159   4.700  16.783  0.2247  0.4879  0.0145
  154DOPC    HA18440   6.142   4.737  16.887  3.7926  1.4642  0.4150
  154DOPC    HB18441   6.179   4.591  16.791 -2.0654  0.1451  2.2910
  154DOPC    C218442   6.039   4.718  16.686 -0.8776 -0.3447 -0.2698
  154DOPC    HS18443   5.962   4.639  16.701 -1.3327  0.2930  0.8980
  154DOPC   O2118444   6.088   4.724  16.547 -0.4058  0.0655  0.6323
  154DOPC   C2118445   6.165   4.618  16.504  0.4534  0.1032 -0.1859
  154DOPC   O2218446   6.161   4.509  16.555  0.0900  0.2624 -0.3990
  154DOPC   C2218447   6.239   4.646  16.375  0.2730  0.6118 -0.9175
  154DOPC   H2R18448   6.305   4.727  16.412 -0.6600  0.6474  0.8082
  154DOPC   H2S18449   6.169   4.717  16.326 -0.9588  0.6486  0.7809
  154DOPC    C318450   5.961   4.853  16.710  0.0501 -0.0888 -0.5506
  154DOPC    HX18451   6.029   4.936  16.680  1.9676 -1.5536 -0.4186
  154DOPC    HY18452   5.949   4.880  16.817  0.2481 -0.2317 -0.4920
  154DOPC   O3118453   5.840   4.865  16.626  0.2540  0.4708 -0.5838
  154DOPC   C3118454   5.728   4.884  16.695  0.7834 -0.1596  0.2408
  154DOPC   O3218455   5.715   4.882  16.816  0.0535  0.4035  0.3826
  154DOPC   C3218456   5.607   4.903  16.602  0.1881 -0.1148 -0.1703
  154DOPC   H2X18457   5.512   4.874  16.652  0.2598 -0.5094 -0.2667
  154DOPC   H2Y18458   5.621   5.013  16.595  1.7353 -0.3127 -0.6356
  154DOPC   C2318459   6.312   4.531  16.307 -0.0672  0.7574  0.3972
  154DOPC   H3R18460   6.238   4.488  16.236  1.3447 -1.4022  0.1440
  154DOPC   H3S18461   6.349   4.452  16.375  2.9073  1.5876 -0.0961
  154DOPC   C2418462   6.429   4.591  16.220  1.2204 -0.0100 -0.3776
  154DOPC   H4R18463   6.494   4.504  16.199 -0.6508 -1.3927 -0.7461
  154DOPC   H4S18464   6.482   4.666  16.282  0.2813 -1.0086  1.7574
  154DOPC   C2518465   6.375   4.667  16.100  0.0033  0.5251 -0.0742
  154DOPC   H5R18466   6.307   4.747  16.135 -3.6875 -2.2549 -0.1454
  154DOPC   H5S18467   6.314   4.592  16.044  3.1164 -3.3794  1.2863
  154DOPC   C2618468   6.481   4.721  16.010 -0.2053  0.4442 -0.1731
  154DOPC   H6R18469   6.552   4.784  16.069 -0.0511 -0.7274  0.9478
  154DOPC   H6S18470   6.428   4.786  15.938  0.8087  2.0527  0.4721
  154DOPC   C2718471   6.560   4.606  15.932  0.2278  0.1314  0.2837
  154DOPC   H7R18472   6.584   4.529  16.008  0.4028 -1.0527 -0.9375
  154DOPC   H7S18473   6.658   4.645  15.897 -0.3473  1.9888  0.5911
  154DOPC   C2818474   6.485   4.541  15.808 -0.3202 -0.1266  0.3726
  154DOPC   H8R18475   6.460   4.626  15.741  1.3230  0.6038  0.6335
  154DOPC   H8S18476   6.381   4.508  15.830 -1.0103  2.5748  1.5568
  154DOPC   C2918477   6.566   4.437  15.735 -0.0086 -0.5524 -0.4957
  154DOPC   H9R18478   6.676   4.444  15.735 -0.0297 -0.0249 -1.7771
  154DOPC  C21018479   6.508   4.348  15.650 -0.2278 -0.1447  0.1976
  154DOPC  H10R18480   6.580   4.288  15.593  0.9244  1.2420  0.1476
  154DOPC  C21118481   6.368   4.317  15.616 -0.0897  0.0086 -0.0716
  154DOPC  H11R18482   6.334   4.367  15.523 -0.5093  2.6820  1.4060
  154DOPC  H11S18483   6.312   4.335  15.709  0.9379 -0.9141  0.7598
  154DOPC  C21218484   6.346   4.161  15.592 -1.2703 -0.2887 -0.2205
  154DOPC  H12R18485   6.236   4.144  15.602 -1.2679  0.0053  0.3147
  154DOPC  H12S18486   6.405   4.099  15.663 -0.3870 -1.8333 -2.1766
  154DOPC  C21318487   6.382   4.132  15.442  0.4462  0.4090  0.0533
  154DOPC  H13R18488   6.481   4.181  15.428 -0.3970  1.7806 -1.4271
  154DOPC  H13S18489   6.304   4.170  15.372  0.6527 -0.8317 -0.8880
  154DOPC  C21418490   6.391   3.984  15.401 -0.5932  0.2015 -0.7819
  154DOPC  H14R18491   6.297   3.925  15.415 -0.5514 -0.4624 -2.9293
  154DOPC  H14S18492   6.471   3.942  15.465 -1.5291  0.1277  0.3893
  154DOPC  C21518493   6.415   3.980  15.253  0.5639  0.2037 -0.0860
  154DOPC  H15R18494   6.499   4.044  15.219 -0.1591  0.2325 -1.9324
  154DOPC  H15S18495   6.329   4.030  15.202  0.2137 -0.1380  0.1641
  154DOPC  C21618496   6.431   3.840  15.196  0.0113  0.2924  0.5735
  154DOPC  H16R18497   6.333   3.790  15.209  0.1563  0.0309  0.6632
  154DOPC  H16S18498   6.508   3.790  15.259 -0.5953  1.0420  1.9408
  154DOPC  C21718499   6.459   3.846  15.041 -0.6615 -0.5763 -0.2764
  154DOPC  H17R18500   6.561   3.890  15.033 -0.9640  0.8588  2.5390
  154DOPC  H17S18501   6.393   3.915  14.985  0.5854 -0.2850 -1.4354
  154DOPC  C21818502   6.451   3.701  14.989  0.2074  0.2493 -0.0338
  154DOPC  H18R18503   6.451   3.697  14.878  1.6978  0.3928 -0.0578
  154DOPC  H18S18504   6.356   3.651  15.017  0.0307 -0.5955 -1.9511
  154DOPC  H18T18505   6.545   3.645  15.009  0.8787  1.1466 -0.6016
  154DOPC   C3318506   5.642   4.816  16.480 -0.3165  0.2101  0.1585
  154DOPC   H3X18507   5.685   4.718  16.509 -1.8101 -0.2046  1.0651
  154DOPC   H3Y18508   5.715   4.869  16.414 -0.3793  2.0077  1.4522
  154DOPC   C3418509   5.516   4.765  16.404  0.4638 -0.4759 -0.0060
  154DOPC   H4X18510   5.476   4.857  16.356  1.1391  0.0599  0.4453
  154DOPC   H4Y18511   5.448   4.739  16.488 -0.2580  1.3088 -0.0006
  154DOPC   C3518512   5.546   4.660  16.301 -0.0999  0.2557 -0.0310
  154DOPC   H5X18513   5.448   4.615  16.274 -0.8003  1.1087  0.9992
  154DOPC   H5Y18514   5.610   4.582  16.346  0.4528  1.2899  1.0116
  154DOPC   C3618515   5.613   4.721  16.177  0.8486 -0.3737  0.4312
  154DOPC   H6X18516   5.701   4.781  16.209  0.0038  2.0135 -1.3614
  154DOPC   H6Y18517   5.646   4.639  16.110  0.1074 -0.4876  0.1925
  154DOPC   C3718518   5.508   4.804  16.088 -0.3298  0.4219 -0.5020
  154DOPC   H7X18519   5.416   4.742  16.080  0.3445 -0.4207 -2.3499
  154DOPC   H7Y18520   5.482   4.904  16.129 -2.9825 -1.2580  2.4187
  154DOPC   C3818521   5.568   4.811  15.945  0.4282  0.1832  0.0513
  154DOPC   H8X18522   5.576   4.707  15.908 -0.7259 -0.3599  1.2502
  154DOPC   H8Y18523   5.670   4.856  15.947  0.6070 -0.0055 -2.1683
  154DOPC   C3918524   5.485   4.906  15.860 -0.0196 -0.3264 -0.4690
  154DOPC   H9X18525   5.377   4.914  15.881 -0.4777 -2.7323 -1.5571
  154DOPC  C31018526   5.530   4.954  15.741 -0.0779 -0.4808 -0.5145
  154DOPC  H10X18527   5.464   5.010  15.674  1.1592  0.4139 -1.0201
  154DOPC  C31118528   5.668   4.933  15.682  0.0320  0.3630  0.1353
  154DOPC  H11X18529   5.674   4.836  15.628 -0.5796  0.0615  0.6000
  154DOPC  H11Y18530   5.737   4.926  15.769  0.9940 -0.3748 -0.6654
  154DOPC  C31218531   5.709   5.053  15.593  0.5313  0.5301  0.4254
  154DOPC  H12X18532   5.702   5.140  15.661 -0.9225  1.1220 -0.4319
  154DOPC  H12Y18533   5.634   5.060  15.511  0.1786 -1.2997  0.5320
  154DOPC  C31318534   5.844   5.024  15.528 -0.0308  0.5506  0.0378
  154DOPC  H13X18535   5.920   5.034  15.608 -1.1639  0.4921  1.1529
  154DOPC  H13Y18536   5.845   4.923  15.481  0.6263  0.8263 -0.5537
  154DOPC  C31418537   5.879   5.121  15.422  0.2436  0.1486 -0.0771
  154DOPC  H14X18538   5.809   5.121  15.335 -0.8269  0.9485  0.7559
  154DOPC  H14Y18539   5.885   5.223  15.465 -1.3444 -0.0362  0.6613
  154DOPC  C31518540   6.022   5.102  15.369 -0.2383 -0.1328 -0.0196
  154DOPC  H15X18541   6.014   5.006  15.314 -2.4007  0.2698 -0.5309
  154DOPC  H15Y18542   6.098   5.090  15.449  0.1791 -2.9044 -0.7289
  154DOPC  C31618543   6.073   5.206  15.273 -0.1734  0.6091 -0.4522
  154DOPC  H16X18544   5.996   5.234  15.198 -0.0065  0.4210 -0.6948
  154DOPC  H16Y18545   6.098   5.299  15.327  0.4402  0.5639 -0.6475
  154DOPC  C31718546   6.211   5.158  15.214  0.7794  0.2617 -0.2765
  154DOPC  H17X18547   6.271   5.111  15.294  0.1700 -2.2074 -1.1691
  154DOPC  H17Y18548   6.170   5.080  15.146 -1.9876  1.7550 -0.5021
  154DOPC  C31818549   6.287   5.269  15.147  0.4981  0.2778  0.6867
  154DOPC  H18X18550   6.234   5.336  15.077 -1.3942 -1.0730  0.7203
  154DOPC  H18Y18551   6.334   5.333  15.225  2.1135 -1.6303  1.3632
  154DOPC  H18Z18552   6.364   5.228  15.078  2.3569  2.2938  1.4610
  155DOPC     N18553   1.503   1.788  17.299  0.3927 -0.0855 -0.6550
  155DOPC   C1218554   1.381   1.821  17.220 -0.6302 -0.4194  0.2659
  155DOPC  H12A18555   1.335   1.913  17.250  2.1461  0.7461  1.3034
  155DOPC  H12B18556   1.302   1.748  17.233  0.1783 -1.4632 -0.5097
  155DOPC   C1318557   1.559   1.663  17.257 -0.2833 -0.2974 -0.3351
  155DOPC  H13A18558   1.595   1.666  17.155 -1.4864 -0.1438 -0.7709
  155DOPC  H13B18559   1.638   1.640  17.328 -1.1800  2.4971  1.7387
  155DOPC  H13C18560   1.483   1.587  17.264  0.2567 -0.7782  0.6166
  155DOPC   C1418561   1.457   1.797  17.447  0.0986  0.1477  0.1347
  155DOPC  H14A18562   1.429   1.896  17.479  0.2149  0.0400  0.5728
  155DOPC  H14B18563   1.370   1.734  17.451 -0.9168  1.4762 -0.2794
  155DOPC  H14C18564   1.525   1.749  17.515 -0.7414  1.8029  2.2590
  155DOPC   C1518565   1.617   1.889  17.280  0.2912  0.7193  0.0933
  155DOPC  H15A18566   1.638   1.898  17.175 -0.4484 -0.3657 -0.1626
  155DOPC  H15B18567   1.707   1.860  17.333  0.9892  0.2825 -1.2775
  155DOPC  H15C18568   1.580   1.986  17.310  0.0730  0.1988  1.5728
  155DOPC   C1118569   1.401   1.841  17.068 -0.1427  0.3298  0.8706
  155DOPC  H11A18570   1.452   1.754  17.020 -1.1261  0.2423 -0.0545
  155DOPC  H11B18571   1.302   1.861  17.020 -1.3936 -1.9658  2.3381
  155DOPC     P18572   1.459   2.113  17.028 -0.0143  0.0329 -0.0923
  155DOPC   O1318573   1.579   2.186  17.064  0.0125 -0.2053  0.7336
  155DOPC   O1418574   1.338   2.133  17.118  0.2313 -0.3940 -0.0963
  155DOPC   O1218575   1.492   1.952  17.044 -0.1683 -0.0867  0.2525
  155DOPC   O1118576   1.422   2.119  16.875  0.2371 -0.4536 -0.6667
  155DOPC    C118577   1.534   2.132  16.791 -0.4698  0.1358 -0.0122
  155DOPC    HA18578   1.525   2.047  16.720 -0.5015 -0.1159  0.2908
  155DOPC    HB18579   1.637   2.129  16.832 -0.0518  0.3351 -1.0193
  155DOPC    C218580   1.528   2.262  16.692 -0.3491  0.5006 -0.8763
  155DOPC    HS18581   1.597   2.247  16.606  1.1728 -0.4050  0.4457
  155DOPC   O2118582   1.548   2.378  16.770  0.2845  0.3139 -0.3521
  155DOPC   C2118583   1.676   2.411  16.791 -0.7207  0.0629 -0.4442
  155DOPC   O2218584   1.775   2.360  16.745 -0.7552  0.2573 -0.4674
  155DOPC   C2218585   1.686   2.530  16.881  0.1169 -0.0043  0.4157
  155DOPC   H2R18586   1.702   2.492  16.984 -0.8363  0.5893  0.7991
  155DOPC   H2S18587   1.586   2.578  16.889 -0.9254 -2.2490  2.1394
  155DOPC    C318588   1.386   2.269  16.637 -0.1880 -0.0712  0.1368
  155DOPC    HX18589   1.317   2.299  16.719  0.1287  3.0446 -0.6103
  155DOPC    HY18590   1.348   2.170  16.603  0.9060 -0.5488  0.2758
  155DOPC   O3118591   1.389   2.360  16.526 -0.0521 -0.2655  0.0782
  155DOPC   C3118592   1.305   2.461  16.528 -0.0959 -0.0271  0.0315
  155DOPC   O3218593   1.212   2.485  16.607 -0.0512  0.7384 -0.0096
  155DOPC   C3218594   1.350   2.562  16.417  0.2991 -0.0793  0.2054
  155DOPC   H2X18595   1.281   2.649  16.417 -1.1856 -1.2052 -0.1876
  155DOPC   H2Y18596   1.453   2.592  16.444  0.5683 -0.1609 -0.7062
  155DOPC   C2318597   1.799   2.633  16.858  0.0259  0.3582  0.0458
  155DOPC   H3R18598   1.894   2.578  16.846 -0.0192  0.4402 -0.6957
  155DOPC   H3S18599   1.813   2.689  16.953 -1.5643  0.9478 -0.0303
  155DOPC   C2418600   1.782   2.724  16.742  0.1128  0.7512  0.1222
  155DOPC   H4R18601   1.803   2.679  16.642 -1.1755  1.7084 -0.6071
  155DOPC   H4S18602   1.867   2.793  16.758  1.2208 -0.8629  1.6222
  155DOPC   C2518603   1.645   2.805  16.730 -0.3827 -0.3195 -0.6073
  155DOPC   H5R18604   1.640   2.886  16.807  1.2248 -0.0508 -0.7380
  155DOPC   H5S18605   1.563   2.731  16.741 -0.5130 -0.1110 -0.1521
  155DOPC   C2618606   1.638   2.864  16.588  0.2707 -0.9230  0.6510
  155DOPC   H6R18607   1.599   2.780  16.527 -1.2078 -0.9194  1.5474
  155DOPC   H6S18608   1.739   2.891  16.550 -0.5841 -0.9348 -1.7613
  155DOPC   C2718609   1.533   2.974  16.563 -0.1398 -0.0135 -0.0012
  155DOPC   H7R18610   1.564   3.055  16.633  0.5728  0.4385 -0.8193
  155DOPC   H7S18611   1.428   2.951  16.591  0.3015  0.5383  2.3305
  155DOPC   C2818612   1.525   3.029  16.412 -0.2667 -0.5565 -0.3904
  155DOPC   H8R18613   1.513   2.945  16.340 -1.5373 -1.2525  0.6086
  155DOPC   H8S18614   1.622   3.079  16.391  1.0011 -2.3912  0.7983
  155DOPC   C2918615   1.415   3.127  16.388  0.4018 -0.0529  0.7665
  155DOPC   H9R18616   1.417   3.222  16.442 -0.3444 -0.1181  0.9245
  155DOPC  C21018617   1.308   3.102  16.314 -0.3496 -1.0512 -0.2578
  155DOPC  H10R18618   1.227   3.178  16.311  0.0951 -0.4504  1.6203
  155DOPC  C21118619   1.277   2.985  16.224  0.1552  0.7713  0.1946
  155DOPC  H11R18620   1.177   2.943  16.244 -0.9322  3.3304  0.5460
  155DOPC  H11S18621   1.359   2.909  16.226  0.5909  1.2330  0.0977
  155DOPC  C21218622   1.277   3.028  16.072  0.2134  0.2264 -0.2343
  155DOPC  H12R18623   1.277   2.939  16.006  0.6710  0.5782 -0.7157
  155DOPC  H12S18624   1.371   3.084  16.054  0.3622  0.0398 -0.0481
  155DOPC  C21318625   1.162   3.121  16.030  0.0657  0.7603  0.0214
  155DOPC  H13R18626   1.169   3.218  16.085 -0.1145  0.1977  1.0712
  155DOPC  H13S18627   1.065   3.072  16.054  0.6733 -0.4054  0.1922
  155DOPC  C21418628   1.168   3.162  15.877 -0.1657  0.5385  0.3297
  155DOPC  H14R18629   1.167   3.070  15.816  0.5379  0.3100  0.6489
  155DOPC  H14S18630   1.261   3.220  15.857 -0.3724  1.4493  1.8474
  155DOPC  C21518631   1.040   3.239  15.834  0.3864 -0.4539  0.2915
  155DOPC  H15R18632   1.062   3.344  15.864 -1.6133 -0.2039  1.0890
  155DOPC  H15S18633   0.943   3.207  15.878  0.5708  1.5403  2.3666
  155DOPC  C21618634   1.010   3.242  15.679 -0.4018  0.1658 -0.0837
  155DOPC  H16R18635   0.982   3.139  15.648 -0.1349  0.3072 -0.8075
  155DOPC  H16S18636   1.106   3.267  15.629 -0.2418  0.4489  0.3553
  155DOPC  C21718637   0.892   3.330  15.626 -0.5122 -0.3528  0.0433
  155DOPC  H17R18638   0.898   3.319  15.516 -0.2671 -1.3144  0.1405
  155DOPC  H17S18639   0.918   3.431  15.662 -1.9569 -0.7684  2.4770
  155DOPC  C21818640   0.755   3.275  15.664  0.4896 -0.1940 -0.6153
  155DOPC  H18R18641   0.746   3.292  15.774 -0.5425  3.1088 -1.0998
  155DOPC  H18S18642   0.743   3.167  15.643  0.2642  0.0103 -1.5643
  155DOPC  H18T18643   0.670   3.332  15.621  0.5931 -0.8044 -1.6438
  155DOPC   C3318644   1.353   2.497  16.281  0.5876 -0.2533 -0.0233
  155DOPC   H3X18645   1.246   2.485  16.254  0.1938 -1.1164  1.7832
  155DOPC   H3Y18646   1.396   2.395  16.289 -2.9444 -2.2522 -3.0656
  155DOPC   C3418647   1.413   2.594  16.181  0.0228 -0.4981 -0.4393
  155DOPC   H4X18648   1.503   2.552  16.131  1.1177 -0.8138  1.6626
  155DOPC   H4Y18649   1.445   2.684  16.238  2.7354 -2.3704  1.2767
  155DOPC   C3518650   1.307   2.622  16.070 -0.2952  0.2747 -0.0381
  155DOPC   H5X18651   1.352   2.700  16.004 -0.3858 -0.1566 -0.6134
  155DOPC   H5Y18652   1.209   2.653  16.112 -1.4592 -2.5677 -0.4326
  155DOPC   C3618653   1.271   2.498  15.981 -0.0575 -0.1498 -0.7301
  155DOPC   H6X18654   1.367   2.447  15.961 -0.0092 -0.3443 -0.0389
  155DOPC   H6Y18655   1.225   2.418  16.043 -2.7646 -0.0097 -2.3984
  155DOPC   C3718656   1.170   2.532  15.882  0.3598  0.1929  0.5825
  155DOPC   H7X18657   1.074   2.551  15.934  0.9566 -0.0979  1.8358
  155DOPC   H7Y18658   1.198   2.620  15.821  1.5931 -0.6086 -0.0487
  155DOPC   C3818659   1.154   2.417  15.777  0.0251 -0.3252 -0.0449
  155DOPC   H8X18660   1.168   2.318  15.826  0.9535 -0.6461 -0.9284
  155DOPC   H8Y18661   1.239   2.423  15.705  0.5870  0.0370  0.6308
  155DOPC   C3918662   1.034   2.414  15.686 -0.5800  0.3115 -0.5360
  155DOPC   H9X18663   1.030   2.502  15.621 -2.0492  1.4246  0.9772
  155DOPC  C31018664   0.935   2.323  15.684  0.0834 -0.2643  0.9594
  155DOPC  H10X18665   0.856   2.341  15.609  0.4190  0.8340  0.8425
  155DOPC  C31118666   0.932   2.196  15.764  0.3001  0.6303  0.4461
  155DOPC  H11X18667   1.033   2.169  15.801  0.0027 -1.3397 -0.0457
  155DOPC  H11Y18668   0.908   2.114  15.693  1.3691  0.5203  0.1971
  155DOPC  C31218669   0.829   2.185  15.882 -1.1519  0.1803 -0.3000
  155DOPC  H12X18670   0.824   2.075  15.898  2.2508  0.2723  2.7204
  155DOPC  H12Y18671   0.731   2.219  15.844 -0.2105  1.2726 -1.8628
  155DOPC  C31318672   0.872   2.262  16.012  0.9650  0.5954  0.3619
  155DOPC  H13X18673   0.874   2.369  15.984  0.0029  0.5222 -0.0096
  155DOPC  H13Y18674   0.775   2.245  16.063  0.9186  1.2675  0.4978
  155DOPC  C31418675   0.980   2.186  16.092 -0.2305  0.5211  0.1680
  155DOPC  H14X18676   0.931   2.088  16.109 -0.7770  0.8839  0.7237
  155DOPC  H14Y18677   1.064   2.179  16.019 -1.1693 -2.1315 -0.7785
  155DOPC  C31518678   1.024   2.249  16.219  0.1840  0.3278  0.3719
  155DOPC  H15X18679   1.046   2.357  16.213  0.5214  0.3532  1.7340
  155DOPC  H15Y18680   1.123   2.206  16.244 -0.7560 -2.3034 -0.0993
  155DOPC  C31618681   0.922   2.215  16.333  0.0381 -0.5074  0.1970
  155DOPC  H16X18682   0.849   2.299  16.339 -1.2331 -1.6282  1.0244
  155DOPC  H16Y18683   0.851   2.138  16.296  0.3109  0.1080 -1.7516
  155DOPC  C31718684   0.977   2.169  16.467 -0.3806 -0.0958  0.1712
  155DOPC  H17X18685   0.932   2.070  16.493  1.4529 -0.8781  0.5516
  155DOPC  H17Y18686   1.083   2.138  16.457 -0.5638 -0.4664 -0.7074
  155DOPC  C31818687   0.957   2.261  16.582 -0.3205  0.3216 -0.1822
  155DOPC  H18X18688   0.976   2.368  16.557  2.2519 -0.3991 -1.8246
  155DOPC  H18Y18689   0.854   2.246  16.618  0.0649 -1.8381  0.1654
  155DOPC  H18Z18690   1.024   2.227  16.664 -2.4349  0.6892  1.8007
  156DOPC     N18691   6.559   6.618  16.942  0.6782  0.5190 -0.0552
  156DOPC   C1218692   6.604   6.577  16.801  0.2835  0.3582  0.1032
  156DOPC  H12A18693   6.573   6.477  16.777 -2.7735  1.4034 -0.7211
  156DOPC  H12B18694   6.712   6.573  16.806  0.2484  0.5875  1.8097
  156DOPC   C1318695   6.593   6.756  16.964  0.5744  0.1574  0.1956
  156DOPC  H13A18696   6.544   6.791  17.053  1.0648  0.0187  0.5249
  156DOPC  H13B18697   6.698   6.757  16.991  1.1014  0.7962 -1.6632
  156DOPC  H13C18698   6.561   6.803  16.872 -4.1798 -1.3805  0.8214
  156DOPC   C1418699   6.616   6.526  17.050 -0.4391  0.1389  0.1605
  156DOPC  H14A18700   6.605   6.421  17.030  0.1386 -0.3955  2.4042
  156DOPC  H14B18701   6.724   6.531  17.059 -0.4771 -0.7162  1.2653
  156DOPC  H14C18702   6.581   6.540  17.151  1.7929 -0.9455  1.1563
  156DOPC   C1518703   6.408   6.603  16.942 -0.5022 -0.0304 -0.7574
  156DOPC  H15A18704   6.371   6.503  16.962 -1.6391  0.6268  0.6646
  156DOPC  H15B18705   6.363   6.642  16.852 -1.1035  4.6721  1.2538
  156DOPC  H15C18706   6.369   6.665  17.021  1.3365  0.3016 -0.0516
  156DOPC   C1118707   6.563   6.663  16.674  0.0613  0.7462 -0.2805
  156DOPC  H11A18708   6.629   6.751  16.686  1.5008 -0.2983 -0.1943
  156DOPC  H11B18709   6.582   6.612  16.577 -1.7463 -1.2730  0.3481
  156DOPC     P18710   6.366   6.790  16.567 -0.1756 -0.1332  0.1426
  156DOPC   O1318711   6.373   6.924  16.630  0.3719  0.4478 -0.0434
  156DOPC   O1418712   6.229   6.749  16.529 -0.1499  1.2010  0.0858
  156DOPC   O1218713   6.421   6.691  16.672  0.0971  0.5005 -0.0499
  156DOPC   O1118714   6.457   6.787  16.439 -0.3636  0.2573  0.3096
  156DOPC    C118715   6.436   6.681  16.341 -0.0339 -0.3412 -0.1023
  156DOPC    HA18716   6.394   6.586  16.380  1.3249  0.0236  2.5330
  156DOPC    HB18717   6.535   6.643  16.307 -0.3850  0.0858 -1.6425
  156DOPC    C218718   6.366   6.734  16.216  0.2894  0.4298 -0.2638
  156DOPC    HS18719   6.274   6.779  16.260 -0.8885 -3.3051  1.4499
  156DOPC   O2118720   6.336   6.630  16.126  0.2629  0.2182  0.3334
  156DOPC   C2118721   6.227   6.563  16.155 -0.9166 -0.6774  0.3999
  156DOPC   O2218722   6.151   6.581  16.248 -0.8273  0.4506 -0.0566
  156DOPC   C2218723   6.206   6.463  16.049 -0.3121 -0.5650 -0.3790
  156DOPC   H2R18724   6.111   6.407  16.061  0.6167 -2.2389 -0.4836
  156DOPC   H2S18725   6.287   6.387  16.056  0.5203  0.4554  2.3829
  156DOPC    C318726   6.449   6.845  16.156  0.3699 -0.7484 -0.0963
  156DOPC    HX18727   6.545   6.793  16.139  0.8986  0.1180  0.1833
  156DOPC    HY18728   6.467   6.925  16.230 -1.5963 -0.8270  0.5449
  156DOPC   O3118729   6.383   6.898  16.040  0.1942 -0.1674  0.0333
  156DOPC   C3118730   6.310   7.006  16.057  0.2395  0.4220  0.3913
  156DOPC   O3218731   6.280   7.056  16.161 -0.4159 -0.0681 -0.0300
  156DOPC   C3218732   6.255   7.047  15.924 -0.4216 -0.4818  0.1355
  156DOPC   H2X18733   6.194   6.968  15.876 -0.5920 -0.9116  1.0396
  156DOPC   H2Y18734   6.200   7.140  15.950  0.8227 -0.2744  2.2198
  156DOPC   C2318735   6.206   6.517  15.900  0.3802  0.3357 -0.0917
  156DOPC   H3R18736   6.229   6.423  15.845  0.3035  0.5829 -0.5495
  156DOPC   H3S18737   6.292   6.584  15.876  0.3657 -0.4152 -2.5620
  156DOPC   C2418738   6.070   6.581  15.853 -0.0635  0.0081  0.5963
  156DOPC   H4R18739   6.053   6.681  15.899  1.2410  1.7293 -2.3871
  156DOPC   H4S18740   5.990   6.516  15.895 -0.2282 -0.1204  0.0920
  156DOPC   C2518741   6.064   6.601  15.706  0.0926  0.6554 -0.7447
  156DOPC   H5R18742   6.087   6.500  15.666 -0.9561  0.5637 -1.1584
  156DOPC   H5S18743   6.136   6.682  15.683  1.0942  0.2547  0.8393
  156DOPC   C2618744   5.926   6.638  15.652 -0.2668 -0.2755  0.1067
  156DOPC   H6R18745   5.899   6.744  15.670  1.1590  0.0310  0.5445
  156DOPC   H6S18746   5.850   6.572  15.699  0.7905 -1.0629  0.7642
  156DOPC   C2718747   5.916   6.612  15.502  0.2724  0.4500  0.0611
  156DOPC   H7R18748   5.807   6.615  15.482  0.5465 -0.2841 -1.6877
  156DOPC   H7S18749   5.945   6.507  15.480  1.2855  0.3814  1.5643
  156DOPC   C2818750   5.982   6.720  15.414  0.3482 -0.5619  0.0031
  156DOPC   H8R18751   6.091   6.710  15.430  0.4584  1.3778  0.7376
  156DOPC   H8S18752   5.953   6.817  15.459 -1.7989 -0.5720 -1.2264
  156DOPC   C2918753   5.947   6.710  15.266 -0.2869 -0.0974 -0.7982
  156DOPC   H9R18754   5.941   6.605  15.233 -0.6193 -0.0863 -0.7733
  156DOPC  C21018755   5.892   6.808  15.194  0.5610 -0.0617 -0.0165
  156DOPC  H10R18756   5.864   6.780  15.092 -0.7388  0.3493  0.1985
  156DOPC  C21118757   5.862   6.945  15.231 -0.3069 -0.7605  0.1882
  156DOPC  H11R18758   5.870   7.018  15.148  0.0162  0.7370  1.4775
  156DOPC  H11S18759   5.943   6.988  15.294  0.4519  0.6373 -1.6428
  156DOPC  C21218760   5.724   6.976  15.283  0.2290  0.1016 -0.1090
  156DOPC  H12R18761   5.649   6.973  15.200 -1.2181 -1.7023  1.1845
  156DOPC  H12S18762   5.718   7.077  15.329  0.3982 -0.6348  1.5802
  156DOPC  C21318763   5.671   6.874  15.385  0.1316 -0.1086  0.5940
  156DOPC  H13R18764   5.739   6.839  15.465 -1.2766  0.2128  1.9873
  156DOPC  H13S18765   5.660   6.783  15.322  0.7491  0.0590  0.2391
  156DOPC  C21418766   5.529   6.908  15.435  0.2572 -0.2466  1.2129
  156DOPC  H14R18767   5.476   6.955  15.350  1.9670 -2.7882 -1.4931
  156DOPC  H14S18768   5.539   6.980  15.519  0.8641 -0.6608  1.5003
  156DOPC  C21518769   5.469   6.776  15.474 -0.3134  0.2498  0.0709
  156DOPC  H15R18770   5.480   6.687  15.409  1.2148  0.4032  0.0883
  156DOPC  H15S18771   5.359   6.786  15.489 -0.2201 -1.1730  2.1139
  156DOPC  C21618772   5.524   6.724  15.608 -0.1209  0.6578 -0.8224
  156DOPC  H16R18773   5.525   6.801  15.688  2.5599  2.5728 -2.5081
  156DOPC  H16S18774   5.627   6.688  15.591 -0.4838 -0.9547  0.1977
  156DOPC  C21718775   5.442   6.603  15.657  0.5612  0.1415  0.5732
  156DOPC  H17R18776   5.449   6.522  15.581 -1.5956 -0.6262  1.1205
  156DOPC  H17S18777   5.339   6.644  15.665  0.3391 -0.1037 -0.8853
  156DOPC  C21818778   5.489   6.548  15.794 -0.1282 -0.1900 -0.1763
  156DOPC  H18R18779   5.423   6.462  15.818 -1.6480  1.0018  0.0674
  156DOPC  H18S18780   5.480   6.633  15.865 -1.9223 -1.8979  1.7882
  156DOPC  H18T18781   5.596   6.521  15.791 -0.5128 -1.7327 -1.0630
  156DOPC   C3318782   6.370   7.085  15.824 -0.2114 -0.0000 -0.3295
  156DOPC   H3X18783   6.315   7.073  15.728 -1.8229 -2.1389  0.7674
  156DOPC   H3Y18784   6.455   7.013  15.819  0.5681  0.9295 -0.6834
  156DOPC   C3418785   6.425   7.224  15.816  0.6557 -0.2422 -0.3053
  156DOPC   H4X18786   6.486   7.247  15.906  0.4963  0.6379 -0.4126
  156DOPC   H4Y18787   6.350   7.306  15.809  2.7929  1.6916 -2.0756
  156DOPC   C3518788   6.521   7.237  15.690  0.3998  0.3347 -0.1584
  156DOPC   H5X18789   6.463   7.224  15.596 -1.9744  0.9514  1.1398
  156DOPC   H5Y18790   6.593   7.153  15.695  0.0052 -0.0130 -0.3341
  156DOPC   C3618791   6.574   7.384  15.684 -0.1666 -0.2010 -0.6768
  156DOPC   H6X18792   6.493   7.453  15.651 -2.2542 -1.7488  0.8972
  156DOPC   H6Y18793   6.609   7.421  15.783  1.9315 -1.1107 -1.0215
  156DOPC   C3718794   6.685   7.396  15.578 -0.0557 -0.2826  0.3522
  156DOPC   H7X18795   6.642   7.375  15.478 -0.5433  1.9200  0.0622
  156DOPC   H7Y18796   6.712   7.503  15.573  1.9886 -0.8089 -2.8982
  156DOPC   C3818797   6.807   7.314  15.617 -0.1756  0.6365 -0.6613
  156DOPC   H8X18798   6.785   7.209  15.588 -0.2410  0.8680 -1.4637
  156DOPC   H8Y18799   6.819   7.321  15.727  0.2114 -0.2931 -0.6350
  156DOPC   C3918800   6.938   7.347  15.541 -0.3099  0.4289  0.3833
  156DOPC   H9X18801   6.933   7.342  15.431  3.0347  0.8866  0.1017
  156DOPC  C31018802   7.061   7.373  15.583  0.5461 -0.9920 -0.3613
  156DOPC  H10X18803   7.134   7.398  15.505 -0.0898 -3.1162 -1.7232
  156DOPC  C31118804   7.111   7.388  15.720 -0.1625  0.4454  0.2623
  156DOPC  H11X18805   7.221   7.405  15.719  0.1281 -1.1619  0.7410
  156DOPC  H11Y18806   7.101   7.295  15.781 -2.0145  0.6327  0.2867
  156DOPC  C31218807   7.048   7.514  15.783  0.1766  0.0920  0.0904
  156DOPC  H12X18808   6.937   7.514  15.776  0.2405  1.9670 -1.8140
  156DOPC  H12Y18809   7.080   7.603  15.725  0.3964 -0.2140 -0.2633
  156DOPC  C31318810   7.082   7.529  15.926  0.2148  0.7366 -0.4174
  156DOPC  H13X18811   7.046   7.434  15.971  2.1848  1.2723  2.5996
  156DOPC  H13Y18812   7.193   7.527  15.937  0.1043 -1.2705  0.8079
  156DOPC  C31418813   7.030   7.652  15.999 -0.8770  0.1555  0.2543
  156DOPC  H14X18814   7.065   7.648  16.105 -0.9145 -1.4646  0.2329
  156DOPC  H14Y18815   7.067   7.741  15.944  0.4674 -0.7411 -0.3503
  156DOPC  C31518816   6.883   7.666  16.003  0.1249 -0.6827  0.5177
  156DOPC  H15X18817   6.854   7.691  15.899 -0.1827 -4.4804 -0.4390
  156DOPC  H15Y18818   6.855   7.752  16.068  2.1474 -2.5703  4.2002
  156DOPC  C31618819   6.796   7.547  16.049  0.5688  0.1367  0.1444
  156DOPC  H16X18820   6.826   7.454  15.997  1.1037 -0.5989  1.7268
  156DOPC  H16Y18821   6.806   7.533  16.158  0.2445 -0.7966  0.0598
  156DOPC  C31718822   6.648   7.587  16.008 -0.3300  0.1579 -0.2535
  156DOPC  H17X18823   6.640   7.688  16.054  0.0865 -0.4678  1.2906
  156DOPC  H17Y18824   6.634   7.598  15.899  0.1934  1.1523 -0.2298
  156DOPC  C31818825   6.551   7.486  16.071  0.0762  0.1833  0.2715
  156DOPC  H18X18826   6.597   7.386  16.058  0.3866  0.4305 -0.5729
  156DOPC  H18Y18827   6.517   7.505  16.175 -2.4480  2.0139 -0.7668
  156DOPC  H18Z18828   6.462   7.473  16.005  0.6635 -1.7053 -0.2066
  157DOPC     N18829   3.922   2.676  16.987  0.2664 -0.6184 -0.1812
  157DOPC   C1218830   3.917   2.811  16.914  0.0675  0.1484  1.1198
  157DOPC  H12A18831   3.888   2.884  16.988 -1.5476  1.1213 -0.3797
  157DOPC  H12B18832   3.839   2.813  16.839  0.7797  2.5351  0.3398
  157DOPC   C1318833   4.025   2.680  17.096 -0.1164  0.1368 -0.3580
  157DOPC  H13A18834   4.123   2.697  17.056 -0.6057  0.9621 -1.2293
  157DOPC  H13B18835   4.010   2.755  17.172  1.3632 -0.5757  0.6855
  157DOPC  H13C18836   4.033   2.582  17.142 -0.1013  0.3560  0.1091
  157DOPC   C1418837   3.967   2.567  16.893  0.0894 -0.2427 -0.0478
  157DOPC  H14A18838   3.910   2.556  16.802  0.3803 -1.7613 -0.0642
  157DOPC  H14B18839   4.062   2.600  16.854  0.8132 -3.2557 -1.0720
  157DOPC  H14C18840   3.975   2.473  16.946 -1.2456 -0.3704 -0.0287
  157DOPC   C1518841   3.785   2.642  17.043 -0.6237  0.4151  0.4626
  157DOPC  H15A18842   3.712   2.645  16.964 -2.0411 -2.7419  1.4592
  157DOPC  H15B18843   3.757   2.698  17.131  0.3951  1.1614  0.3273
  157DOPC  H15C18844   3.775   2.538  17.070 -1.3988  0.8737  2.0452
  157DOPC   C1118845   4.043   2.870  16.855 -0.6120 -0.9472 -0.4208
  157DOPC  H11A18846   4.033   2.980  16.843  4.1269 -0.1588  0.6772
  157DOPC  H11B18847   4.132   2.852  16.918 -1.6857 -1.7203  0.9295
  157DOPC     P18848   4.199   2.806  16.647 -0.7225  0.0542 -0.2887
  157DOPC   O1318849   4.283   2.706  16.718 -0.3190  0.1697 -0.9307
  157DOPC   O1418850   4.253   2.942  16.629 -0.1899  0.3068  0.3889
  157DOPC   O1218851   4.064   2.813  16.728  0.0745 -0.0185  0.1724
  157DOPC   O1118852   4.162   2.741  16.503 -0.4758  0.2199  0.3484
  157DOPC    C118853   4.029   2.731  16.454  0.1483 -0.2707 -0.8496
  157DOPC    HA18854   3.956   2.724  16.538  1.0619 -1.6723 -0.1322
  157DOPC    HB18855   4.022   2.635  16.398  0.1732 -0.7918  0.0155
  157DOPC    C218856   3.993   2.847  16.368 -0.0196 -0.2152  0.6108
  157DOPC    HS18857   3.893   2.823  16.327 -0.3167  1.2833  0.3991
  157DOPC   O2118858   4.087   2.870  16.258  0.1088 -0.1729  0.0403
  157DOPC   C2118859   4.104   2.774  16.168  0.1619  0.5231 -0.4163
  157DOPC   O2218860   4.036   2.672  16.162 -0.1531  0.3511  0.2852
  157DOPC   C2218861   4.203   2.821  16.067 -0.1158  0.3528  0.5391
  157DOPC   H2R18862   4.302   2.805  16.115  0.5335 -1.2962 -1.2017
  157DOPC   H2S18863   4.192   2.927  16.038  0.8764 -0.0964 -1.8060
  157DOPC    C318864   3.967   2.982  16.441 -0.6294  0.0970 -1.0454
  157DOPC    HX18865   4.064   3.008  16.488  0.3831 -0.7981 -2.5236
  157DOPC    HY18866   3.888   2.950  16.512  2.0242 -1.7700  1.2627
  157DOPC   O3118867   3.917   3.085  16.359  0.9217  0.5537 -0.3960
  157DOPC   C3118868   4.006   3.136  16.281  0.1276 -1.0877  0.0136
  157DOPC   O3218869   4.128   3.131  16.303  0.7123  0.5234  0.7533
  157DOPC   C3218870   3.943   3.192  16.148 -0.0671 -0.2698  0.9860
  157DOPC   H2X18871   3.842   3.150  16.127 -0.1634  0.1435  0.5993
  157DOPC   H2Y18872   3.915   3.299  16.164 -2.5289 -0.7250  0.2199
  157DOPC   C2318873   4.205   2.724  15.946 -0.6989 -0.5111  0.7422
  157DOPC   H3R18874   4.113   2.734  15.885 -0.3328 -0.6981  0.1479
  157DOPC   H3S18875   4.207   2.617  15.974 -1.7174 -0.7903 -0.1882
  157DOPC   C2418876   4.328   2.751  15.858  0.1776 -0.4281 -0.2150
  157DOPC   H4R18877   4.320   2.682  15.771 -0.2403  0.6364 -1.0375
  157DOPC   H4S18878   4.418   2.728  15.919  1.4040 -0.9672 -2.1264
  157DOPC   C2518879   4.336   2.894  15.805  0.1869  0.3764  0.3442
  157DOPC   H5R18880   4.440   2.897  15.767 -0.3960  0.2554 -1.3749
  157DOPC   H5S18881   4.317   2.979  15.873  0.6782  1.2041 -0.5325
  157DOPC   C2618882   4.257   2.922  15.676 -0.1801  0.2058  0.9417
  157DOPC   H6R18883   4.256   2.827  15.618  0.0046 -1.1999  3.1054
  157DOPC   H6S18884   4.317   3.004  15.631  1.7161 -1.5230  0.1765
  157DOPC   C2718885   4.115   2.979  15.704 -0.9611 -0.0348  0.3136
  157DOPC   H7R18886   4.116   3.084  15.742 -0.0646 -0.1668  0.6679
  157DOPC   H7S18887   4.082   2.927  15.796 -0.8290  1.6232  1.3446
  157DOPC   C2818888   4.019   2.958  15.584  0.3761 -0.7871  0.2861
  157DOPC   H8R18889   3.917   2.960  15.630 -0.7966  3.6036 -1.9728
  157DOPC   H8S18890   4.050   2.858  15.548  2.8129 -0.1391  0.4304
  157DOPC   C2918891   4.028   3.060  15.474 -0.5201  1.1245 -0.3434
  157DOPC   H9R18892   3.994   3.160  15.503  0.8766  1.3066  0.7687
  157DOPC  C21018893   4.092   3.047  15.357 -0.1175  0.3991  0.0697
  157DOPC  H10R18894   4.128   3.133  15.298  2.6038 -0.6411  0.0778
  157DOPC  C21118895   4.145   2.923  15.300 -0.7682 -0.2505  0.1748
  157DOPC  H11R18896   4.096   2.911  15.202 -1.6575 -1.4950  0.7483
  157DOPC  H11S18897   4.127   2.836  15.368  0.0441  0.6231  1.5701
  157DOPC  C21218898   4.297   2.931  15.274  0.2995  0.6434  0.1149
  157DOPC  H12R18899   4.339   2.945  15.376 -0.0428 -2.0057  0.6932
  157DOPC  H12S18900   4.338   3.011  15.209  0.4521  2.2531  2.0760
  157DOPC  C21318901   4.354   2.804  15.220  0.1735  0.4061  0.4434
  157DOPC  H13R18902   4.317   2.778  15.119  0.8399 -1.7049  0.7006
  157DOPC  H13S18903   4.324   2.721  15.288 -0.8647  1.1693  0.9449
  157DOPC  C21418904   4.513   2.792  15.194  0.2667 -0.1624  0.4502
  157DOPC  H14R18905   4.538   2.900  15.192  1.1327 -0.3554 -1.6282
  157DOPC  H14S18906   4.524   2.771  15.085 -1.1710  0.9720  0.0585
  157DOPC  C21518907   4.589   2.707  15.295 -0.2297  0.6062  0.7361
  157DOPC  H15R18908   4.694   2.703  15.257 -0.7460  1.6563 -0.9352
  157DOPC  H15S18909   4.553   2.602  15.287  0.3810  0.4391 -0.0473
  157DOPC  C21618910   4.568   2.737  15.441  0.7816 -0.9473  0.1393
  157DOPC  H16R18911   4.464   2.715  15.471  0.9920 -0.7199  1.0720
  157DOPC  H16S18912   4.587   2.845  15.458  1.1857 -1.0615  0.4145
  157DOPC  C21718913   4.649   2.650  15.544  0.4174 -0.0731  0.0125
  157DOPC  H17R18914   4.623   2.544  15.520 -0.3527  0.1852 -0.3213
  157DOPC  H17S18915   4.598   2.676  15.639 -2.5112 -3.8453 -0.3113
  157DOPC  C21818916   4.796   2.669  15.542 -0.0487  0.2106  0.0920
  157DOPC  H18R18917   4.819   2.777  15.561  1.1658 -0.0855  0.4088
  157DOPC  H18S18918   4.827   2.640  15.439 -1.0605 -1.8733  0.3370
  157DOPC  H18T18919   4.840   2.606  15.621 -1.0043 -0.2391  0.2742
  157DOPC   C3318920   4.029   3.180  16.013  0.3705  0.6513 -0.1065
  157DOPC   H3X18921   4.039   3.076  15.976 -1.1890  0.4176  0.0642
  157DOPC   H3Y18922   4.134   3.213  16.032  0.9533 -0.1557 -1.7739
  157DOPC   C3418923   3.969   3.267  15.898  0.3792 -0.4210  0.9684
  157DOPC   H4X18924   4.029   3.262  15.804 -1.3058 -1.3318 -0.0992
  157DOPC   H4Y18925   3.984   3.371  15.936  0.3739  0.1488 -0.5066
  157DOPC   C3518926   3.815   3.255  15.886 -0.2059  0.7863  0.0820
  157DOPC   H5X18927   3.751   3.270  15.975 -2.1331 -1.8358 -0.7573
  157DOPC   H5Y18928   3.795   3.150  15.857 -1.4434  1.0005  0.1069
  157DOPC   C3618929   3.761   3.350  15.778 -0.4925 -0.9161  0.1953
  157DOPC   H6X18930   3.652   3.326  15.774 -0.9820  1.0954  0.4046
  157DOPC   H6Y18931   3.786   3.453  15.811 -2.8102  0.1400 -1.0689
  157DOPC   C3718932   3.827   3.336  15.639  0.3998 -0.0015 -0.1933
  157DOPC   H7X18933   3.933   3.365  15.655 -0.1370  1.8592  0.2316
  157DOPC   H7Y18934   3.826   3.228  15.613 -0.1216 -0.4897  1.6965
  157DOPC   C3818935   3.768   3.427  15.533  0.1015  0.5056 -0.7487
  157DOPC   H8X18936   3.767   3.532  15.568  2.6126 -0.1102  1.4482
  157DOPC   H8Y18937   3.662   3.392  15.539  0.8625 -1.8485  0.3716
  157DOPC   C3918938   3.817   3.414  15.390 -0.8020 -0.1505  0.0454
  157DOPC   H9X18939   3.739   3.374  15.324 -1.8684 -0.0508  1.1977
  157DOPC  C31018940   3.947   3.439  15.342 -0.4594 -0.8952 -0.0873
  157DOPC  H10X18941   3.975   3.412  15.239  2.8344  0.4896  0.3345
  157DOPC  C31118942   4.042   3.518  15.431  0.2954 -0.0052 -0.1821
  157DOPC  H11X18943   4.144   3.500  15.392 -0.1914 -0.5982 -1.2531
  157DOPC  H11Y18944   4.051   3.478  15.534  0.2339  0.3030 -0.0578
  157DOPC  C31218945   4.034   3.669  15.442  0.0642  0.1608  0.1547
  157DOPC  H12X18946   4.115   3.693  15.514 -0.7277  0.7788  0.8418
  157DOPC  H12Y18947   3.940   3.693  15.496 -0.3909 -0.5196 -0.3227
  157DOPC  C31318948   4.050   3.746  15.308 -0.1282  0.6311  0.2093
  157DOPC  H13X18949   4.140   3.719  15.249 -1.5873 -0.2994 -1.6515
  157DOPC  H13Y18950   3.963   3.702  15.257  0.8150 -0.9745 -0.0691
  157DOPC  C31418951   4.032   3.898  15.323  0.2777  0.6425  0.1320
  157DOPC  H14X18952   3.952   3.932  15.391  0.5527 -0.1615  0.8650
  157DOPC  H14Y18953   4.130   3.932  15.363  0.7969  0.9146 -1.2947
  157DOPC  C31518954   3.996   3.965  15.185 -0.4452  0.1240  0.3389
  157DOPC  H15X18955   3.886   3.968  15.167 -0.6855 -0.2417  1.6521
  157DOPC  H15Y18956   4.044   3.918  15.097 -0.1821  2.9916 -1.1617
  157DOPC  C31618957   4.039   4.113  15.180 -0.3702 -0.0846  0.0882
  157DOPC  H16X18958   4.150   4.119  15.189 -0.5097  0.8850  1.2529
  157DOPC  H16Y18959   3.999   4.139  15.080 -0.4546 -2.1335 -0.4708
  157DOPC  C31718960   3.965   4.191  15.294 -0.2257 -0.6783 -0.4135
  157DOPC  H17X18961   3.859   4.158  15.297 -0.8376  0.8478 -2.6379
  157DOPC  H17Y18962   4.015   4.158  15.388  1.5878  0.8248 -0.7811
  157DOPC  C31818963   3.968   4.344  15.285 -0.0912 -0.6070 -0.1513
  157DOPC  H18X18964   3.891   4.374  15.210 -0.6484  0.8671  0.9508
  157DOPC  H18Y18965   3.914   4.375  15.376 -2.3584 -2.7722 -0.6488
  157DOPC  H18Z18966   4.072   4.383  15.280 -0.9527  2.0370  0.6147
  158DOPC     N18967   2.985   7.657  17.078 -0.1481  0.6680  0.0145
  158DOPC   C1218968   2.847   7.720  17.055 -0.3571  0.3678 -0.4713
  158DOPC  H12A18969   2.768   7.659  17.097  0.2700 -1.0555 -1.2866
  158DOPC  H12B18970   2.840   7.726  16.947  2.1000 -0.6226 -0.7680
  158DOPC   C1318971   3.011   7.631  17.224 -0.6759  0.2366 -0.7662
  158DOPC  H13A18972   3.032   7.722  17.277  1.0345 -0.7678  0.3572
  158DOPC  H13B18973   2.918   7.590  17.260  0.1371  0.6041  1.8983
  158DOPC  H13C18974   3.095   7.566  17.244 -1.6988 -1.0558 -0.5489
  158DOPC   C1418975   3.096   7.732  17.020  0.4765 -0.6222  0.0785
  158DOPC  H14A18976   3.191   7.687  17.046  0.6030 -0.3209  0.1401
  158DOPC  H14B18977   3.097   7.744  16.913  0.6440  0.0479  0.1473
  158DOPC  H14C18978   3.096   7.834  17.055 -2.6042 -0.9316  1.2663
  158DOPC   C1518979   2.987   7.523  17.008  0.7095  0.0633 -0.2679
  158DOPC  H15A18980   3.086   7.479  16.999  1.4952  1.6027  0.4985
  158DOPC  H15B18981   2.952   7.532  16.906 -2.0762 -1.6791  0.4460
  158DOPC  H15C18982   2.924   7.447  17.051 -0.8476  1.5486  0.1534
  158DOPC   C1118983   2.831   7.860  17.123 -0.1308 -0.3537  0.1904
  158DOPC  H11A18984   2.727   7.898  17.114  0.3485  1.5818  2.1908
  158DOPC  H11B18985   2.849   7.840  17.231  0.9158 -0.6689 -0.0403
  158DOPC     P18986   2.922   8.064  16.970 -0.1185 -0.3638  0.2191
  158DOPC   O1318987   3.048   8.082  16.893 -0.1663 -0.1056 -0.0736
  158DOPC   O1418988   2.871   8.185  17.038 -0.7954  0.6457 -0.1615
  158DOPC   O1218989   2.928   7.947  17.075  0.0828 -0.3130  0.4219
  158DOPC   O1118990   2.807   8.017  16.869 -0.1339 -0.0757  0.5062
  158DOPC    C118991   2.835   7.916  16.767  0.0185  0.1129 -0.2462
  158DOPC    HA18992   2.750   7.845  16.754 -1.4024  1.5139  0.9517
  158DOPC    HB18993   2.930   7.863  16.790  0.9807  2.1807  0.8014
  158DOPC    C218994   2.839   7.987  16.626 -0.6862  0.2270 -0.2758
  158DOPC    HS18995   2.910   8.072  16.621 -1.1898  0.7207  0.5744
  158DOPC   O2118996   2.708   8.015  16.576 -0.3402 -0.2002  0.4304
  158DOPC   C2118997   2.675   8.143  16.591 -0.3474  0.2536 -0.1743
  158DOPC   O2218998   2.744   8.234  16.635  0.2757  0.6702 -0.4898
  158DOPC   C2218999   2.536   8.160  16.529 -0.4043 -0.0055 -0.4073
  158DOPC   H2R19000   2.469   8.077  16.562  0.0400  0.4604  1.8288
  158DOPC   H2S19001   2.551   8.160  16.419 -0.9484  2.2692 -0.5442
  158DOPC    C319002   2.896   7.878  16.523 -1.1455  0.0797  0.5484
  158DOPC    HX19003   2.846   7.781  16.545  0.7276 -1.1151 -0.2387
  158DOPC    HY19004   3.002   7.865  16.554 -1.4818  0.7968  2.1352
  158DOPC   O3119005   2.892   7.922  16.385  0.0055  0.1328 -0.4938
  158DOPC   C3119006   2.829   7.850  16.295  0.2293  0.3964 -0.8559
  158DOPC   O3219007   2.756   7.751  16.320 -1.1732 -0.0072  0.5353
  158DOPC   C3219008   2.848   7.914  16.157 -0.3563 -0.3190  0.5944
  158DOPC   H2X19009   2.813   8.019  16.161 -0.1532 -0.0211 -2.6966
  158DOPC   H2Y19010   2.956   7.913  16.131 -0.4696  1.0342 -0.0283
  158DOPC   C2319011   2.465   8.291  16.568  1.2029 -0.4625  0.6109
  158DOPC   H3R19012   2.526   8.382  16.551 -1.4314  1.8349  2.5845
  158DOPC   H3S19013   2.429   8.292  16.673  0.6249  2.3817  0.4573
  158DOPC   C2419014   2.338   8.310  16.479  0.0270 -0.3491 -0.2041
  158DOPC   H4R19015   2.264   8.246  16.532  4.1261 -1.8860  4.4366
  158DOPC   H4S19016   2.356   8.287  16.372  0.0196  0.9555 -0.4988
  158DOPC   C2519017   2.304   8.457  16.476 -0.1264  0.3274 -0.1527
  158DOPC   H5R19018   2.210   8.455  16.417  0.7349 -1.9389 -1.5781
  158DOPC   H5S19019   2.386   8.517  16.431  0.6994 -0.5622  0.1070
  158DOPC   C2619020   2.278   8.528  16.614 -0.0601 -0.8381  0.5694
  158DOPC   H6R19021   2.376   8.550  16.662  1.1714 -0.4831 -1.9471
  158DOPC   H6S19022   2.222   8.462  16.682 -1.6062 -1.0670 -0.8650
  158DOPC   C2719023   2.194   8.661  16.598 -0.0715  0.3046  0.2005
  158DOPC   H7R19024   2.105   8.644  16.535 -0.8083  0.7061  1.1055
  158DOPC   H7S19025   2.246   8.742  16.542 -1.2042 -0.2231 -1.6991
  158DOPC   C2819026   2.164   8.721  16.737 -0.1576  0.1386 -0.5622
  158DOPC   H8R19027   2.132   8.825  16.717 -1.2358 -0.2559 -1.0207
  158DOPC   H8S19028   2.261   8.717  16.790  0.0375  2.5970 -0.6307
  158DOPC   C2919029   2.060   8.648  16.819 -0.5152 -0.1790  0.0838
  158DOPC   H9R19030   2.112   8.616  16.910 -0.7927 -0.0627  0.2833
  158DOPC  C21019031   1.930   8.620  16.790 -0.7573 -0.9752 -0.4534
  158DOPC  H10R19032   1.877   8.556  16.862  0.2943 -2.5262 -1.0023
  158DOPC  C21119033   1.850   8.650  16.669 -0.1887  0.3525  0.2062
  158DOPC  H11R19034   1.900   8.727  16.607 -1.0029  0.8680  0.1823
  158DOPC  H11S19035   1.756   8.697  16.704  0.4351  0.4055  1.8896
  158DOPC  C21219036   1.817   8.532  16.575 -0.9162  0.1169 -0.3092
  158DOPC  H12R19037   1.770   8.455  16.641  1.5877 -0.2377  1.1717
  158DOPC  H12S19038   1.911   8.486  16.538 -1.4423 -2.9011  1.7271
  158DOPC  C21319039   1.721   8.581  16.466 -0.2483 -0.2319 -0.0221
  158DOPC  H13R19040   1.761   8.670  16.413 -0.8796  0.1700  0.1679
  158DOPC  H13S19041   1.624   8.621  16.501  0.1276 -0.8326  1.8181
  158DOPC  C21419042   1.691   8.460  16.381  0.1794  0.3161 -0.1808
  158DOPC  H14R19043   1.647   8.382  16.447  0.9530 -1.7302 -1.9583
  158DOPC  H14S19044   1.790   8.417  16.353 -0.3188 -1.2166  0.3112
  158DOPC  C21519045   1.605   8.482  16.250 -0.7360 -0.4198 -0.0711
  158DOPC  H15R19046   1.656   8.555  16.184 -1.0320 -0.9763 -0.9294
  158DOPC  H15S19047   1.509   8.531  16.278 -1.9118 -0.5017 -3.5301
  158DOPC  C21619048   1.572   8.359  16.163  0.9240 -0.2270  0.2208
  158DOPC  H16R19049   1.497   8.298  16.218 -0.7536  0.9576 -0.6683
  158DOPC  H16S19050   1.664   8.301  16.136  1.2508  0.5181 -0.3008
  158DOPC  C21719051   1.523   8.403  16.026 -0.0698  0.5369  0.2546
  158DOPC  H17R19052   1.621   8.415  15.975  0.3503 -1.4381  0.5093
  158DOPC  H17S19053   1.464   8.497  16.025 -1.4545 -0.2994  0.4429
  158DOPC  C21819054   1.445   8.304  15.939  0.3417  0.4665  0.3856
  158DOPC  H18R19055   1.364   8.256  15.998  0.1313 -0.8608 -0.9050
  158DOPC  H18S19056   1.513   8.223  15.905 -0.5432 -0.5244  0.9270
  158DOPC  H18T19057   1.400   8.345  15.845 -2.0918  1.6521  1.9632
  158DOPC   C3319058   2.767   7.844  16.043 -0.6953  0.0297 -0.0995
  158DOPC   H3X19059   2.658   7.860  16.047 -0.7915 -0.2110 -1.2007
  158DOPC   H3Y19060   2.778   7.734  16.060  1.4712  0.1380 -0.4503
  158DOPC   C3419061   2.825   7.866  15.907 -0.7403  0.3102  0.9563
  158DOPC   H4X19062   2.936   7.853  15.904 -0.8268 -1.3405  2.6097
  158DOPC   H4Y19063   2.796   7.960  15.856  1.1896 -0.1184 -1.1311
  158DOPC   C3519064   2.776   7.763  15.799  0.5707 -0.0066  0.2751
  158DOPC   H5X19065   2.666   7.771  15.789  0.5900 -0.3357 -0.2113
  158DOPC   H5Y19066   2.793   7.656  15.821 -1.5006 -0.5488 -0.5855
  158DOPC   C3619067   2.832   7.793  15.660 -0.3301  0.2479  0.2281
  158DOPC   H6X19068   2.809   7.892  15.615 -2.0771 -0.9939 -1.7658
  158DOPC   H6Y19069   2.942   7.784  15.676 -0.5920 -0.2205  2.1032
  158DOPC   C3719070   2.810   7.684  15.555  0.5567 -0.3010  0.3049
  158DOPC   H7X19071   2.853   7.592  15.601  1.1456  0.3385  1.0547
  158DOPC   H7Y19072   2.702   7.664  15.540  0.5062 -0.7827  1.1992
  158DOPC   C3819073   2.894   7.708  15.424  0.3995  0.1973  0.3966
  158DOPC   H8X19074   2.995   7.742  15.458  0.5009 -1.2874  1.6742
  158DOPC   H8Y19075   2.837   7.791  15.378 -0.4401 -0.4565  0.2344
  158DOPC   C3919076   2.913   7.575  15.349  0.6799 -0.3892 -0.0405
  158DOPC   H9X19077   2.925   7.494  15.423  0.7166  0.1237  0.5218
  158DOPC  C31019078   2.891   7.552  15.218 -0.0234 -0.0901 -0.7821
  158DOPC  H10X19079   2.898   7.447  15.186 -0.5907  0.1220 -1.6375
  158DOPC  C31119080   2.864   7.660  15.108 -0.6690  0.2112 -0.2164
  158DOPC  H11X19081   2.961   7.708  15.082 -0.9619  0.4467 -0.8757
  158DOPC  H11Y19082   2.811   7.747  15.151  0.7745  1.0847 -0.1396
  158DOPC  C31219083   2.782   7.602  14.994 -0.3543  0.7560 -0.5920
  158DOPC  H12X19084   2.701   7.541  15.038  0.6825  0.0218  0.3361
  158DOPC  H12Y19085   2.848   7.531  14.939  2.0403  1.5894  1.0117
  158DOPC  C31319086   2.719   7.701  14.891  0.6794 -0.1678  0.2782
  158DOPC  H13X19087   2.667   7.778  14.952  1.7768 -0.0434  1.0805
  158DOPC  H13Y19088   2.801   7.756  14.841 -1.7736  1.8867 -1.7921
  158DOPC  C31419089   2.622   7.644  14.787 -0.0099  0.3321 -0.3160
  158DOPC  H14X19090   2.683   7.569  14.733 -1.3691 -0.2662 -1.0656
  158DOPC  H14Y19091   2.542   7.598  14.849  1.2735 -1.0248  0.4067
  158DOPC  C31519092   2.560   7.745  14.693 -0.5200 -0.1741  0.1457
  158DOPC  H15X19093   2.645   7.795  14.641 -0.6086 -1.4961 -1.3536
  158DOPC  H15Y19094   2.505   7.813  14.761  0.8273 -0.6475  1.7757
  158DOPC  C31619095   2.460   7.696  14.592  0.1236 -0.1838  0.4710
  158DOPC  H16X19096   2.444   7.783  14.526  1.4286  0.1878  0.6184
  158DOPC  H16Y19097   2.517   7.613  14.544  1.9033  1.4116 -0.3304
  158DOPC  C31719098   2.323   7.638  14.651 -0.6968 -0.0457  0.2616
  158DOPC  H17X19099   2.276   7.588  14.565 -1.2731  0.6533  0.1609
  158DOPC  H17Y19100   2.348   7.567  14.733 -0.4704  0.5387  0.7078
  158DOPC  C31819101   2.228   7.746  14.700 -0.4456  0.1054  0.3936
  158DOPC  H18X19102   2.141   7.707  14.756 -1.6237 -0.0191 -1.4630
  158DOPC  H18Y19103   2.273   7.826  14.762  1.1939 -0.9564  0.6455
  158DOPC  H18Z19104   2.180   7.799  14.616  0.6250 -0.9680 -0.9409
  159DOPC     N19105   4.592   3.028  16.736 -0.4469 -0.3718  0.0426
  159DOPC   C1219106   4.720   3.047  16.666  0.0853  1.0625  0.5850
  159DOPC  H12A19107   4.719   3.004  16.567  0.4315  1.7152  0.2919
  159DOPC  H12B19108   4.796   2.987  16.714 -0.7368 -0.6623 -0.1698
  159DOPC   C1319109   4.601   3.067  16.880  0.2696  0.0787 -0.0686
  159DOPC  H13A19110   4.637   3.168  16.886  3.9216 -0.9719 -1.4389
  159DOPC  H13B19111   4.508   3.048  16.931  0.9256  0.1859  1.2115
  159DOPC  H13C19112   4.674   3.009  16.934 -0.5235 -0.7397  0.1511
  159DOPC   C1419113   4.554   2.870  16.733 -0.3094 -0.1829 -0.7287
  159DOPC  H14A19114   4.505   2.843  16.825  2.2689 -0.5096  0.6691
  159DOPC  H14B19115   4.488   2.841  16.653 -0.0736 -1.5900 -0.4471
  159DOPC  H14C19116   4.644   2.811  16.726 -0.2132 -0.2000  0.3794
  159DOPC   C1519117   4.472   3.113  16.685  0.0314  0.4269  0.0375
  159DOPC  H15A19118   4.488   3.218  16.701 -0.5891  0.3434  1.3020
  159DOPC  H15B19119   4.389   3.085  16.748  0.2936  0.2769  0.3193
  159DOPC  H15C19120   4.455   3.093  16.580  2.1339 -0.1106 -0.2312
  159DOPC   C1119121   4.786   3.190  16.645 -0.5429 -0.3004 -0.4487
  159DOPC  H11A19122   4.853   3.183  16.557 -0.5017  0.1795 -0.4587
  159DOPC  H11B19123   4.712   3.266  16.614  0.6188  1.6856  1.3075
  159DOPC     P19124   4.986   3.151  16.794  0.0568  0.1160  0.2355
  159DOPC   O1319125   4.962   3.009  16.821  0.5259 -0.0910 -0.4934
  159DOPC   O1419126   5.062   3.214  16.901  0.3083 -0.1980 -0.1887
  159DOPC   O1219127   4.845   3.227  16.772  0.1333  0.1884 -0.8754
  159DOPC   O1119128   5.057   3.170  16.659 -0.2040  0.0948  0.2654
  159DOPC    C119129   5.094   3.306  16.623 -0.0376  0.6347  0.3632
  159DOPC    HA19130   5.167   3.350  16.695  0.4955  1.4996 -0.6874
  159DOPC    HB19131   5.004   3.372  16.629 -2.3794 -2.3981  1.5759
  159DOPC    C219132   5.168   3.323  16.487 -0.9581  1.2625  0.1406
  159DOPC    HS19133   5.172   3.433  16.473  2.1564  1.3603  1.1546
  159DOPC   O2119134   5.101   3.247  16.381 -0.2482 -0.9759 -0.3902
  159DOPC   C2119135   5.015   3.309  16.313  0.3359  0.1476 -0.1922
  159DOPC   O2219136   4.966   3.417  16.346  0.0813 -0.3963  0.4342
  159DOPC   C2219137   4.982   3.226  16.191  0.8936 -0.1416 -0.7114
  159DOPC   H2R19138   4.943   3.308  16.126  1.2904  1.5471  1.0603
  159DOPC   H2S19139   4.906   3.155  16.230  1.6763 -0.3381  0.4969
  159DOPC    C319140   5.313   3.266  16.501 -0.1895 -0.7334 -0.1429
  159DOPC    HX19141   5.310   3.157  16.517 -0.0753 -0.9771 -1.6016
  159DOPC    HY19142   5.351   3.306  16.597 -2.3508  0.5860  0.2421
  159DOPC   O3119143   5.404   3.309  16.396  0.3220  0.1054 -0.5296
  159DOPC   C3119144   5.467   3.205  16.329  0.6893 -0.3451  0.2403
  159DOPC   O3219145   5.439   3.088  16.333  0.0364 -0.4517 -0.5347
  159DOPC   C3219146   5.562   3.266  16.225  0.2137  0.8261 -0.1384
  159DOPC   H2X19147   5.499   3.337  16.167 -1.0131  0.1293  0.3286
  159DOPC   H2Y19148   5.638   3.322  16.284  1.4300 -0.3707 -0.5018
  159DOPC   C2319149   5.105   3.171  16.123 -0.4036 -0.6708  0.2239
  159DOPC   H3R19150   5.061   3.110  16.041 -1.3505  2.1496 -1.4901
  159DOPC   H3S19151   5.163   3.106  16.193 -0.6373  0.9340  1.9817
  159DOPC   C2419152   5.208   3.271  16.065 -0.3648  0.1762  0.6247
  159DOPC   H4R19153   5.306   3.220  16.048 -0.1783  1.2115 -1.7332
  159DOPC   H4S19154   5.227   3.348  16.143 -1.8389  0.5855  0.6149
  159DOPC   C2519155   5.160   3.336  15.937  0.3469  0.3842  0.3010
  159DOPC   H5R19156   5.092   3.422  15.950  0.4914  0.8121 -1.6129
  159DOPC   H5S19157   5.102   3.260  15.881 -0.0473  1.2158 -0.4245
  159DOPC   C2619158   5.275   3.378  15.841  0.4338  0.8653 -0.3843
  159DOPC   H6R19159   5.234   3.406  15.742  0.6128 -1.5914 -1.2324
  159DOPC   H6S19160   5.341   3.289  15.837  0.5527  0.9690 -0.7656
  159DOPC   C2719161   5.355   3.502  15.890 -0.1459 -1.4596 -0.1598
  159DOPC   H7R19162   5.413   3.473  15.981  0.0602  0.2217  0.2867
  159DOPC   H7S19163   5.290   3.583  15.931  2.3372  0.1050  0.8945
  159DOPC   C2819164   5.452   3.566  15.781 -0.2834 -0.3779  0.4139
  159DOPC   H8R19165   5.527   3.503  15.729 -1.6253 -0.3976 -1.6250
  159DOPC   H8S19166   5.503   3.650  15.833  0.3841 -0.1015 -0.6533
  159DOPC   C2919167   5.378   3.635  15.668  0.2826 -0.1198 -0.0101
  159DOPC   H9R19168   5.312   3.713  15.708  1.1809 -0.1128  1.5283
  159DOPC  C21019169   5.379   3.611  15.539  0.8512  0.6977  0.2217
  159DOPC  H10R19170   5.318   3.676  15.474  1.2241 -1.5324 -2.5463
  159DOPC  C21119171   5.460   3.506  15.466  0.5500 -0.5499 -0.2373
  159DOPC  H11R19172   5.398   3.437  15.405  0.3735  1.1676 -2.0990
  159DOPC  H11S19173   5.523   3.442  15.532  1.2528  1.6844  1.3840
  159DOPC  C21219174   5.555   3.579  15.368 -0.5230  0.3843 -0.3024
  159DOPC  H12R19175   5.491   3.638  15.299 -2.0430 -1.3767 -0.4753
  159DOPC  H12S19176   5.603   3.503  15.302  1.4451  0.8319  0.5320
  159DOPC  C21319177   5.679   3.657  15.438  0.4773  0.3612 -0.1551
  159DOPC  H13R19178   5.741   3.582  15.492 -1.3685  0.7633  2.6888
  159DOPC  H13S19179   5.627   3.725  15.508  1.4240  0.9171  0.0198
  159DOPC  C21419180   5.748   3.749  15.346 -0.9909 -0.2701  0.4495
  159DOPC  H14R19181   5.678   3.794  15.272 -2.2465  2.1124  2.9106
  159DOPC  H14S19182   5.815   3.685  15.284 -0.2610  0.2571  0.6784
  159DOPC  C21519183   5.819   3.854  15.430  0.7696 -0.7664 -0.5828
  159DOPC  H15R19184   5.876   3.800  15.509  1.3155  3.0707  1.9005
  159DOPC  H15S19185   5.742   3.905  15.491  0.1143  0.8704 -2.6687
  159DOPC  C21619186   5.905   3.943  15.338 -0.2881 -0.8358 -0.8255
  159DOPC  H16R19187   5.852   4.003  15.261  1.0762 -2.0307 -2.7628
  159DOPC  H16S19188   5.970   3.880  15.274 -0.5054 -2.3367  0.3601
  159DOPC  C21719189   6.002   4.044  15.403 -1.0100 -0.0208 -1.3149
  159DOPC  H17R19190   6.063   4.101  15.330 -1.1019  2.4366  0.3601
  159DOPC  H17S19191   6.071   3.981  15.464 -2.0075  1.8446  2.0198
  159DOPC  C21819192   5.931   4.133  15.500 -0.6080 -0.0278 -0.7425
  159DOPC  H18R19193   5.849   4.193  15.456 -1.9324 -0.5847  0.8343
  159DOPC  H18S19194   6.005   4.202  15.544  1.1160 -2.6594  0.7594
  159DOPC  H18T19195   5.873   4.075  15.576 -0.3824  0.1378 -0.4432
  159DOPC   C3319196   5.623   3.164  16.128 -0.9661  1.0613 -0.2654
  159DOPC   H3X19197   5.664   3.217  16.040 -1.4030  1.0463 -0.4821
  159DOPC   H3Y19198   5.546   3.098  16.081 -0.4753 -0.2031  0.6462
  159DOPC   C3419199   5.742   3.086  16.202 -0.0671  0.2209  0.7678
  159DOPC   H4X19200   5.698   3.021  16.281 -2.4535 -0.7057 -1.1925
  159DOPC   H4Y19201   5.806   3.164  16.249 -0.1861  1.2696 -0.7401
  159DOPC   C3519202   5.836   3.013  16.103  0.6443  0.1749  0.4201
  159DOPC   H5X19203   5.915   2.958  16.159  1.3187  0.6483 -0.0530
  159DOPC   H5Y19204   5.882   3.081  16.028  0.7928 -1.0354 -0.6407
  159DOPC   C3619205   5.742   2.907  16.027 -0.2217 -0.0271 -0.8460
  159DOPC   H6X19206   5.673   2.857  16.097  1.3364 -0.3985  0.4949
  159DOPC   H6Y19207   5.670   2.959  15.960 -0.7818  1.1525  0.6014
  159DOPC   C3719208   5.830   2.801  15.954  0.3559 -0.1816  0.2367
  159DOPC   H7X19209   5.892   2.838  15.870 -1.2177 -0.1921 -0.9656
  159DOPC   H7Y19210   5.907   2.765  16.026  1.3241 -0.8618 -1.0943
  159DOPC   C3819211   5.743   2.683  15.901  0.4185 -0.1378  0.3193
  159DOPC   H8X19212   5.691   2.645  15.991 -2.0215 -1.4834 -1.5190
  159DOPC   H8Y19213   5.810   2.598  15.876  0.8446  0.3476 -0.2274
  159DOPC   C3919214   5.642   2.718  15.791  0.3068 -0.2077  0.0937
  159DOPC   H9X19215   5.682   2.731  15.689 -1.5202 -1.2009 -0.7971
  159DOPC  C31019216   5.513   2.733  15.799 -0.0463 -0.3150  0.3064
  159DOPC  H10X19217   5.464   2.775  15.710  1.5760 -0.5459 -0.7394
  159DOPC  C31119218   5.434   2.709  15.925 -0.0101  0.0430  0.5776
  159DOPC  H11X19219   5.490   2.664  16.009  1.6495  0.7101 -0.1437
  159DOPC  H11Y19220   5.352   2.637  15.903  0.7935 -0.9727  0.8587
  159DOPC  C31219221   5.379   2.836  15.987 -0.2427  0.3888 -0.3410
  159DOPC  H12X19222   5.470   2.893  16.016  1.6868 -2.9568  0.8526
  159DOPC  H12Y19223   5.322   2.810  16.079 -0.5780  0.6221 -0.4801
  159DOPC  C31319224   5.286   2.910  15.901  0.2641  0.2375  0.6008
  159DOPC  H13X19225   5.250   3.004  15.948  0.1929  0.6218 -0.2021
  159DOPC  H13Y19226   5.342   2.950  15.814 -1.5555  2.9019  0.5386
  159DOPC  C31419227   5.167   2.823  15.850  0.1769  0.1275 -0.2561
  159DOPC  H14X19228   5.110   2.877  15.771  0.5163  0.7080 -0.1050
  159DOPC  H14Y19229   5.211   2.733  15.801  1.4237  0.8241 -0.4610
  159DOPC  C31519230   5.056   2.794  15.958  0.8514  1.0663  0.6175
  159DOPC  H15X19231   5.043   2.885  16.021  0.6374  1.6255 -0.2118
  159DOPC  H15Y19232   5.087   2.707  16.019  3.3862  0.4664 -1.3497
  159DOPC  C31619233   4.920   2.768  15.889  0.5815  0.2220 -0.1438
  159DOPC  H16X19234   4.895   2.861  15.834 -2.7310  1.1406  2.5464
  159DOPC  H16Y19235   4.940   2.687  15.815 -2.1558  0.1196 -0.8921
  159DOPC  C31719236   4.803   2.729  15.984  0.3568 -0.1432  0.9256
  159DOPC  H17X19237   4.826   2.635  16.038 -0.3587 -0.1679  1.1951
  159DOPC  H17Y19238   4.781   2.809  16.059 -0.0470  1.0099 -0.3768
  159DOPC  C31819239   4.675   2.699  15.901 -0.1101  0.1323  0.5498
  159DOPC  H18X19240   4.600   2.652  15.968 -1.5787 -0.0906 -1.1615
  159DOPC  H18Y19241   4.644   2.798  15.859  2.2829 -0.2569 -2.5230
  159DOPC  H18Z19242   4.690   2.641  15.808 -0.3405  1.9992 -0.7244
  160DOPC     N19243   7.813   0.417  17.405 -0.1130 -0.0317 -0.7035
  160DOPC   C1219244   7.941   0.465  17.486 -0.2611 -0.1191  1.5410
  160DOPC  H12A19245   8.027   0.453  17.422 -0.2333 -1.2134  1.7707
  160DOPC  H12B19246   7.951   0.402  17.573  1.0747 -1.8850  0.2005
  160DOPC   C1319247   7.796   0.498  17.278 -0.0465 -0.0666 -0.1512
  160DOPC  H13A19248   7.701   0.487  17.227  0.1255 -0.1044 -0.4614
  160DOPC  H13B19249   7.813   0.600  17.309  0.8095 -0.6210  1.3076
  160DOPC  H13C19250   7.873   0.461  17.212 -0.1992 -1.6108  0.5093
  160DOPC   C1419251   7.694   0.428  17.501  0.2101 -0.1681  0.1776
  160DOPC  H14A19252   7.705   0.351  17.576 -1.3494 -2.1307 -1.4947
  160DOPC  H14B19253   7.701   0.523  17.551  1.4527 -0.1911  0.0930
  160DOPC  H14C19254   7.598   0.411  17.455 -1.1873  0.2616  2.7718
  160DOPC   C1519255   7.832   0.271  17.370  0.4883 -0.2524  0.2630
  160DOPC  H15A19256   7.912   0.261  17.298  0.0536 -1.7666 -0.0384
  160DOPC  H15B19257   7.740   0.228  17.331  0.6294 -0.3849  0.0732
  160DOPC  H15C19258   7.855   0.221  17.463 -0.7279  1.2094  1.3991
  160DOPC   C1119259   7.937   0.612  17.527 -0.0876  0.1938 -0.2369
  160DOPC  H11A19260   7.843   0.628  17.584 -0.7899  2.0978 -1.7958
  160DOPC  H11B19261   8.017   0.623  17.603 -0.0101  0.4164 -0.3497
  160DOPC     P19262   8.081   0.743  17.350 -0.3788 -0.3432 -0.6782
  160DOPC   O1319263   8.145   0.616  17.318 -0.3065  0.0769 -0.1499
  160DOPC   O1419264   8.143   0.840  17.441 -0.1084  0.2389 -0.1647
  160DOPC   O1219265   7.947   0.705  17.418  0.5193  0.2071  0.5339
  160DOPC   O1119266   8.027   0.815  17.221  0.1469  0.1599 -0.2890
  160DOPC    C119267   8.122   0.862  17.120  0.0497  0.6497  0.1388
  160DOPC    HA19268   8.227   0.851  17.154 -0.4749 -1.7083  1.1897
  160DOPC    HB19269   8.112   0.972  17.113 -0.2740  0.5514 -1.1941
  160DOPC    C219270   8.109   0.791  16.982  0.5101 -0.3083 -0.1016
  160DOPC    HS19271   8.203   0.812  16.927 -0.5474  0.2569 -1.7832
  160DOPC   O2119272   7.996   0.862  16.923  0.0114  1.3953 -0.7220
  160DOPC   C2119273   8.025   0.948  16.827 -0.2127  0.1470 -0.6142
  160DOPC   O2219274   8.132   0.963  16.779  0.1707 -0.0771 -0.2486
  160DOPC   C2219275   7.893   1.011  16.779  0.7141 -0.7063  0.4714
  160DOPC   H2R19276   7.893   1.121  16.796 -0.4884 -0.5866 -0.1766
  160DOPC   H2S19277   7.819   0.975  16.854 -0.7271 -2.4110 -1.6493
  160DOPC    C319278   8.091   0.637  16.996  0.2624  0.3160 -0.1537
  160DOPC    HX19279   8.010   0.608  17.067  0.7296  1.2617  0.7913
  160DOPC    HY19280   8.187   0.596  17.032 -0.1747 -1.3894 -0.8457
  160DOPC   O3119281   8.058   0.569  16.872  0.4953  0.0133 -0.1071
  160DOPC   C3119282   8.156   0.550  16.785  0.9411  0.7377 -0.5419
  160DOPC   O3219283   8.273   0.572  16.803  0.1128 -0.2321  0.2858
  160DOPC   C3219284   8.083   0.500  16.656  0.3476 -0.2059  0.5458
  160DOPC   H2X19285   8.159   0.455  16.589 -0.7270 -0.9276 -0.2156
  160DOPC   H2Y19286   8.009   0.427  16.695  0.1837 -0.4046 -0.1223
  160DOPC   C2319287   7.854   0.984  16.639 -0.2421 -0.0576  0.1068
  160DOPC   H3R19288   7.754   1.025  16.612  0.0931  0.2413 -0.6821
  160DOPC   H3S19289   7.837   0.875  16.626  0.1958 -0.4216  2.1705
  160DOPC   C2419290   7.953   1.023  16.522  0.0177 -0.2845 -0.2922
  160DOPC   H4R19291   8.053   0.983  16.549  0.0156 -1.6487 -2.1127
  160DOPC   H4S19292   7.959   1.134  16.519 -0.6044 -0.1085  2.4583
  160DOPC   C2519293   7.907   0.974  16.389 -0.5567  0.1952 -0.3509
  160DOPC   H5R19294   7.805   1.013  16.373 -0.4208 -0.0770 -2.0339
  160DOPC   H5S19295   7.906   0.863  16.394  1.0211  0.0817 -1.5797
  160DOPC   C2619296   7.988   1.012  16.266  0.3653  0.1049  0.6396
  160DOPC   H6R19297   8.072   0.940  16.252 -1.0282 -1.3009 -0.7944
  160DOPC   H6S19298   8.018   1.119  16.263 -1.3257  0.5887 -1.3528
  160DOPC   C2719299   7.897   0.997  16.146 -0.2257  0.2026  0.6371
  160DOPC   H7R19300   7.806   1.054  16.172 -1.5057 -0.8617 -1.1996
  160DOPC   H7S19301   7.863   0.891  16.140  1.4015 -0.3016 -0.7304
  160DOPC   C2819302   7.953   1.041  16.009 -0.4499 -0.1582 -0.0860
  160DOPC   H8R19303   8.033   0.964  15.993 -1.6400 -1.8512  1.6382
  160DOPC   H8S19304   7.998   1.142  16.022 -1.4963  0.2897  0.1412
  160DOPC   C2919305   7.856   1.031  15.895 -0.7656 -0.3541  0.7073
  160DOPC   H9R19306   7.792   0.942  15.889  0.0033 -0.9595  1.2074
  160DOPC  C21019307   7.842   1.120  15.794 -0.7175  0.2703 -0.5411
  160DOPC  H10R19308   7.766   1.115  15.715  1.3675  0.6078 -2.6802
  160DOPC  C21119309   7.921   1.251  15.780  0.1463 -0.4060 -0.0940
  160DOPC  H11R19310   7.957   1.266  15.676  1.1028  0.9880  0.4089
  160DOPC  H11S19311   8.012   1.248  15.844  0.4473 -2.3991 -0.5390
  160DOPC  C21219312   7.850   1.383  15.823 -0.0343  0.3688 -0.3302
  160DOPC  H12R19313   7.922   1.463  15.852 -0.7301  0.6795  0.5891
  160DOPC  H12S19314   7.790   1.361  15.914 -0.7365 -1.4563 -1.1811
  160DOPC  C21319315   7.750   1.430  15.712  0.1669  0.4030  0.0525
  160DOPC  H13R19316   7.695   1.517  15.755  1.0045  0.0875  1.8502
  160DOPC  H13S19317   7.679   1.346  15.697  1.4194 -0.8448  0.8962
  160DOPC  C21419318   7.808   1.473  15.573 -0.3177  0.5972  0.4327
  160DOPC  H14R19319   7.849   1.379  15.530 -2.3810  0.5443 -1.6516
  160DOPC  H14S19320   7.896   1.538  15.592  0.9033 -0.8349 -0.0612
  160DOPC  C21519321   7.714   1.522  15.469 -0.0117  0.9423  0.4010
  160DOPC  H15R19322   7.695   1.631  15.486 -0.2547  1.3580 -2.1415
  160DOPC  H15S19323   7.619   1.466  15.478 -2.7146  4.6678 -1.9591
  160DOPC  C21619324   7.779   1.500  15.331  0.2133 -0.2638  0.3569
  160DOPC  H16R19325   7.774   1.398  15.287 -0.2030 -0.4200  0.7546
  160DOPC  H16S19326   7.889   1.512  15.338  0.2411 -0.7471  0.7865
  160DOPC  C21719327   7.710   1.595  15.228  0.1827  0.1205 -0.9561
  160DOPC  H17R19328   7.760   1.568  15.133  0.0422 -1.2204 -0.6752
  160DOPC  H17S19329   7.734   1.700  15.254 -1.6985  0.2012  0.7457
  160DOPC  C21819330   7.559   1.587  15.222 -1.3765 -0.2889 -0.4818
  160DOPC  H18R19331   7.515   1.669  15.162  0.6625  0.1625 -1.4603
  160DOPC  H18S19332   7.518   1.589  15.325  0.2988 -1.9190  0.2816
  160DOPC  H18T19333   7.524   1.488  15.185 -2.1301 -0.4590  0.6379
  160DOPC   C3319334   7.997   0.615  16.589 -0.3094 -0.1670 -0.2675
  160DOPC   H3X19335   8.064   0.684  16.533 -1.3250  1.2231  0.1710
  160DOPC   H3Y19336   7.954   0.670  16.675 -0.1355  2.0594 -1.5299
  160DOPC   C3419337   7.883   0.574  16.509  0.2087  0.0282  0.3751
  160DOPC   H4X19338   7.798   0.645  16.517 -0.7648 -1.0628 -0.0367
  160DOPC   H4Y19339   7.842   0.482  16.557 -0.1974  0.5823  1.1022
  160DOPC   C3519340   7.915   0.560  16.359 -0.0380  0.8745  0.2859
  160DOPC   H5X19341   7.966   0.463  16.341 -0.7899  0.7946 -1.6480
  160DOPC   H5Y19342   7.984   0.636  16.315 -0.3485 -0.1808 -2.2238
  160DOPC   C3619343   7.777   0.560  16.277 -0.3761  0.9774 -0.1122
  160DOPC   H6X19344   7.698   0.498  16.323 -0.9092  2.3693  0.9323
  160DOPC   H6Y19345   7.742   0.664  16.293 -0.7099  0.9492 -0.6111
  160DOPC   C3719346   7.786   0.536  16.132  0.1471  0.7518  0.3248
  160DOPC   H7X19347   7.833   0.620  16.076  0.8365 -0.7167 -1.3655
  160DOPC   H7Y19348   7.847   0.449  16.101 -1.4200 -0.3824  0.2859
  160DOPC   C3819349   7.645   0.504  16.071 -0.2625  0.6908  0.2494
  160DOPC   H8X19350   7.571   0.583  16.091  0.7223  1.7895 -0.3141
  160DOPC   H8Y19351   7.598   0.417  16.122  0.9493  0.1059  0.4121
  160DOPC   C3919352   7.664   0.486  15.918  0.3582  0.2915  0.1014
  160DOPC   H9X19353   7.726   0.401  15.887 -0.6971 -0.5401  0.1922
  160DOPC  C31019354   7.619   0.560  15.823  0.1808 -0.0267 -0.0897
  160DOPC  H10X19355   7.654   0.544  15.720  1.7932 -1.2398  0.6092
  160DOPC  C31119356   7.538   0.681  15.836  0.5015  0.2122 -0.0415
  160DOPC  H11X19357   7.542   0.734  15.934 -0.4698  1.2833 -0.5599
  160DOPC  H11Y19358   7.433   0.651  15.816  0.7825 -1.0951  0.3493
  160DOPC  C31219359   7.590   0.787  15.738 -0.1134  0.3398  0.5635
  160DOPC  H12X19360   7.700   0.803  15.746 -0.1386  0.8986 -0.1639
  160DOPC  H12Y19361   7.531   0.879  15.759 -1.5806 -0.5664  0.5749
  160DOPC  C31319362   7.558   0.762  15.588 -0.4183 -0.4073 -0.0761
  160DOPC  H13X19363   7.616   0.670  15.563  0.7639 -0.0254  1.1159
  160DOPC  H13Y19364   7.448   0.749  15.582 -0.2609 -1.4027 -1.2820
  160DOPC  C31419365   7.602   0.865  15.485 -0.6317 -0.1016 -0.1423
  160DOPC  H14X19366   7.546   0.961  15.487  2.1207  1.6112  0.1822
  160DOPC  H14Y19367   7.708   0.900  15.495 -0.9458  0.9416 -0.3219
  160DOPC  C31519368   7.604   0.813  15.341 -0.2393  1.1508  0.1361
  160DOPC  H15X19369   7.508   0.761  15.323 -0.0145  1.3731 -1.8894
  160DOPC  H15Y19370   7.678   0.730  15.334 -3.3956 -1.8695 -0.0410
  160DOPC  C31619371   7.623   0.916  15.226 -0.6583 -0.1777 -0.1922
  160DOPC  H16X19372   7.716   0.973  15.245 -0.3342  0.0232 -2.1955
  160DOPC  H16Y19373   7.646   0.864  15.130  1.8786  1.0399 -0.2973
  160DOPC  C31719374   7.518   1.032  15.213 -0.3284  0.4359  0.2847
  160DOPC  H17X19375   7.424   0.981  15.182  0.0592 -0.8894  1.2039
  160DOPC  H17Y19376   7.493   1.076  15.311 -0.0145  1.9095 -0.2750
  160DOPC  C31819377   7.559   1.153  15.125 -0.5868  0.1053  0.0064
  160DOPC  H18X19378   7.660   1.130  15.085 -0.4136  0.2757  0.3500
  160DOPC  H18Y19379   7.487   1.174  15.043 -0.1937 -0.3989 -0.4765
  160DOPC  H18Z19380   7.579   1.243  15.186  1.3372  3.0629 -4.4120
  161DOPC     N19381   3.410   8.222  17.090 -0.2774  0.4842  0.5333
  161DOPC   C1219382   3.451   8.084  17.126  0.1642 -0.2142 -0.1080
  161DOPC  H12A19383   3.441   8.065  17.232  1.7820 -0.9051 -0.0531
  161DOPC  H12B19384   3.557   8.067  17.114  0.1423  0.1692 -0.9286
  161DOPC   C1319385   3.261   8.242  17.071 -0.1982  0.1790  0.2137
  161DOPC  H13A19386   3.237   8.338  17.029 -1.5868 -0.6109 -0.9073
  161DOPC  H13B19387   3.224   8.163  17.006  3.1805  0.5038 -2.3852
  161DOPC  H13C19388   3.204   8.234  17.162 -0.7734  0.9063 -0.0760
  161DOPC   C1419389   3.468   8.261  16.951  0.0588 -0.6438  0.0106
  161DOPC  H14A19390   3.424   8.355  16.920 -0.9270 -0.7993  0.8497
  161DOPC  H14B19391   3.575   8.269  16.947  0.3291 -3.2403  0.3588
  161DOPC  H14C19392   3.444   8.180  16.885 -1.0425 -0.2597 -0.0819
  161DOPC   C1519393   3.448   8.330  17.192 -0.2149 -0.2320 -0.2304
  161DOPC  H15A19394   3.551   8.323  17.222 -0.6136  0.4663  1.4257
  161DOPC  H15B19395   3.402   8.323  17.289 -3.7604 -4.0958 -1.8426
  161DOPC  H15C19396   3.438   8.430  17.152 -1.4504 -0.1135  0.3138
  161DOPC   C1119397   3.387   7.967  17.046  0.8377 -0.4304  0.4215
  161DOPC  H11A19398   3.401   7.872  17.104  1.5655 -0.4700  0.1911
  161DOPC  H11B19399   3.277   7.965  17.035  0.9920  0.8029 -1.9595
  161DOPC     P19400   3.590   7.871  16.904  0.0449 -0.2463 -0.0270
  161DOPC   O1319401   3.576   7.725  16.930 -0.3257 -0.1160  0.6760
  161DOPC   O1419402   3.675   7.937  17.008 -0.1899 -0.1018  0.5934
  161DOPC   O1219403   3.448   7.944  16.918 -0.1495  0.1132  0.6961
  161DOPC   O1119404   3.639   7.897  16.759  0.0674  0.6470 -0.4196
  161DOPC    C119405   3.641   8.016  16.688  0.2120 -0.6551 -0.0052
  161DOPC    HA19406   3.743   8.056  16.673  0.0056 -0.0597  0.1369
  161DOPC    HB19407   3.576   8.095  16.732  0.2445 -0.4541 -0.3222
  161DOPC    C219408   3.585   7.997  16.545 -0.2445 -0.2708 -0.0543
  161DOPC    HS19409   3.608   8.092  16.492 -1.0236  0.1736  0.3940
  161DOPC   O2119410   3.443   7.967  16.549  0.0816  0.0701  0.3752
  161DOPC   C2119411   3.372   8.082  16.554  0.0176 -0.7361 -1.1738
  161DOPC   O2219412   3.418   8.191  16.578  0.1214  0.1260  0.0597
  161DOPC   C2219413   3.231   8.062  16.512 -0.0213  0.3996  0.3567
  161DOPC   H2R19414   3.165   8.103  16.592 -0.9455 -0.7308  0.2017
  161DOPC   H2S19415   3.198   7.957  16.496 -0.0035  0.4236  0.1609
  161DOPC    C319416   3.663   7.881  16.477  1.1220  0.4143 -0.1307
  161DOPC    HX19417   3.659   7.790  16.539 -0.6407 -0.1286 -0.9641
  161DOPC    HY19418   3.773   7.898  16.481  1.8284 -3.0146 -1.5585
  161DOPC   O3119419   3.627   7.857  16.339 -0.4616 -0.6270 -0.3839
  161DOPC   C3119420   3.546   7.751  16.324  0.3368  0.3579  0.0982
  161DOPC   O3219421   3.499   7.682  16.412  0.6165 -0.2424 -0.1657
  161DOPC   C3219422   3.494   7.749  16.185  0.2803  0.4139  0.5614
  161DOPC   H2X19423   3.389   7.712  16.179  0.2118  0.6738  0.1222
  161DOPC   H2Y19424   3.480   7.855  16.153  0.5860  0.6349  1.1408
  161DOPC   C2319425   3.206   8.133  16.379  0.8018  0.9168 -0.5859
  161DOPC   H3R19426   3.260   8.230  16.380 -0.3457  1.5791  1.4578
  161DOPC   H3S19427   3.098   8.157  16.367  0.2877 -0.7203  0.4155
  161DOPC   C2419428   3.229   8.047  16.256 -0.4096 -0.0935 -0.8829
  161DOPC   H4R19429   3.164   7.957  16.254  0.1994 -0.5369 -0.9849
  161DOPC   H4S19430   3.336   8.021  16.242 -0.0256  1.2877 -0.7346
  161DOPC   C2519431   3.186   8.133  16.138  0.1642 -0.1213 -0.4444
  161DOPC   H5R19432   3.248   8.225  16.140  1.1633 -0.7615 -1.1411
  161DOPC   H5S19433   3.080   8.165  16.145  0.4765  0.9463 -0.3281
  161DOPC   C2619434   3.209   8.077  16.003 -0.8722 -0.4236 -0.1067
  161DOPC   H6R19435   3.175   7.972  16.011 -0.1507 -0.6654 -0.0958
  161DOPC   H6S19436   3.319   8.077  15.986 -0.7597  1.1188  0.4711
  161DOPC   C2719437   3.151   8.152  15.882 -0.3492 -0.5374 -0.1115
  161DOPC   H7R19438   3.220   8.230  15.843 -1.5126 -1.2888 -4.0510
  161DOPC   H7S19439   3.052   8.196  15.906  0.1875  1.4122 -1.2488
  161DOPC   C2819440   3.119   8.065  15.759  0.3228  0.6496  0.1690
  161DOPC   H8R19441   3.082   8.129  15.676 -1.6962 -0.1604  0.3967
  161DOPC   H8S19442   3.033   8.002  15.788  1.1202 -0.6425 -0.1590
  161DOPC   C2919443   3.242   7.983  15.708 -0.5704 -0.1274 -0.3672
  161DOPC   H9R19444   3.315   7.972  15.791 -0.8770  2.3537  0.2888
  161DOPC  C21019445   3.281   7.960  15.587  0.1623  0.8894 -0.1448
  161DOPC  H10R19446   3.372   7.901  15.566 -0.1223  0.8470 -1.3594
  161DOPC  C21119447   3.208   7.986  15.461 -0.8383 -0.7871  0.1894
  161DOPC  H11R19448   3.102   8.007  15.488 -0.2455  0.1377  1.9234
  161DOPC  H11S19449   3.207   7.905  15.384  0.5870  0.4938 -1.2361
  161DOPC  C21219450   3.267   8.114  15.406  0.0024 -0.8007 -0.2257
  161DOPC  H12R19451   3.378   8.120  15.402 -0.0542  0.5676 -0.1735
  161DOPC  H12S19452   3.225   8.186  15.479 -0.7679 -0.6821 -0.7757
  161DOPC  C21319453   3.213   8.158  15.270 -0.0301  0.1391  0.0973
  161DOPC  H13R19454   3.155   8.072  15.230  1.8460 -1.9542  1.6551
  161DOPC  H13S19455   3.310   8.159  15.215  1.4464 -0.5578  2.5224
  161DOPC  C21419456   3.151   8.294  15.249  0.2909  0.4104  0.4713
  161DOPC  H14R19457   3.213   8.382  15.277  0.0585  0.5084  0.6839
  161DOPC  H14S19458   3.060   8.299  15.312  0.0893 -0.9615  0.3138
  161DOPC  C21519459   3.104   8.314  15.101 -0.3352  0.4693  0.1495
  161DOPC  H15R19460   3.079   8.209  15.078  0.9445  0.1721  0.0322
  161DOPC  H15S19461   3.203   8.332  15.054  1.0121 -3.6525  0.9881
  161DOPC  C21619462   3.009   8.429  15.087  0.2242 -0.2521 -0.1691
  161DOPC  H16R19463   3.062   8.526  15.102 -0.4291  0.1458 -0.3993
  161DOPC  H16S19464   2.944   8.429  15.177 -0.7141 -2.7999 -0.7722
  161DOPC  C21719465   2.950   8.429  14.945  0.9253  0.4081  0.6653
  161DOPC  H17R19466   3.030   8.425  14.868  0.3869 -0.5968  0.1461
  161DOPC  H17S19467   2.882   8.513  14.924 -1.2737 -1.7152 -1.3368
  161DOPC  C21819468   2.857   8.309  14.930 -0.4500  0.2263 -0.2365
  161DOPC  H18R19469   2.815   8.283  15.030  0.5679 -0.6026  0.0051
  161DOPC  H18S19470   2.912   8.214  14.909  1.3892  1.4960 -1.3854
  161DOPC  H18T19471   2.786   8.312  14.845  1.2956 -2.8480 -1.9956
  161DOPC   C3319472   3.579   7.677  16.072 -0.0990  0.4094 -0.1214
  161DOPC   H3X19473   3.517   7.691  15.982  0.0792  1.8048 -0.0557
  161DOPC   H3Y19474   3.592   7.570  16.100  0.1813  1.0695  2.5435
  161DOPC   C3419475   3.726   7.731  16.051  0.8195 -0.7278  0.2619
  161DOPC   H4X19476   3.790   7.692  16.133  2.0466  1.2465  0.2919
  161DOPC   H4Y19477   3.730   7.842  16.058  1.4606 -0.7619  0.5181
  161DOPC   C3519478   3.782   7.679  15.916  0.6066  0.4918  0.0423
  161DOPC   H5X19479   3.779   7.568  15.923 -0.7776  0.1815 -3.3361
  161DOPC   H5Y19480   3.890   7.702  15.907  0.6218  1.4409  2.2393
  161DOPC   C3619481   3.717   7.723  15.784  0.1116  0.3363 -1.1946
  161DOPC   H6X19482   3.610   7.694  15.783 -0.5709  2.5486  0.1521
  161DOPC   H6Y19483   3.720   7.834  15.785 -1.4129  0.4040  0.6413
  161DOPC   C3719484   3.806   7.681  15.666  0.8173 -0.3487  0.0034
  161DOPC   H7X19485   3.912   7.688  15.698  0.4864  0.3727  0.9896
  161DOPC   H7Y19486   3.798   7.576  15.629 -0.8048 -0.3862  0.3983
  161DOPC   C3819487   3.800   7.773  15.548  0.0896 -0.4627 -0.3576
  161DOPC   H8X19488   3.874   7.733  15.475 -0.2144  1.5522 -1.8460
  161DOPC   H8Y19489   3.848   7.871  15.567  1.4225 -0.3407 -3.6155
  161DOPC   C3919490   3.665   7.770  15.488 -0.0867 -0.0329 -0.2402
  161DOPC   H9X19491   3.601   7.687  15.522  0.0759 -0.0906 -0.0745
  161DOPC  C31019492   3.616   7.869  15.404 -0.2514 -0.2922  0.6100
  161DOPC  H10X19493   3.518   7.846  15.360  1.6098 -1.9981 -3.0436
  161DOPC  C31119494   3.681   7.996  15.358 -0.7308  0.5117 -0.9539
  161DOPC  H11X19495   3.782   8.000  15.403 -0.3847  1.6141 -1.7745
  161DOPC  H11Y19496   3.618   8.085  15.379  0.1640  0.9919 -0.2767
  161DOPC  C31219497   3.693   7.994  15.200 -0.1499  0.0648  0.1318
  161DOPC  H12X19498   3.737   7.901  15.159 -0.3175 -0.9733  2.1758
  161DOPC  H12Y19499   3.763   8.077  15.174 -0.0480  0.5842  1.9330
  161DOPC  C31319500   3.562   8.044  15.130 -0.1453 -0.6954 -0.1071
  161DOPC  H13X19501   3.496   7.955  15.140 -0.9308  0.0863  2.4741
  161DOPC  H13Y19502   3.525   8.133  15.186  0.8190 -0.2286 -0.1888
  161DOPC  C31419503   3.581   8.088  14.982 -0.8543  0.4967 -0.9944
  161DOPC  H14X19504   3.651   8.025  14.922  0.3959 -0.1339  1.0427
  161DOPC  H14Y19505   3.478   8.063  14.949 -0.2960 -0.1074 -2.3873
  161DOPC  C31519506   3.617   8.235  14.969  0.5059  0.6394  0.2609
  161DOPC  H15X19507   3.728   8.242  14.977  0.6741 -2.6117  2.5374
  161DOPC  H15Y19508   3.579   8.294  15.054 -1.0690 -0.5167  0.4017
  161DOPC  C31619509   3.553   8.295  14.847  0.2607  0.1702  0.0090
  161DOPC  H16X19510   3.621   8.376  14.812  0.0568  0.1606 -0.4223
  161DOPC  H16Y19511   3.564   8.220  14.766 -3.0252  0.0656 -0.4666
  161DOPC  C31719512   3.407   8.339  14.854 -0.6086  0.6172 -0.6227
  161DOPC  H17X19513   3.341   8.250  14.865  0.6209 -0.0746  1.8084
  161DOPC  H17Y19514   3.395   8.397  14.948  1.3078  0.6103 -0.3286
  161DOPC  C31819515   3.357   8.407  14.727 -0.4103  0.0045 -0.1901
  161DOPC  H18X19516   3.435   8.375  14.655  2.0304 -1.7064  2.9271
  161DOPC  H18Y19517   3.253   8.381  14.697 -1.0305  1.3427  0.6902
  161DOPC  H18Z19518   3.359   8.517  14.747  2.7912  0.0494 -0.1942
  162DOPC     N19519   8.027   8.307  17.328 -0.3107 -0.7824  0.4917
  162DOPC   C1219520   8.162   8.238  17.321  0.5448  0.1935 -0.4157
  162DOPC  H12A19521   8.166   8.175  17.233  0.5334 -0.1879 -0.1462
  162DOPC  H12B19522   8.176   8.165  17.400 -1.5930 -0.7673 -0.8619
  162DOPC   C1319523   8.005   8.387  17.204 -0.0630  0.2225  0.4623
  162DOPC  H13A19524   8.017   8.331  17.113  0.6935  1.0684  0.0182
  162DOPC  H13B19525   7.903   8.422  17.203 -0.7496 -1.6805 -0.8113
  162DOPC  H13C19526   8.072   8.471  17.192 -1.8023  1.4585 -1.1803
  162DOPC   C1419527   8.014   8.396  17.442  0.0705 -0.5946  0.0797
  162DOPC  H14A19528   7.912   8.432  17.438  0.6334  0.9721 -1.3152
  162DOPC  H14B19529   8.029   8.349  17.537  2.1734  0.4877  0.3456
  162DOPC  H14C19530   8.080   8.482  17.437  0.3323 -0.8536 -1.5290
  162DOPC   C1519531   7.915   8.211  17.325  0.3137 -0.2765 -1.0086
  162DOPC  H15A19532   7.938   8.131  17.255  0.9717 -1.0489  0.0430
  162DOPC  H15B19533   7.820   8.257  17.306 -0.8907 -2.6213 -0.9583
  162DOPC  H15C19534   7.906   8.165  17.422 -2.2686  0.2695 -0.9340
  162DOPC   C1119535   8.289   8.326  17.313  0.5239  0.2810  0.3453
  162DOPC  H11A19536   8.308   8.371  17.414  0.4330 -0.2149  0.5861
  162DOPC  H11B19537   8.366   8.248  17.298 -0.6501 -0.7627 -0.4013
  162DOPC     P19538   8.354   8.421  17.071  0.0637  0.0823  0.0780
  162DOPC   O1319539   8.501   8.426  17.082  0.3035  0.3392  0.1530
  162DOPC   O1419540   8.292   8.533  16.991  0.2779 -0.3025 -0.0582
  162DOPC   O1219541   8.286   8.421  17.208  0.0765 -0.4558 -0.0915
  162DOPC   O1119542   8.313   8.280  17.008 -0.1182  0.1377 -0.0836
  162DOPC    C119543   8.195   8.248  16.930 -0.1069 -0.4229 -0.2911
  162DOPC    HA19544   8.125   8.334  16.932 -0.3329 -0.6149  1.2229
  162DOPC    HB19545   8.143   8.165  16.983  1.0241 -0.8107  0.2668
  162DOPC    C219546   8.231   8.210  16.781  0.0278 -0.3248 -0.2718
  162DOPC    HS19547   8.288   8.115  16.779 -1.2564 -1.2282  2.2381
  162DOPC   O2119548   8.307   8.325  16.726 -0.0266  0.1491  0.1967
  162DOPC   C2119549   8.424   8.285  16.671  0.5113 -0.3789 -0.1885
  162DOPC   O2219550   8.450   8.170  16.640  0.4785  0.4675  0.0233
  162DOPC   C2219551   8.516   8.401  16.662 -0.1257 -0.6639  1.4850
  162DOPC   H2R19552   8.620   8.362  16.666 -0.0601 -0.6281  0.4679
  162DOPC   H2S19553   8.507   8.468  16.749 -0.1640  1.8263 -0.3337
  162DOPC    C319554   8.095   8.190  16.706  0.1310 -0.0388  0.1548
  162DOPC    HX19555   8.034   8.280  16.728  2.4412  1.0966  2.5887
  162DOPC    HY19556   8.050   8.098  16.749  0.1983  0.5673  1.5625
  162DOPC   O3119557   8.111   8.183  16.560 -0.8999 -0.0067 -0.3796
  162DOPC   C3119558   8.144   8.059  16.514 -0.5340  0.2801  0.0177
  162DOPC   O3219559   8.137   7.953  16.582  0.1533 -0.2100 -0.1473
  162DOPC   C3219560   8.180   8.070  16.362 -0.3230 -0.1661 -0.3200
  162DOPC   H2X19561   8.083   8.087  16.311 -1.1637  3.6138  2.1527
  162DOPC   H2Y19562   8.235   8.164  16.343  2.1590 -1.0435  1.8448
  162DOPC   C2319563   8.502   8.491  16.533 -0.3086  0.5169 -0.5560
  162DOPC   H3R19564   8.596   8.545  16.508  0.4412 -0.8416 -0.7504
  162DOPC   H3S19565   8.421   8.563  16.556 -0.7562  0.1162 -0.8699
  162DOPC   C2419566   8.459   8.409  16.415 -0.1414  0.0300  0.6772
  162DOPC   H4R19567   8.361   8.358  16.421 -0.9726  1.3904 -0.6704
  162DOPC   H4S19568   8.540   8.334  16.412  1.1372  1.3877 -0.3928
  162DOPC   C2519569   8.467   8.489  16.282 -0.0340 -0.1436 -0.9447
  162DOPC   H5R19570   8.570   8.530  16.278  0.2890 -0.6980  0.6009
  162DOPC   H5S19571   8.400   8.576  16.290 -1.1310 -1.0736  0.5766
  162DOPC   C2619572   8.427   8.416  16.150  0.4540 -0.3986  0.1601
  162DOPC   H6R19573   8.344   8.459  16.092 -0.4355 -1.1789  0.8121
  162DOPC   H6S19574   8.387   8.324  16.200 -1.2936 -0.2360 -0.8869
  162DOPC   C2719575   8.533   8.384  16.046  1.0392 -0.5931 -0.1404
  162DOPC   H7R19576   8.597   8.305  16.089  0.1077 -0.7754  0.9610
  162DOPC   H7S19577   8.598   8.469  16.015  0.7751 -1.2773 -2.8183
  162DOPC   C2819578   8.471   8.333  15.919 -0.3071 -0.6859  0.2769
  162DOPC   H8R19579   8.386   8.266  15.946 -1.5068  0.7303  0.1137
  162DOPC   H8S19580   8.541   8.274  15.856 -0.2903  0.2666 -0.6091
  162DOPC   C2919581   8.401   8.444  15.833  0.0385 -0.0894 -0.2752
  162DOPC   H9R19582   8.368   8.534  15.887 -1.2089  0.6818 -2.2240
  162DOPC  C21019583   8.364   8.438  15.706  0.2132 -0.7653 -0.2549
  162DOPC  H10R19584   8.324   8.527  15.654  2.5404  2.4416  2.9494
  162DOPC  C21119585   8.387   8.332  15.600 -0.0048  0.6191 -0.3054
  162DOPC  H11R19586   8.467   8.261  15.630 -0.2684 -0.0425 -1.1112
  162DOPC  H11S19587   8.422   8.381  15.507 -1.0053  2.2793  0.1566
  162DOPC  C21219588   8.260   8.249  15.570  0.3206 -0.5127  0.3514
  162DOPC  H12R19589   8.237   8.187  15.659 -0.3667  0.5965  0.9809
  162DOPC  H12S19590   8.274   8.181  15.484 -0.0962  0.1786 -0.2712
  162DOPC  C21319591   8.139   8.328  15.537  0.7034 -0.0967  0.0043
  162DOPC  H13R19592   8.159   8.415  15.471 -0.4179  0.0782 -0.1333
  162DOPC  H13S19593   8.107   8.372  15.634 -1.1714  3.3303 -1.9583
  162DOPC  C21419594   8.027   8.241  15.471 -0.8070  0.3364  0.5012
  162DOPC  H14R19595   7.997   8.156  15.536  1.0129 -0.8643 -0.1183
  162DOPC  H14S19596   8.063   8.201  15.374 -2.3826  0.5689 -0.2083
  162DOPC  C21519597   7.897   8.326  15.446  0.0620  0.3664 -0.3701
  162DOPC  H15R19598   7.927   8.406  15.376 -0.3969  1.5956  0.8085
  162DOPC  H15S19599   7.869   8.385  15.536  3.5849 -0.8822  1.7677
  162DOPC  C21619600   7.777   8.245  15.403 -0.0872  0.4513  0.4357
  162DOPC  H16R19601   7.750   8.177  15.486  1.8153 -1.5351 -0.4811
  162DOPC  H16S19602   7.821   8.181  15.323  3.0484  0.9051  1.6671
  162DOPC  C21719603   7.655   8.322  15.358  0.3122  0.3780 -0.3069
  162DOPC  H17R19604   7.616   8.386  15.440 -0.9529  1.1749 -1.4859
  162DOPC  H17S19605   7.580   8.242  15.341 -0.0394  0.3992  1.0038
  162DOPC  C21819606   7.680   8.404  15.233 -0.6126 -0.0785 -0.1447
  162DOPC  H18R19607   7.697   8.350  15.137 -0.0471  2.0716 -1.3311
  162DOPC  H18S19608   7.776   8.458  15.245  0.3561 -2.3503  3.9390
  162DOPC  H18T19609   7.602   8.480  15.210 -0.7415 -0.4132 -0.8707
  162DOPC   C3319610   8.248   7.944  16.308 -0.1660  0.1477 -0.0808
  162DOPC   H3X19611   8.254   7.963  16.199  1.7610  1.6881  0.2369
  162DOPC   H3Y19612   8.184   7.856  16.332  1.8425 -1.5655 -0.7782
  162DOPC   C3419613   8.394   7.914  16.355  0.0250 -0.1906  0.3665
  162DOPC   H4X19614   8.428   7.826  16.297  1.4420  0.6024 -0.0643
  162DOPC   H4Y19615   8.399   7.895  16.465  1.2949  0.5690  0.4540
  162DOPC   C3519616   8.487   8.026  16.319 -0.6087  0.8803  0.1057
  162DOPC   H5X19617   8.471   8.105  16.395 -0.1887  0.7127  0.3729
  162DOPC   H5Y19618   8.452   8.084  16.231 -0.9107  0.7577  0.1410
  162DOPC   C3619619   8.635   7.983  16.310 -0.0696  0.4346  0.0164
  162DOPC   H6X19620   8.674   7.936  16.403 -0.0611  0.3777 -0.0153
  162DOPC   H6Y19621   8.670   7.916  16.228  2.5848 -0.2821  1.5825
  162DOPC   C3719622   8.726   8.106  16.298  0.0789  0.3426 -0.0655
  162DOPC   H7X19623   8.694   8.162  16.208  0.0201  0.2371 -0.1100
  162DOPC   H7Y19624   8.693   8.172  16.381 -1.6607  0.6576 -0.9656
  162DOPC   C3819625   8.876   8.087  16.303  0.4129 -0.1209  0.2351
  162DOPC   H8X19626   8.894   8.038  16.400  1.0164 -0.3179  0.0308
  162DOPC   H8Y19627   8.917   8.190  16.316  1.2494 -0.3191 -0.6996
  162DOPC   C3919628   8.929   8.020  16.178 -0.0651  0.0872 -0.9256
  162DOPC   H9X19629   8.938   7.911  16.179 -2.3481 -0.1724 -1.9107
  162DOPC  C31019630   8.955   8.092  16.067 -0.2513 -0.1308  0.8748
  162DOPC  H10X19631   8.990   8.041  15.977  0.4141  2.0783 -0.2071
  162DOPC  C31119632   8.954   8.243  16.049 -0.3104  0.3445  0.1066
  162DOPC  H11X19633   9.058   8.283  16.047 -0.9480  2.1515 -2.7538
  162DOPC  H11Y19634   8.897   8.283  16.135 -1.0231  0.4584 -0.4148
  162DOPC  C31219635   8.879   8.270  15.923  0.1302 -0.3581 -0.6137
  162DOPC  H12X19636   8.776   8.228  15.926  0.3796 -0.9310  0.2167
  162DOPC  H12Y19637   8.925   8.229  15.831 -0.2375 -0.3945 -0.7852
  162DOPC  C31319638   8.861   8.421  15.899 -0.2001 -0.1876  0.0458
  162DOPC  H13X19639   8.790   8.465  15.972  0.9819 -1.9584  2.3780
  162DOPC  H13Y19640   8.959   8.470  15.918 -0.3576 -0.1279  0.7161
  162DOPC  C31419641   8.802   8.449  15.754 -0.1541 -1.2293 -0.1056
  162DOPC  H14X19642   8.882   8.443  15.677 -1.2113  1.4175 -1.5719
  162DOPC  H14Y19643   8.709   8.391  15.733 -2.0027  1.0947  1.0996
  162DOPC  C31519644   8.767   8.595  15.738 -0.0664 -0.5747 -0.2890
  162DOPC  H15X19645   8.853   8.653  15.779 -3.0223  2.3973  2.2617
  162DOPC  H15Y19646   8.679   8.622  15.799 -1.8440 -3.0548 -1.5735
  162DOPC  C31619647   8.732   8.640  15.597  0.0839 -0.7750  0.3925
  162DOPC  H16X19648   8.636   8.604  15.555  0.1757 -1.1491  0.5009
  162DOPC  H16Y19649   8.719   8.751  15.603 -2.5800 -0.9637 -0.3936
  162DOPC  C31719650   8.834   8.612  15.490 -0.2202  0.0706  0.3581
  162DOPC  H17X19651   8.921   8.665  15.532 -0.5362  0.0950  0.9948
  162DOPC  H17Y19652   8.851   8.503  15.477 -0.6162  0.0751 -0.2553
  162DOPC  C31819653   8.812   8.668  15.351 -0.0858  0.1746 -0.3736
  162DOPC  H18X19654   8.783   8.775  15.343 -1.8247 -0.2011  0.4571
  162DOPC  H18Y19655   8.905   8.651  15.291  0.6008 -0.5505  0.8593
  162DOPC  H18Z19656   8.725   8.617  15.304 -0.5903  0.7623 -0.0825
  163DOPC     N19657   8.095   3.530  17.556 -0.0395 -0.1814  0.1738
  163DOPC   C1219658   8.049   3.597  17.430 -0.3314 -0.2523 -0.3375
  163DOPC  H12A19659   8.132   3.605  17.361  0.8390 -1.7608  0.8372
  163DOPC  H12B19660   8.023   3.702  17.442 -1.4464 -0.4425 -0.9782
  163DOPC   C1319661   8.201   3.618  17.619  0.3382 -0.2801 -0.1891
  163DOPC  H13A19662   8.164   3.718  17.635  1.2779  0.3881 -1.8388
  163DOPC  H13B19663   8.232   3.574  17.712  1.9509  1.0459 -0.0293
  163DOPC  H13C19664   8.283   3.643  17.553 -0.6966 -1.0887 -1.8489
  163DOPC   C1419665   8.149   3.401  17.525  0.2745 -0.0879 -0.3719
  163DOPC  H14A19666   8.180   3.348  17.615  1.7142  1.0606 -0.1551
  163DOPC  H14B19667   8.072   3.341  17.479 -1.8413  2.2851 -0.1745
  163DOPC  H14C19668   8.226   3.405  17.451  0.3717 -1.2314 -0.3509
  163DOPC   C1519669   7.979   3.527  17.649  0.2076  0.8357 -0.2093
  163DOPC  H15A19670   7.906   3.462  17.603  3.4147 -2.3007 -1.2513
  163DOPC  H15B19671   7.942   3.626  17.673  0.6986  0.9015  0.2989
  163DOPC  H15C19672   8.006   3.465  17.734  0.0005  0.4491 -0.4206
  163DOPC   C1119673   7.930   3.528  17.367  0.6843 -0.4163  0.0573
  163DOPC  H11A19674   7.928   3.577  17.268  0.5722 -0.4663  0.0339
  163DOPC  H11B19675   7.954   3.420  17.355  1.5223 -0.2285  0.0176
  163DOPC     P19676   7.685   3.479  17.368  0.3994 -0.3942 -0.2046
  163DOPC   O1319677   7.566   3.535  17.437  0.1951  0.1888  0.4231
  163DOPC   O1419678   7.692   3.330  17.363 -0.3487  0.4464  0.5377
  163DOPC   O1219679   7.806   3.550  17.431  0.0313  0.3653 -0.8781
  163DOPC   O1119680   7.688   3.529  17.215  0.4371 -0.2048 -0.4889
  163DOPC    C119681   7.657   3.660  17.174 -0.1917 -0.1734 -0.5655
  163DOPC    HA19682   7.746   3.725  17.182 -0.0530 -0.3224 -0.9056
  163DOPC    HB19683   7.577   3.705  17.237  2.8290  0.3049  3.2807
  163DOPC    C219684   7.626   3.657  17.015  0.1015  0.0513  0.1443
  163DOPC    HS19685   7.536   3.593  17.008 -0.9616  1.5134  0.0075
  163DOPC   O2119686   7.740   3.614  16.942  0.1431 -0.6827 -0.5157
  163DOPC   C2119687   7.714   3.545  16.833 -0.0335 -0.0338  0.3293
  163DOPC   O2219688   7.604   3.508  16.791 -0.6360  0.6600  0.2935
  163DOPC   C2219689   7.849   3.503  16.770 -0.1657 -0.7372  0.2363
  163DOPC   H2R19690   7.875   3.405  16.814  0.1916 -0.6681  0.1808
  163DOPC   H2S19691   7.920   3.583  16.801  0.3167 -0.5029 -1.3504
  163DOPC    C319692   7.588   3.800  16.974  0.3087 -0.3526  0.0962
  163DOPC    HX19693   7.667   3.874  16.997 -1.9492  1.3349  3.3586
  163DOPC    HY19694   7.506   3.826  17.044  0.4471 -0.4075  0.2804
  163DOPC   O3119695   7.560   3.807  16.835  0.1069 -0.4862  0.2626
  163DOPC   C3119696   7.439   3.785  16.801  0.0751 -0.1719 -0.6520
  163DOPC   O3219697   7.351   3.746  16.871  0.5148 -0.5491 -0.3316
  163DOPC   C3219698   7.434   3.791  16.647 -0.2856 -0.1462 -0.0829
  163DOPC   H2X19699   7.439   3.897  16.614  1.3619 -0.7849 -2.1654
  163DOPC   H2Y19700   7.521   3.733  16.608 -0.6350 -1.5987  1.1946
  163DOPC   C2319701   7.851   3.483  16.620 -0.4692  0.2280 -0.2718
  163DOPC   H3R19702   7.767   3.414  16.596 -1.4446 -0.2215  3.7334
  163DOPC   H3S19703   7.947   3.431  16.599 -0.0960  1.3914 -1.6227
  163DOPC   C2419704   7.831   3.608  16.545 -0.0294  0.2792  0.5642
  163DOPC   H4R19705   7.910   3.676  16.585 -0.0090  0.5009  0.1541
  163DOPC   H4S19706   7.736   3.658  16.570 -0.8592 -0.7517 -0.4126
  163DOPC   C2519707   7.846   3.580  16.395 -0.0787 -0.0897 -0.2256
  163DOPC   H5R19708   7.945   3.539  16.366 -0.0939 -0.4380  0.2137
  163DOPC   H5S19709   7.861   3.682  16.353  1.1517 -0.0646  0.2548
  163DOPC   C2619710   7.729   3.513  16.334  0.2247 -0.3022  0.6107
  163DOPC   H6R19711   7.637   3.575  16.341  0.1812 -0.1344 -0.9278
  163DOPC   H6S19712   7.710   3.415  16.383  0.9508 -0.6495  0.2179
  163DOPC   C2719713   7.748   3.495  16.181 -0.2091  0.0243 -0.0150
  163DOPC   H7R19714   7.822   3.412  16.183 -0.9655 -0.6718 -0.1876
  163DOPC   H7S19715   7.782   3.596  16.151 -1.0343  0.8402  1.6391
  163DOPC   C2819716   7.622   3.442  16.116  0.2558  0.1079  0.1912
  163DOPC   H8R19717   7.593   3.346  16.163  0.6734 -1.2044 -2.0572
  163DOPC   H8S19718   7.641   3.394  16.017 -0.8334  0.8645 -0.4146
  163DOPC   C2919719   7.500   3.533  16.111  0.4888  0.5274  0.4412
  163DOPC   H9R19720   7.436   3.529  16.200  0.6441 -2.5199  0.5021
  163DOPC  C21019721   7.463   3.603  15.997  0.3375  0.4530  0.3986
  163DOPC  H10R19722   7.377   3.671  16.011  1.1217  1.5677 -0.0313
  163DOPC  C21119723   7.555   3.628  15.874  0.4012  0.0453 -0.2681
  163DOPC  H11R19724   7.651   3.577  15.897  1.6842  2.6964  0.7443
  163DOPC  H11S19725   7.581   3.736  15.869 -3.0730  0.9647 -0.8078
  163DOPC  C21219726   7.493   3.556  15.754 -0.7816  0.0195 -0.7704
  163DOPC  H12R19727   7.392   3.597  15.733 -0.9443 -0.7136 -1.4925
  163DOPC  H12S19728   7.496   3.447  15.777 -1.2637  0.1056 -0.2828
  163DOPC  C21319729   7.588   3.584  15.629  0.2876 -0.6885  0.2970
  163DOPC  H13R19730   7.690   3.558  15.666  0.0392 -0.2045  1.3883
  163DOPC  H13S19731   7.587   3.693  15.607 -1.1727 -0.7600 -0.1100
  163DOPC  C21419732   7.550   3.505  15.504  0.6609  0.3592 -0.0266
  163DOPC  H14R19733   7.526   3.403  15.540  1.6992  0.7096  1.7822
  163DOPC  H14S19734   7.642   3.488  15.445 -1.0359 -1.3478 -2.3538
  163DOPC  C21519735   7.438   3.578  15.424  0.0673  0.0526 -0.9009
  163DOPC  H15R19736   7.457   3.687  15.428 -0.0373  0.0355  0.3049
  163DOPC  H15S19737   7.337   3.556  15.463  1.0343 -1.5381  0.8985
  163DOPC  C21619738   7.441   3.540  15.273  0.4402  0.1259 -0.4198
  163DOPC  H16R19739   7.427   3.430  15.268  0.2989  0.0725  0.8140
  163DOPC  H16S19740   7.540   3.564  15.230  0.8719  2.1953  1.5112
  163DOPC  C21719741   7.319   3.588  15.197  0.7507 -0.4784  0.0423
  163DOPC  H17R19742   7.220   3.567  15.243  1.2560 -2.1849  0.4619
  163DOPC  H17S19743   7.322   3.560  15.090  0.5917  0.7520 -0.2904
  163DOPC  C21819744   7.318   3.737  15.177 -0.1289 -0.3830  0.1196
  163DOPC  H18R19745   7.301   3.793  15.271  0.1777  1.1999 -0.7337
  163DOPC  H18S19746   7.237   3.769  15.107  1.4622 -1.8566 -2.5942
  163DOPC  H18T19747   7.416   3.766  15.135 -0.7396 -1.1826 -1.9919
  163DOPC   C3319748   7.302   3.734  16.591  0.7015  0.7803  0.4360
  163DOPC   H3X19749   7.282   3.769  16.487  0.2056 -0.9521 -0.0784
  163DOPC   H3Y19750   7.211   3.776  16.638 -1.0740 -2.0226 -0.2617
  163DOPC   C3419751   7.293   3.581  16.588  0.6899  0.8267 -0.1746
  163DOPC   H4X19752   7.184   3.558  16.593  0.7766  0.5956  1.0549
  163DOPC   H4Y19753   7.329   3.521  16.675 -0.0504  1.5316  0.6418
  163DOPC   C3519754   7.329   3.514  16.457 -0.1185  0.0743 -0.1672
  163DOPC   H5X19755   7.440   3.522  16.453 -0.0955 -0.4547 -0.9050
  163DOPC   H5Y19756   7.276   3.585  16.391 -1.5810  1.2815  2.1609
  163DOPC   C3619757   7.282   3.363  16.449  0.5578 -0.4688  0.4057
  163DOPC   H6X19758   7.315   3.305  16.538 -0.5276  0.3607  1.3760
  163DOPC   H6Y19759   7.172   3.354  16.438  0.7273 -0.2888 -2.1000
  163DOPC   C3719760   7.345   3.285  16.333  0.4607  0.1638  0.0855
  163DOPC   H7X19761   7.351   3.323  16.228  0.0571 -0.6752 -0.2534
  163DOPC   H7Y19762   7.451   3.272  16.362  0.2497 -0.9183  0.3989
  163DOPC   C3819763   7.284   3.145  16.320 -0.3483  0.5549  0.3523
  163DOPC   H8X19764   7.188   3.155  16.265 -0.4215  0.4672  0.4621
  163DOPC   H8Y19765   7.254   3.108  16.421 -1.7060  1.1776  0.2070
  163DOPC   C3919766   7.378   3.037  16.264 -0.4942 -0.3880 -0.6339
  163DOPC   H9X19767   7.435   2.981  16.339  2.2861  1.3016 -1.3483
  163DOPC  C31019768   7.386   3.010  16.137  0.5157 -0.0181  0.1742
  163DOPC  H10X19769   7.446   2.919  16.121  1.0573  0.5159 -0.9736
  163DOPC  C31119770   7.316   3.073  16.016  0.4730 -0.0255 -0.1918
  163DOPC  H11X19771   7.391   3.121  15.951  2.3465 -1.8178  0.5131
  163DOPC  H11Y19772   7.232   3.140  16.041  0.8950 -0.3828  2.4874
  163DOPC  C31219773   7.251   2.975  15.919  0.1642 -0.7956 -0.4811
  163DOPC  H12X19774   7.186   3.031  15.849  1.3071  1.1809 -0.0255
  163DOPC  H12Y19775   7.186   2.896  15.962  0.0652  0.1805  1.2363
  163DOPC  C31319776   7.369   2.914  15.837  0.4437  0.2810  0.1629
  163DOPC  H13X19777   7.410   2.999  15.779  1.3594 -0.2445  0.0287
  163DOPC  H13Y19778   7.455   2.869  15.891  0.8183 -0.6525 -1.1549
  163DOPC  C31419779   7.313   2.802  15.741  0.5457  0.3276 -0.0024
  163DOPC  H14X19780   7.314   2.704  15.793 -0.6634 -0.2827 -1.0749
  163DOPC  H14Y19781   7.206   2.829  15.730  0.0589 -1.5660 -0.2660
  163DOPC  C31519782   7.378   2.794  15.602  0.0355  0.1351 -0.5420
  163DOPC  H15X19783   7.486   2.819  15.606  0.8850 -3.0646 -0.1841
  163DOPC  H15Y19784   7.323   2.869  15.541 -1.5022 -0.4380  0.0651
  163DOPC  C31619785   7.358   2.657  15.532 -0.1749 -0.3443 -0.5422
  163DOPC  H16X19786   7.367   2.573  15.604 -4.5269 -0.3015  0.3299
  163DOPC  H16Y19787   7.252   2.656  15.498 -1.6495  0.8381  3.4562
  163DOPC  C31719788   7.458   2.641  15.417  0.8727 -0.1290  0.5945
  163DOPC  H17X19789   7.431   2.709  15.333  0.0502 -1.8310 -0.5675
  163DOPC  H17Y19790   7.556   2.679  15.452  0.7428  0.9604 -0.1454
  163DOPC  C31819791   7.479   2.490  15.375 -0.3577 -0.2067  0.2731
  163DOPC  H18X19792   7.548   2.498  15.288 -0.5396  0.5064  0.1849
  163DOPC  H18Y19793   7.529   2.425  15.450  0.2421 -0.3474 -0.2405
  163DOPC  H18Z19794   7.385   2.440  15.346 -1.2838  0.3479  2.1242
  164DOPC     N19795   0.103   1.115  17.501  0.6162  0.5281 -0.0589
  164DOPC   C1219796   0.051   1.079  17.371  0.8111 -0.4133  0.5370
  164DOPC  H12A19797   0.055   0.975  17.344 -0.2926 -0.3825  0.1782
  164DOPC  H12B19798   0.113   1.131  17.299  1.4615 -2.0964 -0.1485
  164DOPC   C1319799   0.046   1.032  17.612 -0.1889  0.0092 -0.5193
  164DOPC  H13A19800   0.059   0.926  17.598  1.3569 -0.0102  0.7082
  164DOPC  H13B19801   0.097   1.051  17.706  1.2163 -1.4972 -0.9417
  164DOPC  H13C19802  -0.061   1.044  17.622 -0.2587 -0.4302 -0.7282
  164DOPC   C1419803   0.082   1.262  17.529 -0.3119  0.1271 -0.0104
  164DOPC  H14A19804  -0.024   1.282  17.516 -0.8106 -0.8430  2.1304
  164DOPC  H14B19805   0.113   1.287  17.629 -0.2551  0.0870 -0.0188
  164DOPC  H14C19806   0.140   1.317  17.457  1.2349  0.2959  1.3105
  164DOPC   C1519807   0.252   1.089  17.494  0.4007  0.2618  0.1722
  164DOPC  H15A19808   0.296   1.162  17.428 -2.7684  0.6285 -1.7525
  164DOPC  H15B19809   0.283   0.991  17.461 -0.7804 -0.1682  0.3049
  164DOPC  H15C19810   0.290   1.101  17.594 -2.8187 -0.8170  1.6516
  164DOPC   C1119811  -0.099   1.132  17.346  0.2259  0.2913 -0.3964
  164DOPC  H11A19812  -0.139   1.092  17.250 -1.8298 -0.2098  0.6111
  164DOPC  H11B19813  -0.174   1.090  17.417  0.2927 -0.8560 -0.9881
  164DOPC     P19814  -0.089   1.361  17.217 -0.0291 -0.4710  0.9285
  164DOPC   O1319815  -0.057   1.494  17.275 -0.7640  0.0802 -0.0696
  164DOPC   O1419816  -0.201   1.346  17.125  0.0503 -0.6240  0.4321
  164DOPC   O1219817  -0.119   1.269  17.343 -0.1947 -0.1038  0.1060
  164DOPC   O1119818   0.030   1.285  17.153 -0.3033  0.0082 -0.3128
  164DOPC    C119819   0.167   1.322  17.143 -1.1426 -0.2133  0.5995
  164DOPC    HA19820   0.237   1.237  17.164  1.6021  1.7372 -0.0399
  164DOPC    HB19821   0.200   1.404  17.211  0.8198 -0.9918  0.6743
  164DOPC    C219822   0.199   1.362  16.999 -0.3041 -0.3728  0.0766
  164DOPC    HS19823   0.295   1.418  17.005 -0.8828  0.7382 -0.6255
  164DOPC   O2119824   0.099   1.441  16.942  0.4361 -0.2633 -0.0528
  164DOPC   C2119825   0.092   1.572  16.980 -0.4889 -0.4162  0.2775
  164DOPC   O2219826   0.169   1.626  17.063 -0.2880 -0.0462  0.2794
  164DOPC   C2219827  -0.031   1.638  16.918 -0.0275 -0.2943  0.1969
  164DOPC   H2R19828  -0.113   1.619  16.991 -0.4684  0.0898 -0.1907
  164DOPC   H2S19829  -0.047   1.600  16.815  1.1993  1.9800 -0.8985
  164DOPC    C319830   0.219   1.229  16.916  0.1521 -0.5428  0.5117
  164DOPC    HX19831   0.128   1.169  16.940  0.7299 -1.1749  1.1955
  164DOPC    HY19832   0.307   1.172  16.953 -0.8167 -0.8885  2.4165
  164DOPC   O3119833   0.239   1.247  16.773 -0.4084 -0.3197 -0.0183
  164DOPC   C3119834   0.130   1.254  16.699  0.2265 -0.3880  0.5399
  164DOPC   O3219835   0.013   1.259  16.738 -0.5782  0.1900 -0.3242
  164DOPC   C3219836   0.168   1.236  16.551  0.4804  0.2630  0.1448
  164DOPC   H2X19837   0.278   1.240  16.533  0.2048  0.3530 -1.7101
  164DOPC   H2Y19838   0.133   1.134  16.526  2.1115 -0.3584  0.2383
  164DOPC   C2319839  -0.022   1.793  16.915 -0.6083 -0.0565 -0.2857
  164DOPC   H3R19840  -0.015   1.829  17.020  1.5297 -0.3775 -0.2769
  164DOPC   H3S19841  -0.118   1.821  16.868 -0.6748 -1.3429 -0.9562
  164DOPC   C2419842   0.096   1.853  16.836  0.5815  0.1264  0.0253
  164DOPC   H4R19843   0.098   1.815  16.731 -1.8912  0.7515 -0.3237
  164DOPC   H4S19844   0.196   1.823  16.874  0.4115  2.2218  2.3837
  164DOPC   C2519845   0.087   2.003  16.819  0.3440 -0.9628 -0.3117
  164DOPC   H5R19846  -0.017   2.023  16.785 -0.0366 -0.7276  0.9456
  164DOPC   H5S19847   0.156   2.038  16.738  0.4277 -0.6484 -0.1045
  164DOPC   C2619848   0.118   2.089  16.948  0.0922 -0.1430 -0.2491
  164DOPC   H6R19849   0.222   2.057  16.970  0.1569  1.0864  1.4521
  164DOPC   H6S19850   0.044   2.057  17.025 -0.4456 -0.2166 -0.7801
  164DOPC   C2719851   0.115   2.239  16.925 -0.2032  0.6151 -0.3320
  164DOPC   H7R19852   0.135   2.296  17.018  3.2094 -2.1824  0.8938
  164DOPC   H7S19853   0.015   2.262  16.882 -0.9857  0.3923  1.3026
  164DOPC   C2819854   0.225   2.277  16.828 -0.8354  0.2262  0.1467
  164DOPC   H8R19855   0.198   2.229  16.731 -2.6797 -0.4013  0.9139
  164DOPC   H8S19856   0.317   2.226  16.863  1.3419  3.0096 -1.1488
  164DOPC   C2919857   0.244   2.426  16.814 -0.2180  0.3536  0.1063
  164DOPC   H9R19858   0.314   2.458  16.892 -1.2460  0.6678  0.9062
  164DOPC  C21019859   0.204   2.506  16.709  0.7284 -1.0719 -0.1564
  164DOPC  H10R19860   0.202   2.615  16.723 -1.0642 -1.2009  1.0501
  164DOPC  C21119861   0.118   2.468  16.587  0.4689 -0.1488 -0.2032
  164DOPC  H11R19862   0.028   2.531  16.573 -0.4329 -1.4250 -0.2511
  164DOPC  H11S19863   0.085   2.362  16.590  0.9463 -0.2973 -0.1013
  164DOPC  C21219864   0.198   2.483  16.455  0.0428 -0.0062 -0.3115
  164DOPC  H12R19865   0.135   2.453  16.368 -1.4392 -0.5926  0.9153
  164DOPC  H12S19866   0.278   2.406  16.452  0.2841  0.2188  0.1894
  164DOPC  C21319867   0.265   2.621  16.416  0.5410 -0.9347  0.5834
  164DOPC  H13R19868   0.270   2.681  16.510  2.4102 -0.4966  0.2552
  164DOPC  H13S19869   0.194   2.674  16.350 -0.3906 -3.1962 -0.2920
  164DOPC  C21419870   0.404   2.614  16.355  0.4892  0.3223 -0.0903
  164DOPC  H14R19871   0.464   2.581  16.443 -0.8800  1.2954  1.2546
  164DOPC  H14S19872   0.444   2.712  16.321  0.8284 -0.9364 -3.7636
  164DOPC  C21519873   0.407   2.512  16.242 -0.0686  0.5587  0.2606
  164DOPC  H15R19874   0.413   2.570  16.147 -1.1110  1.0973  0.5133
  164DOPC  H15S19875   0.318   2.445  16.245 -0.8656  1.6395  1.5001
  164DOPC  C21619876   0.532   2.418  16.266 -0.2120  0.9403  0.0698
  164DOPC  H16R19877   0.625   2.475  16.285 -0.4472  1.4291 -0.2024
  164DOPC  H16S19878   0.554   2.384  16.162 -1.3063  1.9466 -0.5288
  164DOPC  C21719879   0.516   2.301  16.356 -0.0474  0.0633 -0.0337
  164DOPC  H17R19880   0.462   2.342  16.444  0.7020  2.0948 -0.4767
  164DOPC  H17S19881   0.616   2.263  16.388 -0.2937  1.6194  2.9623
  164DOPC  C21819882   0.429   2.201  16.291  0.4255 -0.1176  0.5782
  164DOPC  H18R19883   0.338   2.245  16.245  1.7039  1.1759 -0.7868
  164DOPC  H18S19884   0.405   2.115  16.358 -0.5085  0.0523  0.4798
  164DOPC  H18T19885   0.496   2.162  16.212  0.8168 -0.8355  1.2457
  164DOPC   C3319886   0.093   1.333  16.464 -0.6793 -0.4606 -0.3651
  164DOPC   H3X19887   0.127   1.435  16.489  0.9510 -1.4228  1.5762
  164DOPC   H3Y19888  -0.016   1.338  16.486 -0.7770  0.8351 -1.0537
  164DOPC   C3419889   0.102   1.284  16.321  0.0548  0.0379 -0.0950
  164DOPC   H4X19890   0.055   1.183  16.310 -1.0295  0.6831 -1.8000
  164DOPC   H4Y19891   0.209   1.276  16.295 -0.1361 -1.1328 -0.5924
  164DOPC   C3519892   0.030   1.378  16.220  0.6794 -0.4926  0.0440
  164DOPC   H5X19893   0.062   1.342  16.120  2.0941  2.2736 -0.6165
  164DOPC   H5Y19894   0.064   1.484  16.226 -2.3084  0.5228  0.8493
  164DOPC   C3619895  -0.121   1.376  16.235  0.3064 -0.4636  0.0768
  164DOPC   H6X19896  -0.164   1.274  16.242  0.1194 -0.4722 -0.9721
  164DOPC   H6Y19897  -0.150   1.428  16.329  0.8528 -0.4252  0.2241
  164DOPC   C3719898  -0.197   1.447  16.124 -0.5382 -0.5943  0.2489
  164DOPC   H7X19899  -0.192   1.558  16.130  4.4989 -0.3573 -2.4901
  164DOPC   H7Y19900  -0.151   1.417  16.027 -1.4512  3.0396 -1.5022
  164DOPC   C3819901  -0.347   1.416  16.108 -0.1250  0.3292  0.2448
  164DOPC   H8X19902  -0.349   1.305  16.111  0.7522  0.3016  0.1380
  164DOPC   H8Y19903  -0.385   1.452  16.010 -0.2132  0.3648  0.2924
  164DOPC   C3919904  -0.424   1.471  16.225  0.3551 -0.1489 -0.1669
  164DOPC   H9X19905  -0.413   1.429  16.326 -0.6654  1.9306  0.8779
  164DOPC  C31019906  -0.527   1.561  16.214 -0.2564  0.1635 -0.6903
  164DOPC  H10X19907  -0.591   1.567  16.302 -1.1357 -2.8441 -1.0097
  164DOPC  C31119908  -0.573   1.629  16.090 -0.5568  0.0440  0.0247
  164DOPC  H11X19909  -0.675   1.594  16.065 -0.4144 -1.6534  1.6174
  164DOPC  H11Y19910  -0.513   1.603  16.000  1.0958  1.6269  0.6113
  164DOPC  C31219911  -0.558   1.780  16.075  0.0932 -0.6330  0.4061
  164DOPC  H12X19912  -0.451   1.809  16.080  0.0254 -0.3656  0.3041
  164DOPC  H12Y19913  -0.601   1.834  16.163  0.5067  0.5526 -0.0958
  164DOPC  C31319914  -0.627   1.824  15.947 -0.5021 -0.3238 -0.0719
  164DOPC  H13X19915  -0.723   1.772  15.928 -0.9475  0.7230 -0.7948
  164DOPC  H13Y19916  -0.664   1.929  15.950 -1.3652 -0.5797 -1.1600
  164DOPC  C31419917  -0.524   1.812  15.835  0.1783 -0.1193 -0.6282
  164DOPC  H14X19918  -0.489   1.708  15.819  0.8072 -0.0748  0.3868
  164DOPC  H14Y19919  -0.434   1.866  15.871  0.3739 -1.5062  1.1034
  164DOPC  C31519920  -0.565   1.873  15.702  0.4115 -1.1858 -0.4313
  164DOPC  H15X19921  -0.587   1.979  15.726  2.0325 -0.7178 -0.9087
  164DOPC  H15Y19922  -0.657   1.830  15.655  0.0399  0.2899 -1.0947
  164DOPC  C31619923  -0.455   1.872  15.597 -0.2734 -0.3493  0.0820
  164DOPC  H16X19924  -0.373   1.939  15.631 -1.4215  1.9422 -1.3767
  164DOPC  H16Y19925  -0.417   1.768  15.597 -0.6513 -0.5073  1.4837
  164DOPC  C31719926  -0.511   1.920  15.463 -0.2205 -0.3930 -0.4282
  164DOPC  H17X19927  -0.602   1.858  15.449  0.7024 -1.9751  0.2868
  164DOPC  H17Y19928  -0.539   2.027  15.464  3.8120  0.8636  1.5032
  164DOPC  C31819929  -0.411   1.901  15.345 -0.4388  0.5052  0.6411
  164DOPC  H18X19930  -0.444   1.817  15.281 -1.4416  1.2543  0.1489
  164DOPC  H18Y19931  -0.440   1.984  15.278 -0.7440 -0.4939 -0.4853
  164DOPC  H18Z19932  -0.303   1.901  15.374 -0.3668  0.7269  0.3788
  165DOPC     N19933   4.403   1.171  17.041  0.7184 -0.1162 -0.1700
  165DOPC   C1219934   4.366   1.311  16.978 -0.1159 -0.2022 -0.1374
  165DOPC  H12A19935   4.428   1.379  17.034 -2.0097  0.1396  1.6671
  165DOPC  H12B19936   4.262   1.329  17.004 -0.0838 -0.9540  0.5955
  165DOPC   C1319937   4.542   1.126  16.998  0.0787 -0.2407  1.1114
  165DOPC  H13A19938   4.608   1.206  17.029 -1.1922  2.4388 -2.4211
  165DOPC  H13B19939   4.570   1.023  17.017 -0.9031 -0.4051  1.7380
  165DOPC  H13C19940   4.550   1.129  16.890 -1.2704  0.9971  1.0071
  165DOPC   C1419941   4.292   1.077  17.004  0.0992  0.2786 -0.4859
  165DOPC  H14A19942   4.312   0.984  17.055 -0.5864 -0.9014 -2.2969
  165DOPC  H14B19943   4.197   1.096  17.053  0.0241 -3.3324  1.0483
  165DOPC  H14C19944   4.289   1.076  16.896  2.1985  0.1484 -0.5883
  165DOPC   C1519945   4.404   1.182  17.189  0.4431 -0.5781  0.1912
  165DOPC  H15A19946   4.312   1.214  17.236  0.4304 -1.0087  0.4673
  165DOPC  H15B19947   4.491   1.235  17.225  0.0983 -0.5302  0.9731
  165DOPC  H15C19948   4.414   1.086  17.237  0.5147 -0.0162  1.3164
  165DOPC   C1119949   4.396   1.334  16.826 -0.2733  0.6254  0.0457
  165DOPC  H11A19950   4.326   1.260  16.782  0.2460 -0.4836  1.0362
  165DOPC  H11B19951   4.358   1.436  16.801  0.2945  0.5995 -1.0118
  165DOPC     P19952   4.636   1.420  16.833 -0.2567  0.2433  0.1179
  165DOPC   O1319953   4.770   1.361  16.833 -0.2219  0.2812 -0.1900
  165DOPC   O1419954   4.592   1.487  16.964  0.0257  0.6639 -0.4866
  165DOPC   O1219955   4.532   1.311  16.790  0.2324  0.2292 -0.1682
  165DOPC   O1119956   4.629   1.534  16.727  0.0570 -0.3184  0.3354
  165DOPC    C119957   4.605   1.498  16.589 -0.0275 -0.1561  0.2655
  165DOPC    HA19958   4.536   1.578  16.553 -0.5915 -0.6373  0.2626
  165DOPC    HB19959   4.561   1.397  16.577 -0.9265  0.1206  1.0895
  165DOPC    C219960   4.734   1.499  16.499  0.1079 -0.0491 -0.2190
  165DOPC    HS19961   4.804   1.568  16.551 -0.2601  0.5557 -0.5105
  165DOPC   O2119962   4.705   1.557  16.365 -0.3350  0.3287  0.3558
  165DOPC   C2119963   4.685   1.683  16.360 -0.0853 -0.4963 -0.7936
  165DOPC   O2219964   4.670   1.752  16.457  0.0453  0.7511 -0.1207
  165DOPC   C2219965   4.670   1.740  16.222 -0.4553 -0.2621  0.0489
  165DOPC   H2R19966   4.658   1.850  16.215 -0.2844 -0.1458  1.3475
  165DOPC   H2S19967   4.574   1.690  16.196  0.1491 -1.7190  0.5420
  165DOPC    C319968   4.813   1.363  16.489  0.2690 -0.4285 -0.0590
  165DOPC    HX19969   4.843   1.333  16.592  2.5931  1.4701 -0.1162
  165DOPC    HY19970   4.904   1.388  16.431  0.6130  0.0093  0.6584
  165DOPC   O3119971   4.738   1.257  16.430 -0.3997  0.5071 -0.2331
  165DOPC   C3119972   4.810   1.145  16.408 -0.5054  0.1966 -0.5835
  165DOPC   O3219973   4.930   1.144  16.414  0.0264  0.9281  0.3330
  165DOPC   C3219974   4.722   1.035  16.355  0.0548 -0.5025 -0.1069
  165DOPC   H2X19975   4.649   1.000  16.430  0.6498  2.2370  1.9128
  165DOPC   H2Y19976   4.674   1.088  16.270  1.7517  0.8319 -0.2879
  165DOPC   C2319977   4.786   1.694  16.125  0.2580 -0.5664  0.1256
  165DOPC   H3R19978   4.755   1.723  16.022 -0.5164 -0.5561  0.3543
  165DOPC   H3S19979   4.776   1.584  16.127  2.2097 -0.8110 -0.9351
  165DOPC   C2419980   4.928   1.750  16.151 -0.0649 -0.7006  0.2181
  165DOPC   H4R19981   4.997   1.712  16.073 -0.3448  0.6894 -0.7432
  165DOPC   H4S19982   4.958   1.705  16.248 -2.3663 -1.4879  0.6374
  165DOPC   C2519983   4.928   1.903  16.173 -0.2587 -0.4304  0.1421
  165DOPC   H5R19984   4.859   1.936  16.254 -0.7345 -0.8814 -0.0745
  165DOPC   H5S19985   4.888   1.951  16.081  1.9380 -0.5464 -0.9285
  165DOPC   C2619986   5.063   1.962  16.202  0.1220  0.4294 -0.1924
  165DOPC   H6R19987   5.100   1.921  16.299 -1.6771 -3.1525 -0.8900
  165DOPC   H6S19988   5.059   2.073  16.201  2.7516  0.5898 -1.6642
  165DOPC   C2719989   5.176   1.919  16.104  0.5574 -0.1219  0.2678
  165DOPC   H7R19990   5.188   1.811  16.125  2.0613  0.0357  0.3780
  165DOPC   H7S19991   5.269   1.967  16.142  0.6024  0.1941 -0.2302
  165DOPC   C2819992   5.151   1.940  15.952 -0.2121  0.0870  0.5412
  165DOPC   H8R19993   5.147   2.049  15.931 -0.4703  0.0364  0.3172
  165DOPC   H8S19994   5.055   1.890  15.926  0.7406 -1.0911 -0.8066
  165DOPC   C2919995   5.270   1.873  15.885  1.1164  0.1865  0.0177
  165DOPC   H9R19996   5.364   1.928  15.895  1.9396 -0.9603 -1.1114
  165DOPC  C21019997   5.262   1.757  15.826 -0.4401 -0.3120  0.3347
  165DOPC  H10R19998   5.351   1.726  15.770 -1.0353 -0.6025 -0.4863
  165DOPC  C21119999   5.143   1.668  15.801 -0.1356 -0.5590  1.1652
  165DOPC  H11R20000   5.046   1.717  15.821 -0.4214 -0.7974  0.4005
  165DOPC  H11S20001   5.153   1.583  15.872 -1.3080 -0.4161  1.5210
  165DOPC  C21220002   5.141   1.570  15.676 -0.5463  1.0554 -0.0202
  165DOPC  H12R20003   5.070   1.486  15.689 -1.3437  1.5852 -0.8521
  165DOPC  H12S20004   5.245   1.530  15.677 -0.3529  1.5506  0.6387
  165DOPC  C21320005   5.124   1.644  15.541 -0.0943 -0.0437 -0.2701
  165DOPC  H13R20006   5.197   1.728  15.532 -1.7588  1.4094 -0.7446
  165DOPC  H13S20007   5.025   1.693  15.533 -1.4602 -2.7111 -0.4307
  165DOPC  C21420008   5.150   1.567  15.411  0.0229 -0.0322  0.8084
  165DOPC  H14R20009   5.125   1.625  15.320 -1.8104 -2.4413 -0.3447
  165DOPC  H14S20010   5.079   1.482  15.413  0.9878 -0.8957 -0.4664
  165DOPC  C21520011   5.293   1.506  15.399 -0.0175  0.1982  0.3721
  165DOPC  H15R20012   5.316   1.432  15.479  2.9185 -0.0588 -0.5562
  165DOPC  H15S20013   5.369   1.587  15.404  2.7600 -2.2284  0.8897
  165DOPC  C21620014   5.337   1.443  15.264  1.6072  0.4782  0.1381
  165DOPC  H16R20015   5.268   1.359  15.243 -0.1677  2.6478 -3.8010
  165DOPC  H16S20016   5.437   1.397  15.276  0.9514 -0.9213  0.4460
  165DOPC  C21720017   5.324   1.530  15.140 -0.0776  0.2991 -0.1537
  165DOPC  H17R20018   5.381   1.624  15.157  1.1196 -0.1363 -1.5319
  165DOPC  H17S20019   5.215   1.553  15.140 -0.4922 -1.4917  1.0449
  165DOPC  C21820020   5.362   1.476  15.003 -0.2257  0.1487 -0.2593
  165DOPC  H18R20021   5.289   1.528  14.937 -0.9381  2.4332  2.1462
  165DOPC  H18S20022   5.356   1.366  14.991  0.0568 -0.2883  2.8146
  165DOPC  H18T20023   5.464   1.496  14.966  0.8977  0.1389  2.5749
  165DOPC   C3320024   4.803   0.913  16.313  0.1243  0.2058 -0.1182
  165DOPC   H3X20025   4.864   0.868  16.394 -0.2570 -0.5869 -0.2596
  165DOPC   H3Y20026   4.872   0.935  16.228 -0.0884  2.2391  0.2000
  165DOPC   C3420027   4.709   0.799  16.270  1.1553  0.0669 -0.5026
  165DOPC   H4X20028   4.746   0.728  16.193  1.4715  0.6405 -0.8823
  165DOPC   H4Y20029   4.621   0.844  16.220 -0.3708 -1.0297  1.0677
  165DOPC   C3520030   4.655   0.723  16.395  0.2921  0.3057  0.5739
  165DOPC   H5X20031   4.603   0.788  16.468  1.3315  0.7834  0.8949
  165DOPC   H5Y20032   4.738   0.669  16.444  0.4363 -0.3555 -0.3613
  165DOPC   C3620033   4.545   0.616  16.354  0.1404 -0.3277 -0.6450
  165DOPC   H6X20034   4.451   0.668  16.329 -0.5557 -1.1724  0.1354
  165DOPC   H6Y20035   4.576   0.564  16.260 -2.8157 -1.2786 -1.1871
  165DOPC   C3720036   4.496   0.520  16.464  0.6265 -0.3273 -0.2163
  165DOPC   H7X20037   4.453   0.585  16.543  0.7070 -0.3282 -0.1737
  165DOPC   H7Y20038   4.574   0.452  16.504  0.4903 -1.3353 -1.6064
  165DOPC   C3820039   4.385   0.427  16.415  0.4279  0.1703 -0.5315
  165DOPC   H8X20040   4.312   0.482  16.351  0.1381  1.3300  0.7422
  165DOPC   H8Y20041   4.320   0.389  16.496 -0.4345 -2.3597 -2.2959
  165DOPC   C3920042   4.447   0.309  16.338  0.0569  0.7190  0.0586
  165DOPC   H9X20043   4.557   0.303  16.348  0.2142  1.1586 -1.2193
  165DOPC  C31020044   4.388   0.233  16.247  0.1771 -0.0304  0.2715
  165DOPC  H10X20045   4.442   0.144  16.210 -0.6682 -0.4186 -0.0666
  165DOPC  C31120046   4.246   0.251  16.197 -0.2370 -0.4162 -0.4642
  165DOPC  H11X20047   4.199   0.348  16.224  1.6217  0.0318  1.3964
  165DOPC  H11Y20048   4.182   0.169  16.237 -0.1778 -0.7361 -1.0157
  165DOPC  C31220049   4.250   0.248  16.040 -0.2090  0.2203  0.2598
  165DOPC  H12X20050   4.147   0.220  16.008 -0.4157  1.6558 -0.3598
  165DOPC  H12Y20051   4.315   0.168  15.998  0.0959  2.0986 -3.1719
  165DOPC  C31320052   4.288   0.378  15.977 -0.0025  0.0559 -0.4033
  165DOPC  H13X20053   4.242   0.459  16.037 -1.8486  0.6115 -2.4319
  165DOPC  H13Y20054   4.398   0.393  15.972  0.0051  1.1856  1.7974
  165DOPC  C31420055   4.239   0.386  15.834 -1.0703  0.2028  0.4607
  165DOPC  H14X20056   4.144   0.330  15.824 -0.1304 -1.3233 -0.2612
  165DOPC  H14Y20057   4.216   0.493  15.816  0.9014  0.9784  2.1552
  165DOPC  C31520058   4.344   0.327  15.734 -0.6502 -0.0960 -0.3223
  165DOPC  H15X20059   4.372   0.223  15.760  0.4470  0.5647  1.3203
  165DOPC  H15Y20060   4.439   0.385  15.739 -0.4396 -0.2799 -1.6629
  165DOPC  C31620061   4.290   0.336  15.586 -0.2106 -1.0996 -0.9774
  165DOPC  H16X20062   4.224   0.246  15.576 -1.2087 -0.3515 -1.3277
  165DOPC  H16Y20063   4.243   0.434  15.564 -0.3456 -0.7851  0.5882
  165DOPC  C31720064   4.392   0.295  15.471  0.2293  0.1260 -0.6425
  165DOPC  H17X20065   4.356   0.318  15.368  1.4079  0.6306 -0.9592
  165DOPC  H17Y20066   4.489   0.346  15.483  0.2987 -0.3845  1.2668
  165DOPC  C31820067   4.414   0.142  15.466 -0.5213  0.2572  0.0036
  165DOPC  H18X20068   4.479   0.104  15.384  0.8648 -2.2008  2.0977
  165DOPC  H18Y20069   4.463   0.097  15.555 -1.7456  1.6361  1.4187
  165DOPC  H18Z20070   4.319   0.088  15.447 -0.4153  0.2538 -0.5280
  166DOPC     N20071   6.347   3.869  17.279 -0.0481 -0.3967 -0.5947
  166DOPC   C1220072   6.458   3.888  17.382  0.1633  0.0824 -0.3367
  166DOPC  H12A20073   6.498   3.792  17.410  1.3849  1.2610  2.2099
  166DOPC  H12B20074   6.420   3.936  17.471  2.2017 -2.0969  1.8210
  166DOPC   C1320075   6.403   3.822  17.153  0.0564  0.8958  0.2040
  166DOPC  H13A20076   6.468   3.901  17.117  2.2530 -1.3364 -0.9753
  166DOPC  H13B20077   6.466   3.735  17.164 -3.0986 -1.9053 -1.8458
  166DOPC  H13C20078   6.324   3.806  17.080  0.3550  0.4142 -0.0207
  166DOPC   C1420079   6.271   3.995  17.258  0.7736 -0.3958 -0.7456
  166DOPC  H14A20080   6.242   4.036  17.353 -1.3529  0.3254 -1.6574
  166DOPC  H14B20081   6.336   4.072  17.218 -0.1179  0.4620 -0.5795
  166DOPC  H14C20082   6.183   3.989  17.195 -0.2641  1.2091  0.4942
  166DOPC   C1520083   6.237   3.778  17.331 -0.2462 -0.6745  0.4758
  166DOPC  H15A20084   6.261   3.673  17.339 -1.7735 -1.0876 -0.0342
  166DOPC  H15B20085   6.168   3.773  17.248  2.3708 -1.4853 -1.8264
  166DOPC  H15C20086   6.182   3.812  17.417 -1.0301 -0.1478 -0.2157
  166DOPC   C1120087   6.578   3.972  17.341  0.3365 -0.6347 -0.0772
  166DOPC  H11A20088   6.640   3.968  17.433  1.6600 -0.4850 -0.9407
  166DOPC  H11B20089   6.631   3.931  17.252  1.0026 -1.2500  0.5894
  166DOPC     P20090   6.632   4.217  17.306 -0.0360  0.1128  0.1934
  166DOPC   O1320091   6.747   4.203  17.401  0.0531  0.4149 -0.6494
  166DOPC   O1420092   6.565   4.347  17.322  0.5319 -0.2775 -0.6959
  166DOPC   O1220093   6.531   4.102  17.320  0.2096 -0.0074 -0.0701
  166DOPC   O1120094   6.679   4.195  17.151  0.1306  0.6904  0.4044
  166DOPC    C120095   6.572   4.238  17.062 -0.5552  0.4852 -0.0737
  166DOPC    HA20096   6.557   4.347  17.078  0.4589  0.3400  2.2951
  166DOPC    HB20097   6.478   4.184  17.085 -0.5086 -0.0319 -1.0478
  166DOPC    C220098   6.598   4.189  16.911  0.0053  0.1976 -0.0555
  166DOPC    HS20099   6.633   4.086  16.931  0.4939 -0.0054 -1.8238
  166DOPC   O2120100   6.692   4.268  16.837 -0.2675  0.9138 -0.5058
  166DOPC   C2120101   6.769   4.191  16.762  0.3656  0.1886 -0.2768
  166DOPC   O2220102   6.764   4.070  16.744  0.5483  0.0932 -0.3327
  166DOPC   C2220103   6.887   4.276  16.711  0.4055 -0.1161 -0.2565
  166DOPC   H2R20104   6.971   4.252  16.780  2.8138  1.1374 -2.5272
  166DOPC   H2S20105   6.867   4.384  16.724  0.5501 -0.4030  2.9678
  166DOPC    C320106   6.465   4.200  16.844  0.3738 -0.0035  0.0649
  166DOPC    HX20107   6.426   4.304  16.851  0.4324 -0.0719  1.9587
  166DOPC    HY20108   6.385   4.135  16.885  0.9021 -1.2229 -0.7999
  166DOPC   O3120109   6.475   4.160  16.707 -0.9362 -0.2633 -0.1381
  166DOPC   C3120110   6.456   4.031  16.686 -0.0765 -0.3431  0.7257
  166DOPC   O3220111   6.418   3.950  16.768  0.2243 -0.1476 -0.4553
  166DOPC   C3220112   6.479   3.996  16.544 -0.1045 -0.5420  0.2136
  166DOPC   H2X20113   6.404   4.046  16.479  1.6256  1.0983 -0.6014
  166DOPC   H2Y20114   6.576   4.036  16.507 -0.3166  0.0809  0.3199
  166DOPC   C2320115   6.927   4.250  16.567  0.0835  0.6755 -0.7781
  166DOPC   H3R20116   6.937   4.141  16.547 -2.7425  0.4010 -1.1701
  166DOPC   H3S20117   7.019   4.311  16.556 -0.2916  1.9787  2.3686
  166DOPC   C2420118   6.818   4.303  16.470  0.6208 -0.4534 -0.1391
  166DOPC   H4R20119   6.834   4.412  16.462 -0.5243 -0.2867 -0.4101
  166DOPC   H4S20120   6.724   4.294  16.529  0.4120 -1.9411 -0.6332
  166DOPC   C2520121   6.805   4.219  16.341  0.3888 -0.4369  0.1849
  166DOPC   H5R20122   6.828   4.112  16.362  2.3834  0.3770  2.7494
  166DOPC   H5S20123   6.883   4.250  16.268 -0.9701  0.5343 -0.9162
  166DOPC   C2620124   6.675   4.247  16.268  0.1157 -0.3390 -0.3045
  166DOPC   H6R20125   6.654   4.355  16.250  0.2918 -0.1411  0.6237
  166DOPC   H6S20126   6.596   4.222  16.342 -0.2449  2.4866  0.3828
  166DOPC   C2720127   6.657   4.176  16.132 -0.6059 -0.0149 -0.0981
  166DOPC   H7R20128   6.668   4.065  16.134 -0.9125 -0.0537  2.4233
  166DOPC   H7S20129   6.723   4.218  16.053 -0.3024 -3.1502 -1.7151
  166DOPC   C2820130   6.516   4.212  16.071  0.7663 -0.0388 -0.3531
  166DOPC   H8R20131   6.508   4.143  15.984  2.5341  1.7714 -2.0513
  166DOPC   H8S20132   6.514   4.316  16.032 -2.8164 -0.0680 -0.5238
  166DOPC   C2920133   6.400   4.180  16.167 -1.0982 -0.9838  0.7958
  166DOPC   H9R20134   6.431   4.113  16.248  2.3129 -0.0036  0.4564
  166DOPC  C21020135   6.271   4.212  16.145 -0.2701  0.2773 -0.9722
  166DOPC  H10R20136   6.203   4.193  16.230 -1.2299 -0.0278 -1.7884
  166DOPC  C21120137   6.206   4.275  16.027  0.3768 -0.6419  0.6252
  166DOPC  H11R20138   6.272   4.264  15.938  0.0616  0.0763  0.2907
  166DOPC  H11S20139   6.210   4.384  16.052  0.6377 -1.1499  3.0554
  166DOPC  C21220140   6.075   4.215  15.988  0.0542  0.4476  0.2386
  166DOPC  H12R20141   6.080   4.105  16.001  0.5140  0.5059  0.6074
  166DOPC  H12S20142   6.054   4.219  15.879  1.2226 -0.6013 -0.0533
  166DOPC  C21320143   5.968   4.276  16.072 -0.0037  0.1675 -0.0460
  166DOPC  H13R20144   5.965   4.387  16.064 -2.9854  0.0892 -1.2425
  166DOPC  H13S20145   5.980   4.252  16.180  0.8849 -1.5697 -0.4916
  166DOPC  C21420146   5.833   4.224  16.028 -0.5198  0.3755  0.0180
  166DOPC  H14R20147   5.820   4.264  15.925 -0.2365  2.0120  0.5772
  166DOPC  H14S20148   5.744   4.264  16.082 -1.1547 -2.8943  1.6044
  166DOPC  C21520149   5.829   4.075  16.022  0.2979  0.2543 -0.0597
  166DOPC  H15R20150   5.880   4.028  16.109  0.5464 -0.1280 -0.4046
  166DOPC  H15S20151   5.891   4.034  15.939  2.0164 -1.5419  1.9895
  166DOPC  C21620152   5.686   4.015  15.991  0.2668  0.5140  0.2082
  166DOPC  H16R20153   5.661   4.048  15.888 -2.4736 -0.0771  0.6101
  166DOPC  H16S20154   5.620   4.064  16.065 -2.9825 -2.4610 -0.4476
  166DOPC  C21720155   5.683   3.861  16.002  0.1969 -0.5465  0.2137
  166DOPC  H17R20156   5.579   3.823  16.012 -0.6948  1.4210 -1.0011
  166DOPC  H17S20157   5.744   3.829  16.089  0.2144 -0.8114  0.1083
  166DOPC  C21820158   5.763   3.788  15.892  0.1910  0.6200  0.0783
  166DOPC  H18R20159   5.866   3.828  15.884  1.1492 -2.1255 -3.4844
  166DOPC  H18S20160   5.701   3.798  15.800  1.3128 -0.5732 -0.8375
  166DOPC  H18T20161   5.776   3.682  15.922 -1.4618  0.0410 -1.1041
  166DOPC   C3320162   6.486   3.841  16.512  0.1104 -0.1515 -0.0147
  166DOPC   H3X20163   6.381   3.805  16.513 -0.2318  0.8187  0.8342
  166DOPC   H3Y20164   6.543   3.788  16.592 -2.6915 -2.2158  0.7452
  166DOPC   C3420165   6.552   3.817  16.375 -0.4332  0.7432  0.2017
  166DOPC   H4X20166   6.645   3.879  16.376  0.2273 -0.1912 -0.8841
  166DOPC   H4Y20167   6.486   3.850  16.292 -0.2880  2.3041  0.6645
  166DOPC   C3520168   6.599   3.665  16.356 -0.2738 -0.7927  0.1212
  166DOPC   H5X20169   6.529   3.587  16.393 -0.1816 -1.9048 -1.8963
  166DOPC   H5Y20170   6.689   3.638  16.414 -0.7953 -1.1609  0.7696
  166DOPC   C3620171   6.629   3.633  16.209 -0.3730 -0.2125  0.2711
  166DOPC   H6X20172   6.529   3.622  16.162  1.0816 -0.8457 -2.8686
  166DOPC   H6Y20173   6.679   3.708  16.145  0.0199 -0.2548  0.5218
  166DOPC   C3720174   6.699   3.504  16.179 -0.1527  0.3541  0.0220
  166DOPC   H7X20175   6.693   3.429  16.260  1.5295 -1.6043 -1.5566
  166DOPC   H7Y20176   6.654   3.455  16.090  2.1664  1.0781 -1.6858
  166DOPC   C3820177   6.851   3.524  16.135  0.2921 -0.5350  0.1943
  166DOPC   H8X20178   6.847   3.598  16.053  3.7481 -0.2004  0.1884
  166DOPC   H8Y20179   6.879   3.426  16.092 -0.2909 -0.7582  0.3104
  166DOPC   C3920180   6.957   3.559  16.235  0.1492 -0.2211  0.9561
  166DOPC   H9X20181   6.984   3.470  16.295 -0.0862 -0.8784  0.1079
  166DOPC  C31020182   7.014   3.681  16.257 -0.6400 -0.1170 -0.8979
  166DOPC  H10X20183   7.083   3.694  16.342 -1.5106  0.6593 -0.2763
  166DOPC  C31120184   6.975   3.795  16.171  0.7002 -0.1980  0.0452
  166DOPC  H11X20185   6.948   3.884  16.231 -0.8235 -0.9846  0.5654
  166DOPC  H11Y20186   6.882   3.782  16.112  2.0433  0.7330 -2.4784
  166DOPC  C31220187   7.084   3.842  16.063  0.0669 -0.7621 -0.9715
  166DOPC  H12X20188   7.037   3.908  15.987 -2.0830 -0.8860  0.1731
  166DOPC  H12Y20189   7.117   3.752  16.008  2.2418  0.2550 -1.4659
  166DOPC  C31320190   7.209   3.897  16.123  0.2549  0.5865 -0.7899
  166DOPC  H13X20191   7.253   3.819  16.189  1.7791  0.8265 -1.4832
  166DOPC  H13Y20192   7.273   3.904  16.033 -1.0125  1.6957 -1.6396
  166DOPC  C31420193   7.189   4.029  16.199 -0.4465  0.6397  0.8168
  166DOPC  H14X20194   7.154   4.108  16.129  0.0630 -0.0526 -0.2411
  166DOPC  H14Y20195   7.115   4.012  16.280 -1.1169  0.0547  0.1025
  166DOPC  C31520196   7.322   4.077  16.260 -0.2919 -0.4222 -0.7130
  166DOPC  H15X20197   7.398   4.102  16.183 -0.4680  0.9835 -0.4484
  166DOPC  H15Y20198   7.353   3.981  16.306 -1.5080 -1.8105 -2.6366
  166DOPC  C31620199   7.306   4.188  16.364  0.4456  0.6169 -0.2343
  166DOPC  H16X20200   7.228   4.262  16.337  0.3299  1.5128  2.2726
  166DOPC  H16Y20201   7.251   4.140  16.448 -0.5689 -2.7173 -2.5784
  166DOPC  C31720202   7.438   4.242  16.419 -0.8156  0.0360 -0.8069
  166DOPC  H17X20203   7.431   4.277  16.524 -0.7110  0.7253 -1.0290
  166DOPC  H17Y20204   7.518   4.165  16.410 -0.1338  0.3423  1.7893
  166DOPC  C31820205   7.477   4.367  16.344  0.6722  0.0432 -1.1751
  166DOPC  H18X20206   7.394   4.437  16.318  0.3838 -0.0232 -0.4503
  166DOPC  H18Y20207   7.552   4.423  16.403 -0.0357 -1.0266  0.8374
  166DOPC  H18Z20208   7.511   4.324  16.247 -2.4683 -3.4263 -0.9587
  167DOPC     N20209   5.438   2.534  16.748  0.3196 -0.4315 -0.3133
  167DOPC   C1220210   5.519   2.656  16.791 -0.0624 -0.1381 -0.4650
  167DOPC  H12A20211   5.479   2.680  16.888 -0.8140  0.1549 -0.8344
  167DOPC  H12B20212   5.489   2.738  16.726  2.5303 -0.3564 -2.0622
  167DOPC   C1320213   5.485   2.502  16.605 -0.5177  0.0053 -0.0558
  167DOPC  H13A20214   5.593   2.490  16.602 -0.6320 -0.9195 -0.8296
  167DOPC  H13B20215   5.442   2.413  16.562 -0.9611  0.3586 -0.3382
  167DOPC  H13C20216   5.471   2.593  16.548  3.2052  0.8194  0.0574
  167DOPC   C1420217   5.288   2.549  16.760  0.2892 -0.0387 -0.7206
  167DOPC  H14A20218   5.248   2.600  16.674  0.6842 -1.0818 -1.5546
  167DOPC  H14B20219   5.239   2.454  16.746 -0.7258  0.7346 -2.7769
  167DOPC  H14C20220   5.256   2.595  16.852  1.2558  1.3295 -1.0355
  167DOPC   C1520221   5.480   2.419  16.833  0.5681 -0.1808 -0.6336
  167DOPC  H15A20222   5.588   2.417  16.830  0.6152  1.7918 -2.3732
  167DOPC  H15B20223   5.455   2.325  16.787  0.8493 -1.1006  1.0211
  167DOPC  H15C20224   5.458   2.429  16.938  1.3225  1.3313 -0.5866
  167DOPC   C1120225   5.673   2.644  16.804 -1.2625  0.0390  0.3096
  167DOPC  H11A20226   5.719   2.736  16.847 -1.1284  0.3940 -0.5722
  167DOPC  H11B20227   5.698   2.570  16.884  3.1793 -0.2457 -1.0373
  167DOPC     P20228   5.864   2.533  16.656  0.2522 -0.5475 -0.0003
  167DOPC   O1320229   5.868   2.406  16.734  0.1104 -0.0721 -0.0406
  167DOPC   O1420230   5.973   2.625  16.681  0.6207 -0.7807 -0.3034
  167DOPC   O1220231   5.734   2.615  16.680 -0.2796 -0.1972 -0.3797
  167DOPC   O1120232   5.846   2.498  16.505 -0.1801  0.2260 -0.4604
  167DOPC    C120233   5.802   2.598  16.412 -0.5569  0.4181  0.3946
  167DOPC    HA20234   5.864   2.689  16.428 -2.2813  1.5261  1.0149
  167DOPC    HB20235   5.697   2.625  16.435 -0.8909 -1.8573  1.9506
  167DOPC    C220236   5.800   2.549  16.264 -0.2944 -0.5398 -0.4201
  167DOPC    HS20237   5.749   2.621  16.196 -1.5543 -1.2842 -0.2804
  167DOPC   O2120238   5.753   2.412  16.244  0.0749  0.6761  0.9244
  167DOPC   C2120239   5.616   2.412  16.223 -0.7171 -0.4340 -0.1632
  167DOPC   O2220240   5.542   2.510  16.239  0.0733  0.3206 -0.6835
  167DOPC   C2220241   5.586   2.281  16.152 -0.3236 -0.2209 -0.3605
  167DOPC   H2R20242   5.588   2.197  16.225  1.6778  0.8953  0.9552
  167DOPC   H2S20243   5.667   2.271  16.076  0.3250 -2.0605  0.5179
  167DOPC    C320244   5.946   2.546  16.216 -0.3597  0.0404  0.1800
  167DOPC    HX20245   6.002   2.482  16.288 -0.0835  1.2268  1.0438
  167DOPC    HY20246   5.986   2.648  16.232  2.9070 -1.4980  3.1725
  167DOPC   O3120247   5.952   2.499  16.077  0.1563  0.1327  0.3372
  167DOPC   C3120248   6.015   2.380  16.054 -0.5972 -0.6788  0.3652
  167DOPC   O3220249   6.054   2.303  16.142  0.1772 -0.2667  0.3276
  167DOPC   C3220250   6.027   2.366  15.908  0.2315  0.0022 -0.2870
  167DOPC   H2X20251   5.929   2.394  15.864 -0.6444 -0.7915  1.0815
  167DOPC   H2Y20252   6.103   2.438  15.871 -1.1680  0.8649 -1.6194
  167DOPC   C2320253   5.455   2.277  16.062 -0.4792 -0.5254 -0.3653
  167DOPC   H3R20254   5.434   2.381  16.031  0.0571 -0.1528  0.5005
  167DOPC   H3S20255   5.369   2.245  16.126 -1.1612  2.0380  0.1178
  167DOPC   C2420256   5.454   2.177  15.943  0.2154  0.6902  0.0091
  167DOPC   H4R20257   5.351   2.169  15.903 -0.4616 -2.8485  2.0062
  167DOPC   H4S20258   5.495   2.075  15.962  0.4591  0.6779 -0.5512
  167DOPC   C2520259   5.555   2.208  15.824 -0.0436 -0.0193 -0.1952
  167DOPC   H5R20260   5.530   2.129  15.750  2.3314  0.0287 -1.1161
  167DOPC   H5S20261   5.657   2.180  15.857 -1.0858 -0.9601  2.5845
  167DOPC   C2620262   5.544   2.350  15.777 -0.5671  0.3797 -0.4311
  167DOPC   H6R20263   5.591   2.418  15.851 -0.8574 -1.9741  2.1328
  167DOPC   H6S20264   5.433   2.358  15.785 -0.9142 -2.9784 -0.2181
  167DOPC   C2720265   5.593   2.376  15.634 -0.0986 -0.3727 -0.4591
  167DOPC   H7R20266   5.540   2.470  15.610 -1.7216 -0.9755  0.5741
  167DOPC   H7S20267   5.544   2.302  15.567 -1.1592 -0.0739 -0.0330
  167DOPC   C2820268   5.741   2.397  15.617  0.2791 -0.1524  0.7634
  167DOPC   H8R20269   5.799   2.304  15.636 -1.6941 -1.6472 -0.1975
  167DOPC   H8S20270   5.770   2.460  15.704 -0.8332  0.3880  0.7574
  167DOPC   C2920271   5.774   2.459  15.476  0.4567 -0.5511  0.2530
  167DOPC   H9R20272   5.705   2.426  15.396 -0.3722  0.3675  0.5836
  167DOPC  C21020273   5.880   2.546  15.451  0.0262 -0.4453  0.6772
  167DOPC  H10R20274   5.899   2.588  15.351 -0.5208  1.2521  1.2481
  167DOPC  C21120275   5.980   2.596  15.554  0.5410  0.1656  0.1494
  167DOPC  H11R20276   5.935   2.595  15.656 -2.2897 -0.7978 -1.0109
  167DOPC  H11S20277   5.994   2.704  15.532 -1.2701  0.0246 -2.0064
  167DOPC  C21220278   6.115   2.518  15.553 -0.4923 -0.6676 -0.2309
  167DOPC  H12R20279   6.095   2.411  15.574  0.0546 -1.0126 -1.3618
  167DOPC  H12S20280   6.152   2.522  15.448  0.4736 -0.6406  0.0997
  167DOPC  C21320281   6.211   2.586  15.648 -0.8421  0.3935 -0.1078
  167DOPC  H13R20282   6.164   2.617  15.744  2.6452 -1.5909  2.4742
  167DOPC  H13S20283   6.259   2.678  15.609  0.1023  0.0392  0.1991
  167DOPC  C21420284   6.321   2.496  15.701  0.6448  0.6197 -0.3849
  167DOPC  H14R20285   6.383   2.459  15.616 -1.5752  0.5289 -2.0446
  167DOPC  H14S20286   6.273   2.406  15.745 -0.1890  1.1567 -0.1815
  167DOPC  C21520287   6.413   2.565  15.806 -0.1914  0.2110 -0.4243
  167DOPC  H15R20288   6.372   2.576  15.909 -1.5905 -1.0582 -0.8162
  167DOPC  H15S20289   6.435   2.666  15.766  0.6227  0.2534  0.0822
  167DOPC  C21620290   6.552   2.495  15.824  0.4780 -0.5751  0.1599
  167DOPC  H16R20291   6.598   2.521  15.727 -1.8310 -0.3187 -0.9156
  167DOPC  H16S20292   6.527   2.386  15.822  0.8642 -0.6571 -0.9885
  167DOPC  C21720293   6.641   2.529  15.949  0.3346  0.5838  0.7364
  167DOPC  H17R20294   6.721   2.454  15.968  0.4126  0.5464  0.2652
  167DOPC  H17S20295   6.575   2.522  16.038 -0.9821 -1.9873 -0.3339
  167DOPC  C21820296   6.710   2.668  15.943  0.5445 -0.0014  0.6236
  167DOPC  H18R20297   6.806   2.666  15.887  0.2544 -0.8752  0.1241
  167DOPC  H18S20298   6.730   2.700  16.047 -1.8992 -1.8477  1.7705
  167DOPC  H18T20299   6.638   2.738  15.895  2.2186  2.0473  0.9690
  167DOPC   C3320300   6.063   2.221  15.869 -0.3536 -0.3048 -1.1291
  167DOPC   H3X20301   6.151   2.192  15.930 -1.7441 -0.8567  0.7008
  167DOPC   H3Y20302   6.100   2.216  15.764 -0.3765 -1.9720 -1.0913
  167DOPC   C3420303   5.954   2.112  15.882 -0.1818  0.1066  0.3036
  167DOPC   H4X20304   5.869   2.136  15.814  0.0656  1.4683  0.4410
  167DOPC   H4Y20305   5.916   2.113  15.986 -0.4657 -1.3173  0.2268
  167DOPC   C3520306   5.997   1.970  15.866 -0.5338  0.4073 -0.1687
  167DOPC   H5X20307   6.078   1.953  15.940  0.7437  0.0791 -1.6028
  167DOPC   H5Y20308   6.033   1.963  15.761 -1.7546  0.9442 -0.6418
  167DOPC   C3620309   5.887   1.865  15.892  0.2605 -0.2224  0.0304
  167DOPC   H6X20310   5.919   1.759  15.898  0.6252 -0.0902  0.4697
  167DOPC   H6Y20311   5.831   1.888  15.985  0.0020  0.0916 -0.1999
  167DOPC   C3720312   5.793   1.867  15.769  0.4702 -0.2378  0.5624
  167DOPC   H7X20313   5.774   1.967  15.726  0.4686 -1.2974 -2.0907
  167DOPC   H7Y20314   5.844   1.813  15.686 -0.7065 -1.0057  0.3262
  167DOPC   C3820315   5.649   1.808  15.804 -0.0189  0.5764 -0.4793
  167DOPC   H8X20316   5.598   1.797  15.706 -0.0399  1.9160 -0.6345
  167DOPC   H8Y20317   5.604   1.888  15.867  3.1953  0.9438  1.5656
  167DOPC   C3920318   5.645   1.667  15.860 -0.1502  0.6610  0.0442
  167DOPC   H9X20319   5.683   1.655  15.963 -0.4266 -0.0425  0.0715
  167DOPC  C31020320   5.626   1.554  15.794  0.2302  0.9737 -0.1325
  167DOPC  H10X20321   5.644   1.461  15.851  1.5289  1.5083  0.3621
  167DOPC  C31120322   5.601   1.537  15.648  0.5398  0.6228  0.5311
  167DOPC  H11X20323   5.595   1.632  15.590  0.9783 -0.8975 -2.2071
  167DOPC  H11Y20324   5.498   1.494  15.642  0.6384  0.0821  2.3203
  167DOPC  C31220325   5.676   1.436  15.563 -0.8169  0.0538 -0.0284
  167DOPC  H12X20326   5.667   1.449  15.453 -1.3006  1.5607  0.1659
  167DOPC  H12Y20327   5.624   1.340  15.583  1.9405 -1.5297  0.0899
  167DOPC  C31320328   5.816   1.407  15.605  0.2414  0.4432 -0.3369
  167DOPC  H13X20329   5.878   1.497  15.624  3.4132 -1.2546 -1.8060
  167DOPC  H13Y20330   5.809   1.339  15.693 -2.2333 -0.9780 -1.5120
  167DOPC  C31420331   5.886   1.328  15.496 -0.4422 -0.2341  0.0252
  167DOPC  H14X20332   5.990   1.303  15.528 -0.6957  0.4095  1.4494
  167DOPC  H14Y20333   5.846   1.225  15.485  0.8456 -0.5962 -1.6201
  167DOPC  C31520334   5.900   1.404  15.372 -0.2258  0.4703  0.1401
  167DOPC  H15X20335   5.931   1.507  15.398 -0.2190  0.4989  0.0221
  167DOPC  H15Y20336   5.804   1.418  15.317 -0.2646  1.1272  0.3671
  167DOPC  C31620337   6.005   1.352  15.273 -0.0277 -0.6884  0.3250
  167DOPC  H16X20338   6.099   1.334  15.330 -0.4942 -0.6272  1.1174
  167DOPC  H16Y20339   5.975   1.254  15.230  2.5149 -1.7869  0.8485
  167DOPC  C31720340   6.032   1.449  15.159 -0.1240  0.3460 -0.3418
  167DOPC  H17X20341   5.944   1.456  15.091  0.1879 -0.5956 -0.8666
  167DOPC  H17Y20342   6.053   1.553  15.193  1.0856 -0.7509  2.5628
  167DOPC  C31820343   6.147   1.402  15.069 -0.6516  0.1645  0.2926
  167DOPC  H18X20344   6.173   1.459  14.978 -1.1270  0.2638  0.2127
  167DOPC  H18Y20345   6.242   1.411  15.125 -1.1601  1.9893  0.9375
  167DOPC  H18Z20346   6.119   1.299  15.037 -0.9131  0.5360 -0.7337
  168DOPC     N20347   0.608   8.391  17.158 -0.5086 -0.2972 -0.7447
  168DOPC   C1220348   0.527   8.481  17.069 -0.1924 -0.1696 -0.5888
  168DOPC  H12A20349   0.487   8.557  17.134 -1.0835 -2.0622  1.2214
  168DOPC  H12B20350   0.447   8.428  17.019  0.2907 -2.0272  0.5074
  168DOPC   C1320351   0.702   8.488  17.228  0.0751 -0.3610 -0.2166
  168DOPC  H13A20352   0.659   8.553  17.303  1.2755 -0.8726  0.9728
  168DOPC  H13B20353   0.776   8.442  17.292  0.1697  1.5132  1.1318
  168DOPC  H13C20354   0.755   8.553  17.160 -1.6496  1.6867  0.2685
  168DOPC   C1420355   0.686   8.290  17.088 -0.5076 -0.1611  0.2986
  168DOPC  H14A20356   0.621   8.212  17.051  0.2540  0.0935 -1.7218
  168DOPC  H14B20357   0.737   8.323  16.999 -0.4527 -0.8419  0.0708
  168DOPC  H14C20358   0.770   8.264  17.150 -0.3630  2.1156  1.1694
  168DOPC   C1520359   0.526   8.324  17.265  0.1365 -0.6063 -0.5814
  168DOPC  H15A20360   0.583   8.282  17.346 -1.3496  1.7262  1.8290
  168DOPC  H15B20361   0.457   8.251  17.225 -1.6183  0.7763 -0.1985
  168DOPC  H15C20362   0.467   8.392  17.325  1.0070 -0.2455 -0.1219
  168DOPC   C1120363   0.612   8.555  16.960  0.5676 -0.1164  0.7758
  168DOPC  H11A20364   0.692   8.488  16.921  0.0411 -0.4454  0.2421
  168DOPC  H11B20365   0.542   8.571  16.875  1.0767 -0.3789  0.2981
  168DOPC     P20366   0.814   8.734  16.954 -0.6869  0.1749  0.2194
  168DOPC   O1320367   0.906   8.616  16.953  0.0908 -0.2948 -0.1209
  168DOPC   O1420368   0.858   8.844  17.040 -0.2664 -0.4045  0.5461
  168DOPC   O1220369   0.673   8.680  17.002  0.2186  0.1116 -0.0371
  168DOPC   O1120370   0.785   8.779  16.807 -0.0881  0.6805 -0.4011
  168DOPC    C120371   0.666   8.856  16.771  0.3966  0.0146  0.0579
  168DOPC    HA20372   0.678   8.947  16.834  0.1710 -0.2233  0.4485
  168DOPC    HB20373   0.575   8.803  16.807  1.3534 -1.4128  0.4367
  168DOPC    C220374   0.671   8.899  16.622  0.3037  0.3377  0.5462
  168DOPC    HS20375   0.597   8.979  16.601 -0.7268 -0.3443  1.4192
  168DOPC   O2120376   0.652   8.793  16.528  0.0474  0.3560  0.3976
  168DOPC   C2120377   0.529   8.744  16.527  0.1791 -0.0279  0.4783
  168DOPC   O2220378   0.436   8.797  16.584  0.1718 -0.0623  0.8437
  168DOPC   C2220379   0.517   8.613  16.446  0.1510 -0.1699 -1.3249
  168DOPC   H2R20380   0.416   8.579  16.477  0.1603  1.6885  1.0444
  168DOPC   H2S20381   0.589   8.541  16.491 -0.2169 -0.8468 -1.7946
  168DOPC    C320382   0.805   8.967  16.593 -0.1093  0.4401  0.3248
  168DOPC    HX20383   0.888   8.895  16.612  1.2311  1.5993 -0.8440
  168DOPC    HY20384   0.799   9.061  16.653  0.0094  2.5538 -2.7631
  168DOPC   O3120385   0.824   9.006  16.451  0.0282  0.4024 -0.3516
  168DOPC   C3120386   0.908   9.102  16.421 -0.3201 -0.0951 -0.8087
  168DOPC   O3220387   0.975   9.164  16.499  0.4347 -0.6184 -0.2183
  168DOPC   C3220388   0.918   9.127  16.275  0.4856  0.0539 -0.0901
  168DOPC   H2X20389   0.892   9.232  16.251  1.1597 -0.3658 -3.0509
  168DOPC   H2Y20390   1.026   9.111  16.253  0.3185  0.3366 -1.2139
  168DOPC   C2320391   0.528   8.630  16.293  0.2592 -0.0325  0.1140
  168DOPC   H3R20392   0.539   8.526  16.256 -0.5944  0.4023 -1.5022
  168DOPC   H3S20393   0.616   8.689  16.260  1.0485 -0.8707  0.6693
  168DOPC   C2420394   0.393   8.686  16.228 -0.2320  0.7784 -0.0411
  168DOPC   H4R20395   0.309   8.647  16.290 -0.8881 -0.2274 -1.5130
  168DOPC   H4S20396   0.387   8.638  16.128  1.5708  0.7577 -0.1708
  168DOPC   C2520397   0.371   8.840  16.220  0.0380  0.7343  0.3916
  168DOPC   H5R20398   0.447   8.884  16.152 -0.0614 -1.1713 -1.0262
  168DOPC   H5S20399   0.381   8.881  16.322 -1.6529  1.7821  0.1839
  168DOPC   C2620400   0.234   8.870  16.163  0.0503  0.1046 -0.5186
  168DOPC   H6R20401   0.163   8.849  16.246  0.0340 -0.2333 -0.6139
  168DOPC   H6S20402   0.214   8.798  16.081 -2.0634  0.4929 -0.3953
  168DOPC   C2720403   0.212   9.012  16.106  0.0475  0.1403 -0.4308
  168DOPC   H7R20404   0.243   9.077  16.191 -2.3483  0.6398  0.1454
  168DOPC   H7S20405   0.107   9.040  16.082  0.3023  1.7098  0.1980
  168DOPC   C2820406   0.289   9.055  15.973  0.3609 -0.9161 -0.5387
  168DOPC   H8R20407   0.393   9.016  15.981  0.8169  0.0248 -1.5676
  168DOPC   H8S20408   0.296   9.166  15.967  1.4963 -0.9755 -0.6528
  168DOPC   C2920409   0.230   8.991  15.856 -0.4244 -0.0075  0.1369
  168DOPC   H9R20410   0.256   8.886  15.841  1.0396  0.2566  0.7358
  168DOPC  C21020411   0.163   9.048  15.757 -0.2183 -0.6144 -0.0513
  168DOPC  H10R20412   0.102   8.984  15.691 -0.9295 -1.3649  1.3081
  168DOPC  C21120413   0.150   9.202  15.755 -0.2877 -0.0492  1.5412
  168DOPC  H11R20414   0.242   9.263  15.765  0.0098 -0.6807  2.9909
  168DOPC  H11S20415   0.070   9.235  15.825 -1.6710 -2.8365  1.4494
  168DOPC  C21220416   0.101   9.233  15.605 -0.6826  0.5411 -0.1960
  168DOPC  H12R20417   0.070   9.339  15.593 -0.5447  0.6435  0.3238
  168DOPC  H12S20418   0.016   9.163  15.594  0.5508 -1.0424  0.0354
  168DOPC  C21320419   0.205   9.202  15.498 -0.7727  0.5418  0.8588
  168DOPC  H13R20420   0.243   9.098  15.498  0.0422  0.7717 -1.6724
  168DOPC  H13S20421   0.292   9.270  15.512  0.2931 -0.6429  0.1955
  168DOPC  C21420422   0.155   9.241  15.354 -0.6186  0.1772 -0.4328
  168DOPC  H14R20423   0.235   9.217  15.281  1.7891  0.7042  1.8853
  168DOPC  H14S20424   0.138   9.350  15.350  0.7014  0.4009 -0.3224
  168DOPC  C21520425   0.037   9.165  15.304  0.3583 -0.2165 -0.1732
  168DOPC  H15R20426  -0.047   9.169  15.376  0.9954  0.0879  0.5621
  168DOPC  H15S20427   0.068   9.058  15.300 -1.1971 -0.6526 -1.3338
  168DOPC  C21620428  -0.001   9.195  15.161  0.7923 -0.1932  0.4432
  168DOPC  H16R20429  -0.079   9.124  15.126 -0.7333  1.6925 -0.1599
  168DOPC  H16S20430   0.080   9.184  15.086  0.5579 -0.8443  0.2726
  168DOPC  C21720431  -0.060   9.336  15.139 -0.4297  0.2911 -0.6691
  168DOPC  H17R20432  -0.003   9.409  15.201 -1.0202 -1.1160  1.6496
  168DOPC  H17S20433  -0.162   9.342  15.182 -0.1635  2.7895 -0.2406
  168DOPC  C21820434  -0.063   9.374  14.993 -0.0057  0.5613 -0.2570
  168DOPC  H18R20435   0.037   9.387  14.945  0.8383  1.6702  1.7109
  168DOPC  H18S20436  -0.112   9.474  14.993 -1.5005 -0.0413  3.2130
  168DOPC  H18T20437  -0.121   9.302  14.930 -0.1501  0.5227 -0.0816
  168DOPC   C3320438   0.839   9.033  16.183  0.4151 -0.1670  0.3077
  168DOPC   H3X20439   0.731   9.048  16.203  0.6836  1.9987  0.3732
  168DOPC   H3Y20440   0.867   8.928  16.207 -1.3383 -0.5437  0.8739
  168DOPC   C3420441   0.861   9.069  16.040 -0.3105 -0.0587  0.2636
  168DOPC   H4X20442   0.968   9.052  16.017 -0.2717 -1.3893  1.2732
  168DOPC   H4Y20443   0.830   9.174  16.023 -0.9686 -0.3003 -0.0805
  168DOPC   C3520444   0.766   8.986  15.956 -0.2326 -0.4927  1.2112
  168DOPC   H5X20445   0.658   9.002  15.978  0.1750  2.1434  1.6822
  168DOPC   H5Y20446   0.795   8.882  15.979  2.0964 -0.4914 -1.1640
  168DOPC   C3620447   0.785   9.012  15.802 -0.6447 -0.3924 -0.2222
  168DOPC   H6X20448   0.749   9.113  15.774 -1.3557 -0.6091 -0.1146
  168DOPC   H6Y20449   0.894   9.005  15.782 -0.8904 -3.7098 -1.0723
  168DOPC   C3720450   0.722   8.906  15.717  0.1983 -0.1684 -0.2678
  168DOPC   H7X20451   0.783   8.894  15.625  0.7427 -1.7115  0.2593
  168DOPC   H7Y20452   0.712   8.812  15.776 -0.7325  1.6016  2.6417
  168DOPC   C3820453   0.574   8.932  15.691  0.0277 -0.7347  0.0477
  168DOPC   H8X20454   0.526   8.929  15.791 -0.1433 -0.7726 -0.0346
  168DOPC   H8Y20455   0.539   8.839  15.640  1.0494 -0.9615 -0.2580
  168DOPC   C3920456   0.544   9.068  15.630  0.2406  0.0234  0.2556
  168DOPC   H9X20457   0.543   9.152  15.702 -0.6527 -0.3526  0.6945
  168DOPC  C31020458   0.538   9.094  15.495 -0.1070  0.4189  0.0465
  168DOPC  H10X20459   0.507   9.196  15.468  2.1273  0.6827 -1.9000
  168DOPC  C31120460   0.566   8.993  15.386  0.7111  0.0879  1.1032
  168DOPC  H11X20461   0.469   8.972  15.335  0.5453 -2.1890  2.2213
  168DOPC  H11Y20462   0.594   8.894  15.428 -1.8423 -1.3429 -0.3174
  168DOPC  C31220463   0.682   9.047  15.292 -0.2406  0.1868 -0.7745
  168DOPC  H12X20464   0.710   8.970  15.216 -0.2594  2.1308 -2.8378
  168DOPC  H12Y20465   0.767   9.062  15.362  0.3505 -2.9799 -0.6571
  168DOPC  C31320466   0.658   9.175  15.218  0.6546 -1.0587  0.2865
  168DOPC  H13X20467   0.577   9.170  15.142 -1.0142  2.1185  1.6314
  168DOPC  H13Y20468   0.614   9.257  15.279  0.1980 -1.1862  0.1313
  168DOPC  C31420469   0.788   9.216  15.145 -0.0083 -0.3343 -0.2367
  168DOPC  H14X20470   0.856   9.243  15.228 -1.5866  0.3339  0.8990
  168DOPC  H14Y20471   0.817   9.122  15.093  1.5697 -0.1629  0.2964
  168DOPC  C31520472   0.787   9.333  15.045 -0.1841  0.3142 -0.3094
  168DOPC  H15X20473   0.717   9.308  14.962 -1.2541  2.0670  0.0051
  168DOPC  H15Y20474   0.890   9.361  15.017 -0.7641  0.0811 -2.8935
  168DOPC  C31620475   0.728   9.456  15.116  0.4192 -0.1815 -0.1325
  168DOPC  H16X20476   0.621   9.438  15.141 -0.0432  3.8851  1.5805
  168DOPC  H16Y20477   0.767   9.478  15.218 -0.9621  1.6817  0.0559
  168DOPC  C31720478   0.765   9.583  15.038  0.4066  0.5819  0.5476
  168DOPC  H17X20479   0.711   9.667  15.085 -2.5425 -0.3025 -1.0204
  168DOPC  H17Y20480   0.876   9.587  15.049  0.3215  0.0410  1.7838
  168DOPC  C31820481   0.726   9.578  14.894 -0.1684  0.5255 -0.4997
  168DOPC  H18X20482   0.740   9.684  14.865  2.8498  0.1147 -0.8059
  168DOPC  H18Y20483   0.791   9.506  14.840 -0.7780  0.2857 -0.9307
  168DOPC  H18Z20484   0.618   9.559  14.876 -0.5083 -1.0246  2.5656
  169DOPC     N20485   7.690   1.932  17.411 -0.1669  1.1465 -0.3945
  169DOPC   C1220486   7.588   2.032  17.347 -0.4015  0.1784  0.0531
  169DOPC  H12A20487   7.598   2.127  17.398 -0.0444 -1.4665  3.3260
  169DOPC  H12B20488   7.491   1.995  17.378  0.5712 -2.5774  0.0315
  169DOPC   C1320489   7.826   1.986  17.392  0.4864 -0.5938 -0.4957
  169DOPC  H13A20490   7.884   1.928  17.462 -1.6500 -1.7331  0.4343
  169DOPC  H13B20491   7.870   1.955  17.298 -1.4703  0.6102 -1.9015
  169DOPC  H13C20492   7.833   2.093  17.402 -0.7248 -0.3706 -1.6793
  169DOPC   C1420493   7.671   1.797  17.347 -0.4490  0.3470  0.3089
  169DOPC  H14A20494   7.575   1.758  17.376 -0.7356  2.0088  1.8072
  169DOPC  H14B20495   7.675   1.816  17.241  0.1184 -0.1544  0.2344
  169DOPC  H14C20496   7.751   1.731  17.377  0.3623  1.2557  0.2350
  169DOPC   C1520497   7.663   1.922  17.557 -0.7184 -0.1718 -0.4522
  169DOPC  H15A20498   7.728   1.845  17.595 -0.5048  0.1598 -0.1483
  169DOPC  H15B20499   7.563   1.894  17.585 -0.7620  0.4007 -0.0399
  169DOPC  H15C20500   7.686   2.014  17.608 -0.2226 -0.7658  0.4318
  169DOPC   C1120501   7.582   2.044  17.187 -0.5935 -1.3912 -0.1716
  169DOPC  H11A20502   7.517   2.131  17.162 -0.6369 -1.1084  0.8859
  169DOPC  H11B20503   7.685   2.075  17.159 -1.7101  2.7394 -0.4211
  169DOPC     P20504   7.411   1.881  17.084  0.5425 -0.3147  0.2670
  169DOPC   O1320505   7.317   1.923  17.187 -0.5970 -0.1646 -0.5739
  169DOPC   O1420506   7.414   1.735  17.059  0.3362 -0.2639  0.2721
  169DOPC   O1220507   7.552   1.930  17.117 -0.4464  0.4542 -0.7372
  169DOPC   O1120508   7.379   1.956  16.945 -0.4444  0.4623  0.1459
  169DOPC    C120509   7.343   2.090  16.934  0.0587 -0.7073  0.1010
  169DOPC    HA20510   7.378   2.149  17.021  0.3332 -1.7205  0.6906
  169DOPC    HB20511   7.232   2.098  16.936  0.0241 -0.7825 -0.9956
  169DOPC    C220512   7.397   2.156  16.796 -0.3496  0.2545 -0.6046
  169DOPC    HS20513   7.343   2.251  16.776  1.6361  1.7858  0.8481
  169DOPC   O2120514   7.388   2.059  16.697 -0.1731 -0.3753  0.3303
  169DOPC   C2120515   7.370   2.105  16.572 -1.1289  0.3598 -0.0797
  169DOPC   O2220516   7.359   2.222  16.536  0.2767 -0.3561 -0.0281
  169DOPC   C2220517   7.363   1.979  16.474 -0.1305 -0.1071 -0.1260
  169DOPC   H2R20518   7.286   1.916  16.524 -2.2701  1.5807 -1.1055
  169DOPC   H2S20519   7.453   1.915  16.466  0.4783  0.7278 -0.1087
  169DOPC    C320520   7.549   2.194  16.813 -0.2873 -0.1236 -0.3826
  169DOPC    HX20521   7.607   2.100  16.822  1.9632  1.3446  1.9193
  169DOPC    HY20522   7.563   2.249  16.909 -1.1821  1.1206 -0.9352
  169DOPC   O3120523   7.603   2.267  16.695  0.1996  0.2856 -0.7791
  169DOPC   C3120524   7.580   2.396  16.697  0.1930  0.0266 -0.1983
  169DOPC   O3220525   7.538   2.462  16.792 -0.4439  0.7564  0.6855
  169DOPC   C3220526   7.635   2.444  16.561  0.6726  0.0190 -0.4467
  169DOPC   H2X20527   7.725   2.379  16.551  0.1567 -0.7037 -0.4386
  169DOPC   H2Y20528   7.567   2.416  16.477  0.3817 -1.1049  0.1393
  169DOPC   C2320529   7.293   2.008  16.337  0.2379 -0.1206 -0.4079
  169DOPC   H3R20530   7.363   2.070  16.277  0.3238  1.1519  0.9475
  169DOPC   H3S20531   7.209   2.077  16.360  0.3284 -0.0774 -0.2005
  169DOPC   C2420532   7.238   1.885  16.261 -0.2362  0.4126 -0.3088
  169DOPC   H4R20533   7.225   1.810  16.341 -0.0680  2.5222  1.7973
  169DOPC   H4S20534   7.307   1.834  16.190  1.5912  1.4188  0.6492
  169DOPC   C2520535   7.107   1.908  16.192 -0.3027  0.3276  0.0894
  169DOPC   H5R20536   7.054   1.992  16.242  0.9978  0.8708  0.6032
  169DOPC   H5S20537   7.051   1.812  16.196 -0.8293  0.6639  1.1806
  169DOPC   C2620538   7.116   1.952  16.041  0.2210  0.8997  0.4164
  169DOPC   H6R20539   7.142   1.868  15.973  0.5187  1.2453  0.0939
  169DOPC   H6S20540   7.204   2.019  16.031  1.6038 -0.5409  2.2571
  169DOPC   C2720541   6.987   2.017  15.994  0.2113  0.1401  0.2675
  169DOPC   H7R20542   6.979   2.110  16.054  2.3973  0.5348  0.0232
  169DOPC   H7S20543   6.905   1.946  16.016 -2.5933  2.8433 -0.7246
  169DOPC   C2820544   6.995   2.072  15.847  0.5024 -0.2030 -0.1465
  169DOPC   H8R20545   7.006   1.990  15.772  0.2580 -0.4868  0.1255
  169DOPC   H8S20546   7.092   2.124  15.848  1.2688 -1.5512 -0.8421
  169DOPC   C2920547   6.877   2.166  15.813 -0.0223 -0.5254  0.3212
  169DOPC   H9R20548   6.778   2.120  15.799 -0.1739 -0.8420  2.1751
  169DOPC  C21020549   6.897   2.302  15.775  0.0184  0.9805 -0.6654
  169DOPC  H10R20550   6.808   2.360  15.748 -1.1313 -0.3384  0.1626
  169DOPC  C21120551   7.022   2.383  15.786  0.4327  0.0760  0.5276
  169DOPC  H11R20552   7.114   2.329  15.754 -0.3208 -0.8820 -0.0852
  169DOPC  H11S20553   7.037   2.415  15.891 -0.4827  0.1638  0.6388
  169DOPC  C21220554   7.035   2.507  15.692 -1.3571  0.5215  0.5404
  169DOPC  H12R20555   7.128   2.567  15.705 -0.8288 -0.5598  1.9156
  169DOPC  H12S20556   6.950   2.573  15.720 -2.4578 -1.0996  1.1561
  169DOPC  C21320557   6.999   2.474  15.540 -0.4853 -0.3971  0.6754
  169DOPC  H13R20558   7.003   2.563  15.474 -0.2107 -1.2549 -0.5035
  169DOPC  H13S20559   6.893   2.442  15.544 -1.2916  1.8247 -0.7751
  169DOPC  C21420560   7.090   2.365  15.489 -0.2148 -0.3232 -0.1734
  169DOPC  H14R20561   7.049   2.269  15.529  0.0420  0.1606  1.3193
  169DOPC  H14S20562   7.196   2.374  15.523 -0.4552 -1.1443  0.8435
  169DOPC  C21520563   7.097   2.357  15.340 -0.3781  0.8035  0.7830
  169DOPC  H15R20564   7.126   2.455  15.296  1.3484 -0.9839 -2.4010
  169DOPC  H15S20565   6.992   2.334  15.311 -0.1673 -1.5675  1.6976
  169DOPC  C21620566   7.187   2.238  15.293 -0.4805  0.5560  0.6124
  169DOPC  H16R20567   7.161   2.149  15.355  1.4700  1.2974  2.6605
  169DOPC  H16S20568   7.293   2.258  15.321 -0.7877  1.3200  1.2891
  169DOPC  C21720569   7.182   2.197  15.152 -0.1245  0.4129  0.2122
  169DOPC  H17R20570   7.091   2.142  15.120  0.0534 -0.5200  1.2823
  169DOPC  H17S20571   7.262   2.122  15.136 -0.7235 -0.2395  0.2339
  169DOPC  C21820572   7.215   2.314  15.056  0.7457  0.2927 -0.1174
  169DOPC  H18R20573   7.202   2.286  14.949  0.1939 -3.6080  0.8305
  169DOPC  H18S20574   7.315   2.355  15.080  0.2616  1.2501  0.3269
  169DOPC  H18T20575   7.158   2.407  15.078  0.2431 -0.3796  1.6358
  169DOPC   C3320576   7.674   2.588  16.554 -0.4350 -0.9007  0.0552
  169DOPC   H3X20577   7.751   2.615  16.630  1.2679 -0.5486 -1.7056
  169DOPC   H3Y20578   7.587   2.654  16.575  0.9273  0.8491  0.4576
  169DOPC   C3420579   7.747   2.627  16.421  0.0357 -0.5701 -0.4395
  169DOPC   H4X20580   7.847   2.580  16.418  0.7364  0.8970 -0.6766
  169DOPC   H4Y20581   7.772   2.733  16.402  0.3903 -0.9702 -2.3725
  169DOPC   C3520582   7.662   2.602  16.299  0.1270  0.5099  0.4950
  169DOPC   H5X20583   7.607   2.695  16.273  0.2659  0.1253 -1.3124
  169DOPC   H5Y20584   7.580   2.531  16.323  0.0195  0.5152  0.1533
  169DOPC   C3620585   7.745   2.550  16.176  0.7402 -0.0513 -0.0955
  169DOPC   H6X20586   7.839   2.502  16.209 -0.1416 -0.5352  1.8600
  169DOPC   H6Y20587   7.682   2.480  16.116  0.0171  0.7667 -0.3134
  169DOPC   C3720588   7.788   2.668  16.083  0.2353 -0.4623  0.1762
  169DOPC   H7X20589   7.699   2.731  16.065  0.6445 -0.0615 -0.5172
  169DOPC   H7Y20590   7.864   2.720  16.145 -2.0929 -1.0976  3.8861
  169DOPC   C3820591   7.853   2.619  15.950 -0.1086  0.5043 -0.5778
  169DOPC   H8X20592   7.779   2.556  15.896 -0.3323  1.1815 -1.0753
  169DOPC   H8Y20593   7.939   2.552  15.972 -0.6217 -0.4950 -1.5274
  169DOPC   C3920594   7.894   2.730  15.861 -0.9082 -0.0600  0.0764
  169DOPC   H9X20595   7.929   2.814  15.922 -1.2720  0.3145 -0.2216
  169DOPC  C31020596   7.876   2.730  15.731 -0.4786 -0.5540  0.2718
  169DOPC  H10X20597   7.898   2.820  15.670 -1.3195 -1.8477 -2.0567
  169DOPC  C31120598   7.822   2.618  15.647  0.2214 -0.6534 -0.1290
  169DOPC  H11X20599   7.733   2.656  15.592 -0.0038 -0.3985  0.4018
  169DOPC  H11Y20600   7.788   2.532  15.710  0.9537  0.5526  2.0187
  169DOPC  C31220601   7.928   2.561  15.546 -0.1982 -0.2885  0.3219
  169DOPC  H12X20602   8.006   2.516  15.611 -1.6146 -4.0873 -0.3905
  169DOPC  H12Y20603   7.976   2.640  15.484  0.9305  0.0342  1.5472
  169DOPC  C31320604   7.880   2.447  15.455 -0.1781  0.2008  0.1777
  169DOPC  H13X20605   7.808   2.380  15.506 -0.5442 -1.1436 -1.9665
  169DOPC  H13Y20606   7.822   2.482  15.367  1.5451  1.6416 -0.4636
  169DOPC  C31420607   8.002   2.360  15.427  0.7267  0.8522 -0.6769
  169DOPC  H14X20608   8.053   2.323  15.519 -0.1653 -3.8630 -1.8358
  169DOPC  H14Y20609   7.966   2.259  15.399 -0.7325  1.3317 -0.6392
  169DOPC  C31520610   8.116   2.417  15.343  0.0125 -0.0957  0.5766
  169DOPC  H15X20611   8.185   2.337  15.311  0.8908  0.5752  0.7428
  169DOPC  H15Y20612   8.180   2.478  15.411 -0.1386  1.8906 -0.9598
  169DOPC  C31620613   8.067   2.512  15.226  0.1802 -0.0190  0.1711
  169DOPC  H16X20614   8.003   2.442  15.168 -0.6380 -0.3727  1.4718
  169DOPC  H16Y20615   8.005   2.590  15.274  1.5479  1.3164 -0.1565
  169DOPC  C31720616   8.177   2.566  15.139 -0.2726  0.1795  0.0224
  169DOPC  H17X20617   8.246   2.607  15.215 -0.5898 -1.0563  1.0024
  169DOPC  H17Y20618   8.236   2.479  15.103 -3.3385 -2.6019  1.2975
  169DOPC  C31820619   8.140   2.676  15.041  0.2591 -0.3647  0.0817
  169DOPC  H18X20620   8.230   2.712  14.987  0.7225 -2.9236 -1.0395
  169DOPC  H18Y20621   8.063   2.632  14.973 -0.8911 -2.2423  2.4651
  169DOPC  H18Z20622   8.091   2.758  15.097  1.6556 -0.2411  1.1700
  170DOPC     N20623   5.752   0.191  16.866 -0.1590 -0.6994 -1.0269
  170DOPC   C1220624   5.633   0.240  16.784  0.2918  0.8183  0.3476
  170DOPC  H12A20625   5.578   0.308  16.848  1.2515 -0.1866  2.3380
  170DOPC  H12B20626   5.566   0.157  16.773  1.9129 -0.7368  1.6127
  170DOPC   C1320627   5.711   0.133  16.999 -0.0937 -0.3460  0.1529
  170DOPC  H13A20628   5.795   0.082  17.046  0.4864  0.6307  0.2058
  170DOPC  H13B20629   5.678   0.209  17.067 -0.7233  0.3683 -0.9326
  170DOPC  H13C20630   5.637   0.056  16.982 -1.6626  1.5619 -2.1949
  170DOPC   C1420631   5.853   0.298  16.901  0.6331 -0.5866 -0.7445
  170DOPC  H14A20632   5.886   0.353  16.815 -0.5192  1.8891  0.2914
  170DOPC  H14B20633   5.797   0.376  16.951 -0.3610 -0.2927 -2.2434
  170DOPC  H14C20634   5.933   0.261  16.964 -1.9989  1.7047  4.6322
  170DOPC   C1520635   5.823   0.081  16.788  0.3600  0.2758 -0.3364
  170DOPC  H15A20636   5.852   0.127  16.695  1.5253 -0.9104 -0.5915
  170DOPC  H15B20637   5.763  -0.007  16.770 -0.7168  0.6232  1.3666
  170DOPC  H15C20638   5.913   0.055  16.840 -0.9861 -0.0571  1.9482
  170DOPC   C1120639   5.666   0.321  16.658 -0.0149 -1.2100  0.1207
  170DOPC  H11A20640   5.734   0.259  16.595  0.7443  0.7028 -1.0330
  170DOPC  H11B20641   5.564   0.339  16.618  0.2498 -0.3435 -0.1737
  170DOPC     P20642   5.667   0.563  16.759  0.0884 -0.1348 -0.3383
  170DOPC   O1320643   5.769   0.651  16.821  0.6147  0.0935 -0.2294
  170DOPC   O1420644   5.560   0.519  16.848 -0.3007  0.0658 -0.5939
  170DOPC   O1220645   5.736   0.442  16.686  0.4170  0.1842  0.2337
  170DOPC   O1120646   5.598   0.638  16.640 -0.2891 -0.2782 -0.1940
  170DOPC    C120647   5.641   0.633  16.508  0.3649 -0.9353  0.2110
  170DOPC    HA20648   5.692   0.538  16.484  0.2384 -1.4972  2.0027
  170DOPC    HB20649   5.702   0.722  16.480 -1.4423 -0.2729 -1.8837
  170DOPC    C220650   5.521   0.635  16.407 -0.0968  0.1476  0.0172
  170DOPC    HS20651   5.493   0.528  16.395 -0.1671 -0.1750  2.4665
  170DOPC   O2120652   5.548   0.696  16.283  0.1511  0.1995  0.2707
  170DOPC   C2120653   5.629   0.627  16.202 -0.3245 -0.4496  0.1675
  170DOPC   O2220654   5.701   0.536  16.234 -0.0565  0.1975  0.0269
  170DOPC   C2220655   5.615   0.691  16.067  0.2117 -0.1126  0.1102
  170DOPC   H2R20656   5.649   0.796  16.069 -1.2599  0.4460 -1.4234
  170DOPC   H2S20657   5.506   0.711  16.056  0.0301  0.3999  2.3188
  170DOPC    C320658   5.394   0.705  16.463  0.6834  0.1878  0.0724
  170DOPC    HX20659   5.399   0.814  16.444  0.9941  0.1302 -0.1671
  170DOPC    HY20660   5.394   0.698  16.574  2.2396  1.5575  0.1976
  170DOPC   O3120661   5.284   0.644  16.387 -0.3591 -0.4031 -0.3320
  170DOPC   C3120662   5.187   0.586  16.449  0.1132  0.1144  0.0777
  170DOPC   O3220663   5.179   0.572  16.574  0.3648  0.4889  0.4810
  170DOPC   C3220664   5.084   0.543  16.347  1.1683 -0.0626 -0.0710
  170DOPC   H2X20665   5.041   0.633  16.298  0.9407 -0.9315 -1.5361
  170DOPC   H2Y20666   5.135   0.489  16.264 -0.6623  0.5725 -1.6730
  170DOPC   C2320667   5.685   0.600  15.950  0.3319 -0.3180 -0.2762
  170DOPC   H3R20668   5.792   0.585  15.976 -0.0809 -3.2032  0.0561
  170DOPC   H3S20669   5.670   0.657  15.856 -0.3534 -2.5055 -1.5542
  170DOPC   C2420670   5.612   0.463  15.939 -0.1041 -0.8292  0.0497
  170DOPC   H4R20671   5.503   0.477  15.927 -0.1508 -0.0822  1.1490
  170DOPC   H4S20672   5.619   0.401  16.031  0.0295 -1.0998 -0.1388
  170DOPC   C2520673   5.653   0.379  15.816  0.0715  0.2031  0.0921
  170DOPC   H5R20674   5.624   0.446  15.732 -0.3410 -0.1662 -0.0710
  170DOPC   H5S20675   5.582   0.294  15.804 -0.3112  0.6633 -1.1028
  170DOPC   C2620676   5.798   0.327  15.818  0.2447  0.0305 -0.0561
  170DOPC   H6R20677   5.816   0.282  15.917 -1.2714 -0.4192  0.0445
  170DOPC   H6S20678   5.865   0.415  15.830 -0.2851  0.6212 -1.1865
  170DOPC   C2720679   5.835   0.233  15.699  0.8845  0.1102  0.8373
  170DOPC   H7R20680   5.818   0.287  15.603 -0.8394 -2.3450 -0.3322
  170DOPC   H7S20681   5.763   0.149  15.698  2.5952 -1.5169 -3.2927
  170DOPC   C2820682   5.972   0.186  15.698 -0.5591 -0.4662 -0.1347
  170DOPC   H8R20683   6.003   0.142  15.796  0.5744  0.2632 -0.1470
  170DOPC   H8S20684   6.032   0.279  15.688 -1.8588  0.5441  1.1015
  170DOPC   C2920685   6.003   0.081  15.596  0.1326  0.0591 -0.8834
  170DOPC   H9R20686   5.969  -0.022  15.606 -0.8731  0.4518 -0.1759
  170DOPC  C21020687   6.086   0.097  15.497 -0.6899 -0.8158 -0.1997
  170DOPC  H10R20688   6.095   0.017  15.421  0.9668  1.4208 -2.5364
  170DOPC  C21120689   6.161   0.228  15.458  0.1572 -0.5847 -0.1110
  170DOPC  H11R20690   6.158   0.312  15.532  2.1641 -0.8205  0.2833
  170DOPC  H11S20691   6.128   0.263  15.358  0.9638 -0.3803 -0.3148
  170DOPC  C21220692   6.308   0.191  15.449  0.8080 -0.2305  0.4647
  170DOPC  H12R20693   6.321   0.114  15.370  0.7757 -0.7479  0.9628
  170DOPC  H12S20694   6.329   0.139  15.544  1.1804 -1.6682 -0.3779
  170DOPC  C21320695   6.390   0.317  15.430  0.7327  0.2222  0.2207
  170DOPC  H13R20696   6.376   0.389  15.514  1.3218  0.7044 -0.0886
  170DOPC  H13S20697   6.362   0.359  15.332 -1.2271 -1.2263  0.1048
  170DOPC  C21420698   6.539   0.269  15.420 -0.2103  0.9467 -0.0377
  170DOPC  H14R20699   6.549   0.201  15.333  1.2348  0.7570  0.2480
  170DOPC  H14S20700   6.571   0.210  15.509  0.3724 -1.0273 -1.4915
  170DOPC  C21520701   6.637   0.383  15.396 -0.3578  0.3726  0.0300
  170DOPC  H15R20702   6.591   0.475  15.437  1.6359  1.8154 -0.7767
  170DOPC  H15S20703   6.641   0.392  15.285 -0.3129  0.2931  0.0252
  170DOPC  C21620704   6.773   0.356  15.461  0.9108  0.6261 -0.3721
  170DOPC  H16R20705   6.763   0.354  15.572 -1.5213 -1.1075 -0.5515
  170DOPC  H16S20706   6.846   0.434  15.430  0.6821  0.7147 -0.6962
  170DOPC  C21720707   6.833   0.224  15.413  0.5018 -0.5292  0.4931
  170DOPC  H17R20708   6.834   0.213  15.303  0.4434 -3.2394  0.6791
  170DOPC  H17S20709   6.774   0.136  15.448 -0.8705  0.3491  0.4640
  170DOPC  C21820710   6.974   0.195  15.462 -0.3385 -0.4011  0.6632
  170DOPC  H18R20711   7.053   0.267  15.431 -1.7300  1.8782  2.1425
  170DOPC  H18S20712   7.004   0.095  15.425  0.0269  0.0822 -0.3844
  170DOPC  H18T20713   6.980   0.202  15.572  1.8514 -0.1601  0.5759
  170DOPC   C3320714   4.964   0.470  16.405  0.2652 -0.5592  0.1075
  170DOPC   H3X20715   4.936   0.550  16.477  0.3102 -0.8346  0.4360
  170DOPC   H3Y20716   4.998   0.382  16.464 -0.2899 -0.2134  0.9759
  170DOPC   C3420717   4.861   0.431  16.303 -0.0872 -0.9807  0.1730
  170DOPC   H4X20718   4.836   0.525  16.249  1.2431 -1.8248 -2.0357
  170DOPC   H4Y20719   4.771   0.394  16.358 -1.7952  1.9138 -0.4579
  170DOPC   C3520720   4.907   0.322  16.208  0.2923 -0.2344  0.4154
  170DOPC   H5X20721   4.951   0.238  16.267 -1.5439 -1.0333  0.7133
  170DOPC   H5Y20722   4.989   0.358  16.142 -1.1249  1.7935 -0.3350
  170DOPC   C3620723   4.790   0.260  16.132  0.1067 -0.2443  0.2461
  170DOPC   H6X20724   4.701   0.274  16.196  0.4217  2.3436  0.2360
  170DOPC   H6Y20725   4.784   0.320  16.039  3.3343  0.6556  0.4933
  170DOPC   C3720726   4.804   0.109  16.096 -0.4084 -0.0062 -0.0639
  170DOPC   H7X20727   4.864   0.076  16.008  0.2898  0.4641  0.2164
  170DOPC   H7Y20728   4.853   0.064  16.184  2.1199  1.3175 -0.6828
  170DOPC   C3820729   4.672   0.032  16.076 -0.0476  0.4886  0.1579
  170DOPC   H8X20730   4.610   0.036  16.168  0.9615 -1.8272  1.0157
  170DOPC   H8Y20731   4.702  -0.075  16.069  1.3093  0.9135 -1.0186
  170DOPC   C3920732   4.602   0.077  15.954  0.3883 -0.6395 -0.1313
  170DOPC   H9X20733   4.534   0.159  15.979  0.0245 -0.8041 -0.5727
  170DOPC  C31020734   4.594   0.017  15.830 -0.0564 -0.1691 -0.3850
  170DOPC  H10X20735   4.534   0.061  15.749  0.3619 -0.0716 -0.6433
  170DOPC  C31120736   4.685  -0.101  15.792  0.0501 -0.6123  0.1820
  170DOPC  H11X20737   4.636  -0.194  15.829 -0.6103  0.1136  1.1695
  170DOPC  H11Y20738   4.791  -0.100  15.826 -0.2468  0.5331  1.1089
  170DOPC  C31220739   4.703  -0.096  15.640 -0.0330 -0.6217  0.6616
  170DOPC  H12X20740   4.605  -0.085  15.589  0.3248 -0.0185  0.0821
  170DOPC  H12Y20741   4.741  -0.191  15.595 -0.5396 -0.1513 -0.8430
  170DOPC  C31320742   4.797   0.021  15.585  0.3056  0.0060  0.0305
  170DOPC  H13X20743   4.753   0.109  15.636 -2.0067 -1.7598  1.2514
  170DOPC  H13Y20744   4.902   0.006  15.617 -0.3706  1.1430  3.0655
  170DOPC  C31420745   4.791   0.031  15.425 -0.1098 -0.1881 -0.7328
  170DOPC  H14X20746   4.778  -0.075  15.395  0.1105 -0.1747 -0.8817
  170DOPC  H14Y20747   4.697   0.085  15.399 -0.4920  0.2746  1.4118
  170DOPC  C31520748   4.904   0.094  15.358 -0.5866  0.0005 -0.3982
  170DOPC  H15X20749   4.875   0.129  15.257 -2.0472 -3.1504 -1.1922
  170DOPC  H15Y20750   4.980   0.015  15.341 -0.8467  0.1972 -2.8185
  170DOPC  C31620751   4.939   0.234  15.429  0.6474  0.4689 -0.3818
  170DOPC  H16X20752   4.983   0.212  15.528 -2.9048 -1.0170  1.0322
  170DOPC  H16Y20753   5.019   0.282  15.367  0.9314 -0.3053 -0.6326
  170DOPC  C31720754   4.826   0.337  15.441 -0.6285  0.6789  0.2380
  170DOPC  H17X20755   4.768   0.336  15.346 -0.1949 -0.8702 -0.0411
  170DOPC  H17Y20756   4.755   0.307  15.521 -1.7380 -0.0427 -0.9752
  170DOPC  C31820757   4.888   0.478  15.466 -0.2562  0.3876  0.0410
  170DOPC  H18X20758   4.945   0.514  15.378 -0.3661 -0.2417 -0.2934
  170DOPC  H18Y20759   4.801   0.542  15.492 -1.9780 -2.0075  0.5621
  170DOPC  H18Z20760   4.956   0.465  15.553  1.1844  1.6796 -0.8370
  171DOPC     N20761   2.996   3.010  13.399 -0.2805 -0.6883  0.1496
  171DOPC   C1220762   2.902   3.122  13.451 -0.7998 -0.1623  0.7533
  171DOPC  H12A20763   2.867   3.099  13.550 -0.4148 -1.8329  0.5290
  171DOPC  H12B20764   2.820   3.142  13.383  0.6661  1.0420 -0.7728
  171DOPC   C1320765   3.089   2.972  13.501 -0.0867 -0.6257 -0.1381
  171DOPC  H13A20766   3.142   3.059  13.536  4.3576 -0.9436 -4.7892
  171DOPC  H13B20767   3.044   2.927  13.588  1.3702  1.4670  1.7987
  171DOPC  H13C20768   3.155   2.893  13.468 -1.2135 -1.3160 -0.8300
  171DOPC   C1420769   3.077   3.043  13.281  0.7124 -0.6976 -0.4503
  171DOPC  H14A20770   3.155   3.110  13.316 -0.9564  0.7879  0.5785
  171DOPC  H14B20771   3.116   2.955  13.233 -1.7528 -2.1171  0.0359
  171DOPC  H14C20772   3.009   3.104  13.224  0.7651  0.6015  0.7973
  171DOPC   C1520773   2.913   2.884  13.367 -0.2409  0.1332  0.1650
  171DOPC  H15A20774   2.834   2.900  13.295  1.2634  1.6901 -1.2305
  171DOPC  H15B20775   2.864   2.845  13.455 -1.3655  3.3030  1.0759
  171DOPC  H15C20776   2.979   2.805  13.334 -2.4820 -2.0161  0.5148
  171DOPC   C1120777   2.968   3.261  13.472  0.0944 -0.0826  0.1242
  171DOPC  H11A20778   3.012   3.299  13.377  0.8334 -2.0123 -0.3485
  171DOPC  H11B20779   2.897   3.339  13.506  2.0187  2.1607 -0.7425
  171DOPC     P20780   3.107   3.368  13.668  0.0602 -0.0570  0.2466
  171DOPC   O1320781   3.215   3.448  13.604 -0.3772  0.0161 -0.8190
  171DOPC   O1420782   3.136   3.298  13.795  0.4511  0.5602 -0.5518
  171DOPC   O1220783   3.075   3.253  13.563  0.6431 -0.3958  0.0692
  171DOPC   O1120784   2.986   3.463  13.683  0.1413  0.3424  0.0241
  171DOPC    C120785   3.005   3.584  13.745  0.1389  0.2908 -0.0775
  171DOPC    HA20786   2.914   3.646  13.731 -0.3745 -0.6021 -0.8623
  171DOPC    HB20787   3.091   3.632  13.695  1.0071  0.1467  1.2378
  171DOPC    C220788   3.028   3.580  13.905  0.1881 -0.3381 -0.2839
  171DOPC    HS20789   3.114   3.513  13.928 -0.5651 -1.0659  0.5040
  171DOPC   O2120790   2.910   3.525  13.969 -0.8249 -0.1038  0.1816
  171DOPC   C2120791   2.934   3.487  14.105 -0.3347 -0.0715  0.3479
  171DOPC   O2220792   3.038   3.503  14.162 -0.3563  0.4140 -0.3350
  171DOPC   C2220793   2.808   3.428  14.162 -0.3516  0.7339 -0.1936
  171DOPC   H2R20794   2.788   3.329  14.116  2.9670 -2.0855  3.7560
  171DOPC   H2S20795   2.721   3.490  14.129 -1.0138  0.7904  1.5238
  171DOPC    C320796   3.081   3.716  13.964  0.1203  0.4869  0.4139
  171DOPC    HX20797   3.170   3.733  13.899  0.7816 -2.1697  0.4708
  171DOPC    HY20798   3.120   3.692  14.065 -0.6586  0.8477  0.8062
  171DOPC   O3120799   2.980   3.817  13.965 -0.0006 -0.3949 -0.1877
  171DOPC   C3120800   3.037   3.934  13.979 -0.6495 -0.4336 -0.4719
  171DOPC   O3220801   3.158   3.957  13.982  0.0232  1.1296  0.7264
  171DOPC   C3220802   2.929   4.045  13.976  0.2258 -0.6276  0.3832
  171DOPC   H2X20803   2.924   4.102  13.881  0.8157  1.5864  1.6007
  171DOPC   H2Y20804   2.832   3.993  13.990 -0.0801 -0.5636 -1.2573
  171DOPC   C2320805   2.791   3.403  14.310  0.6364 -0.0712 -0.4076
  171DOPC   H3R20806   2.708   3.466  14.348  0.3840  0.5514 -1.9082
  171DOPC   H3S20807   2.880   3.437  14.367  0.0929  1.1641 -0.2628
  171DOPC   C2420808   2.772   3.249  14.335  0.6336 -0.3064 -0.8467
  171DOPC   H4R20809   2.835   3.192  14.263  0.6049  1.4198 -2.2830
  171DOPC   H4S20810   2.668   3.217  14.316 -0.1211  0.2360  1.9126
  171DOPC   C2520811   2.803   3.220  14.483  0.3883 -0.6727  0.4204
  171DOPC   H5R20812   2.908   3.245  14.510  0.0835  0.7152  0.3772
  171DOPC   H5S20813   2.796   3.111  14.503  0.2314 -0.3075  2.5585
  171DOPC   C2620814   2.699   3.272  14.588 -0.2793 -0.1860 -0.5091
  171DOPC   H6R20815   2.608   3.214  14.563 -1.4789  1.8337 -1.0636
  171DOPC   H6S20816   2.680   3.380  14.568  0.8437  0.4173  1.3838
  171DOPC   C2720817   2.734   3.242  14.732  0.0447 -0.0888 -0.6746
  171DOPC   H7R20818   2.822   3.303  14.763  0.0592 -0.3087 -0.2707
  171DOPC   H7S20819   2.772   3.138  14.744  2.0734  0.7353  0.7031
  171DOPC   C2820820   2.624   3.263  14.837  0.5077 -0.2493 -0.0431
  171DOPC   H8R20821   2.539   3.193  14.824  1.4550 -1.1870 -1.4612
  171DOPC   H8S20822   2.591   3.369  14.828  1.7250  0.4061  2.3262
  171DOPC   C2920823   2.674   3.238  14.981 -0.2091 -0.8738 -0.1788
  171DOPC   H9R20824   2.742   3.151  14.978 -0.3830 -1.0846  1.4129
  171DOPC  C21020825   2.666   3.313  15.094  0.4607  0.1738  0.6601
  171DOPC  H10R20826   2.722   3.282  15.184  1.0345  2.3442  1.1055
  171DOPC  C21120827   2.586   3.436  15.103 -0.0365  0.0973 -0.2266
  171DOPC  H11R20828   2.494   3.414  15.161  0.8502 -1.9001  0.5023
  171DOPC  H11S20829   2.567   3.484  15.004  0.1651 -0.6029 -0.6169
  171DOPC  C21220830   2.663   3.536  15.190 -0.0838 -0.2880 -0.1990
  171DOPC  H12R20831   2.743   3.582  15.128  0.2914  1.8237  1.7118
  171DOPC  H12S20832   2.719   3.487  15.272  1.4005  0.5354 -0.6824
  171DOPC  C21320833   2.571   3.639  15.247  0.5050  0.0124 -0.2173
  171DOPC  H13R20834   2.496   3.593  15.316  0.7486 -2.3353 -1.4242
  171DOPC  H13S20835   2.505   3.674  15.164  0.5181  1.1136  0.2145
  171DOPC  C21420836   2.654   3.755  15.306 -0.3313 -0.1976  0.4810
  171DOPC  H14R20837   2.695   3.820  15.226 -0.4632  0.2925  0.8104
  171DOPC  H14S20838   2.741   3.715  15.363  0.2306 -3.4256 -2.2654
  171DOPC  C21520839   2.572   3.836  15.407  0.1782 -0.0109 -0.3400
  171DOPC  H15R20840   2.541   3.761  15.483  0.1468 -0.4300 -0.7599
  171DOPC  H15S20841   2.470   3.867  15.375  0.5501  0.9155 -0.6564
  171DOPC  C21620842   2.657   3.944  15.466  0.3138 -0.5673  0.3694
  171DOPC  H16R20843   2.606   4.041  15.453 -0.3461 -0.2889  3.9575
  171DOPC  H16S20844   2.751   3.948  15.406  1.6326 -3.0360  2.0882
  171DOPC  C21720845   2.698   3.944  15.618  0.7189 -0.9095 -0.2451
  171DOPC  H17R20846   2.609   3.960  15.682  0.5003  1.6138 -1.0550
  171DOPC  H17S20847   2.757   4.038  15.625  2.6304 -1.9926 -0.8784
  171DOPC  C21820848   2.772   3.823  15.664 -0.0146  0.0893  0.4129
  171DOPC  H18R20849   2.841   3.804  15.579 -1.8933  0.3476 -1.2433
  171DOPC  H18S20850   2.709   3.739  15.703  0.4545 -0.2976  0.3548
  171DOPC  H18T20851   2.837   3.846  15.752  0.1185  1.5849 -0.0522
  171DOPC   C3320852   2.946   4.147  14.095  0.5313  0.5147 -0.6723
  171DOPC   H3X20853   2.950   4.085  14.188  0.7806 -0.0461 -1.0506
  171DOPC   H3Y20854   2.855   4.210  14.104  0.7563  0.6119  1.4370
  171DOPC   C3420855   3.071   4.244  14.087  0.2317 -0.2443  0.7526
  171DOPC   H4X20856   3.046   4.315  14.006 -0.7473  0.2496  1.4752
  171DOPC   H4Y20857   3.161   4.180  14.072  0.0924 -0.5452  1.1877
  171DOPC   C3520858   3.088   4.336  14.207  0.6398 -0.2376 -0.1415
  171DOPC   H5X20859   2.987   4.354  14.250 -0.0776 -0.8330 -1.5253
  171DOPC   H5Y20860   3.134   4.426  14.161  0.6126 -1.2386 -2.2115
  171DOPC   C3620861   3.180   4.277  14.308 -0.0801 -0.5748 -0.2698
  171DOPC   H6X20862   3.135   4.178  14.329 -1.1076  0.3132  1.9806
  171DOPC   H6Y20863   3.289   4.273  14.285  0.1131  2.0252 -0.0884
  171DOPC   C3720864   3.162   4.345  14.442 -0.0364 -1.0333 -0.9088
  171DOPC   H7X20865   3.240   4.308  14.512  0.8145 -2.0192 -2.3166
  171DOPC   H7Y20866   3.162   4.455  14.436 -3.0394 -0.8360  0.6276
  171DOPC   C3820867   3.026   4.310  14.509 -0.4351 -0.8654 -0.8683
  171DOPC   H8X20868   2.936   4.350  14.457 -0.7519  0.0091  0.3308
  171DOPC   H8Y20869   3.022   4.365  14.605  1.9496  0.2403 -1.3210
  171DOPC   C3920870   3.007   4.162  14.530  0.6528  0.2442 -0.5626
  171DOPC   H9X20871   3.095   4.106  14.565  0.8750  0.5866 -0.5712
  171DOPC  C31020872   2.889   4.092  14.510 -0.0545 -0.4973 -0.2159
  171DOPC  H10X20873   2.890   3.986  14.538 -1.0236 -0.5653 -0.4158
  171DOPC  C31120874   2.753   4.152  14.481 -0.2678  0.2430  0.3364
  171DOPC  H11X20875   2.764   4.262  14.474  0.0737  0.1173 -2.1561
  171DOPC  H11Y20876   2.685   4.155  14.568  0.2941 -0.8290  0.8265
  171DOPC  C31220877   2.665   4.109  14.361 -0.5648 -0.7644 -0.4871
  171DOPC  H12X20878   2.703   4.013  14.320  1.8400  0.1812 -0.6643
  171DOPC  H12Y20879   2.678   4.178  14.275  0.2332  1.6048  1.4411
  171DOPC  C31320880   2.514   4.127  14.393  0.1969  0.1237  0.4808
  171DOPC  H13X20881   2.500   4.081  14.493 -0.7915 -0.5428  0.0507
  171DOPC  H13Y20882   2.490   4.235  14.395 -2.5420 -0.3132 -2.2573
  171DOPC  C31420883   2.425   4.061  14.289 -0.6949  0.5366  0.2041
  171DOPC  H14X20884   2.449   4.106  14.190  0.8236  0.4181  0.5029
  171DOPC  H14Y20885   2.465   3.958  14.281 -0.1773  0.7964 -0.7358
  171DOPC  C31520886   2.272   4.060  14.314  1.0251  0.7252  0.6173
  171DOPC  H15X20887   2.235   4.165  14.322 -0.9595  0.0615  0.7020
  171DOPC  H15Y20888   2.249   4.016  14.413  1.9576  2.1935  1.5209
  171DOPC  C31620889   2.191   3.988  14.209  0.0990  0.7914 -0.1479
  171DOPC  H16X20890   2.265   3.933  14.147 -0.7748 -1.2254  0.5141
  171DOPC  H16Y20891   2.135   3.908  14.261 -0.9485  1.2317 -0.5739
  171DOPC  C31720892   2.093   4.074  14.137 -0.4098 -0.0328 -0.1467
  171DOPC  H17X20893   2.000   4.105  14.190 -1.9593  0.3146 -2.8724
  171DOPC  H17Y20894   2.147   4.161  14.095  0.4273 -0.2759  0.4024
  171DOPC  C31820895   2.030   3.995  14.023  0.1110  0.1861 -0.0179
  171DOPC  H18X20896   2.109   3.964  13.952  0.2074 -0.3814  0.3317
  171DOPC  H18Y20897   1.966   3.916  14.069 -1.3873  2.8125  2.7943
  171DOPC  H18Z20898   1.961   4.058  13.962 -1.2399 -2.4963 -1.4463
  172DOPC     N20899   2.166   4.498  13.207  0.7167  0.3617 -0.0299
  172DOPC   C1220900   2.284   4.592  13.170  0.1054  0.3377 -0.3871
  172DOPC  H12A20901   2.299   4.663  13.251  2.0209  1.1152 -1.3578
  172DOPC  H12B20902   2.242   4.654  13.093 -0.8087  1.8150  1.2168
  172DOPC   C1320903   2.122   4.426  13.081 -0.0192 -0.4522 -0.3621
  172DOPC  H13A20904   2.202   4.358  13.057  0.4625 -0.1131  0.2515
  172DOPC  H13B20905   2.040   4.362  13.110 -0.4391 -0.0879 -0.7351
  172DOPC  H13C20906   2.098   4.490  12.997  0.5701  0.1439 -0.0858
  172DOPC   C1420907   2.050   4.576  13.265 -0.1508 -0.2169 -0.0149
  172DOPC  H14A20908   2.067   4.573  13.372 -0.8686 -0.3425  0.1074
  172DOPC  H14B20909   2.043   4.678  13.230  0.2418 -0.2517 -0.1855
  172DOPC  H14C20910   1.954   4.526  13.255 -0.2252 -0.0568 -0.1051
  172DOPC   C1520911   2.211   4.397  13.302  0.0589 -0.2281  0.3573
  172DOPC  H15A20912   2.237   4.449  13.393 -2.9169 -2.3821  2.6404
  172DOPC  H15B20913   2.300   4.345  13.271 -1.6425 -2.1761 -1.4991
  172DOPC  H15C20914   2.133   4.330  13.335 -0.5620 -0.1216 -0.8347
  172DOPC   C1120915   2.416   4.522  13.130  0.0857  0.0661 -0.4731
  172DOPC  H11A20916   2.458   4.472  13.219 -1.8983 -0.0170  0.4783
  172DOPC  H11B20917   2.392   4.448  13.051 -0.1000 -1.7611  1.2182
  172DOPC     P20918   2.573   4.728  13.171 -0.1720  0.0023  0.2952
  172DOPC   O1320919   2.472   4.825  13.208 -0.1073  0.5833  0.8697
  172DOPC   O1420920   2.688   4.784  13.100 -0.4732 -0.3019  0.0419
  172DOPC   O1220921   2.508   4.619  13.074  0.5889  0.3889 -0.2869
  172DOPC   O1120922   2.611   4.658  13.305 -0.6959 -0.0229  0.3548
  172DOPC    C120923   2.691   4.536  13.298 -0.3646 -0.9382  0.4125
  172DOPC    HA20924   2.745   4.531  13.201 -0.5524  0.8031  0.1754
  172DOPC    HB20925   2.635   4.441  13.306 -0.5856 -0.9002 -0.5997
  172DOPC    C220926   2.787   4.544  13.420 -0.0892 -0.2047 -0.1700
  172DOPC    HS20927   2.848   4.452  13.411 -1.3393 -1.3592  2.3639
  172DOPC   O2120928   2.714   4.529  13.549 -0.4738 -0.0261  0.4534
  172DOPC   C2120929   2.784   4.508  13.655  0.7539 -0.4043 -0.5849
  172DOPC   O2220930   2.900   4.479  13.663 -0.7101  0.1964  0.4716
  172DOPC   C2220931   2.697   4.515  13.780  0.4876 -0.5468 -0.4088
  172DOPC   H2R20932   2.678   4.410  13.811  0.7826 -1.0894 -1.9473
  172DOPC   H2S20933   2.598   4.564  13.773 -0.2533 -2.0919 -1.3056
  172DOPC    C320934   2.879   4.677  13.414 -0.9084  0.3303  0.0089
  172DOPC    HX20935   2.944   4.669  13.324 -1.9362  0.5150 -0.7656
  172DOPC    HY20936   2.957   4.674  13.494 -0.8032  0.1576 -0.0994
  172DOPC   O3120937   2.810   4.805  13.399 -0.0986  0.2999  0.0388
  172DOPC   C3120938   2.767   4.852  13.517  0.2392 -0.2304  0.7748
  172DOPC   O3220939   2.801   4.815  13.627 -0.0668 -0.0846 -0.1246
  172DOPC   C3220940   2.654   4.946  13.486  0.1222 -0.3771  0.4100
  172DOPC   H2X20941   2.670   4.990  13.385 -0.5030  0.2993  0.6034
  172DOPC   H2Y20942   2.566   4.880  13.473 -0.1454  0.3672 -2.1494
  172DOPC   C2320943   2.766   4.593  13.896  0.8220 -0.0749  0.6086
  172DOPC   H3R20944   2.802   4.689  13.854 -0.2749 -1.3772 -3.9428
  172DOPC   H3S20945   2.854   4.535  13.931  0.1010 -1.1088  0.7925
  172DOPC   C2420946   2.681   4.611  14.024  0.6038 -0.3451 -0.4355
  172DOPC   H4R20947   2.627   4.517  14.049 -0.8411  0.3849 -0.7072
  172DOPC   H4S20948   2.606   4.685  13.989  1.1936 -0.5834 -2.3148
  172DOPC   C2520949   2.745   4.665  14.149 -0.2005 -0.8485 -0.6104
  172DOPC   H5R20950   2.804   4.755  14.119 -0.6980  0.3588  1.7565
  172DOPC   H5S20951   2.821   4.590  14.179  3.4060  2.5387 -0.4801
  172DOPC   C2620952   2.641   4.691  14.260 -0.5456 -0.1641 -0.5673
  172DOPC   H6R20953   2.596   4.591  14.277  1.3848 -0.8917  0.6029
  172DOPC   H6S20954   2.566   4.763  14.220  0.1344  0.4308 -0.7807
  172DOPC   C2720955   2.693   4.733  14.400 -0.1952 -0.9886 -0.2125
  172DOPC   H7R20956   2.607   4.744  14.470  0.1977 -1.5900  0.3813
  172DOPC   H7S20957   2.747   4.829  14.384 -1.6663 -0.0959 -0.0536
  172DOPC   C2820958   2.798   4.645  14.461 -0.5223 -0.0184 -0.9966
  172DOPC   H8R20959   2.898   4.628  14.414  0.1802 -1.3843  0.8774
  172DOPC   H8S20960   2.760   4.541  14.458  0.7877 -0.5073 -1.8026
  172DOPC   C2920961   2.843   4.699  14.593  0.7393 -0.6798  1.0388
  172DOPC   H9R20962   2.932   4.764  14.587 -1.2838  2.2370  0.0181
  172DOPC  C21020963   2.809   4.649  14.713  0.8596  0.5601 -0.0866
  172DOPC  H10R20964   2.858   4.691  14.802  1.8581  2.3233 -1.4052
  172DOPC  C21120965   2.730   4.527  14.730  1.3486  0.2013 -0.3959
  172DOPC  H11R20966   2.692   4.478  14.638 -0.8528  1.2115 -0.0963
  172DOPC  H11S20967   2.632   4.548  14.777  1.4780 -0.7720  0.3474
  172DOPC  C21220968   2.802   4.433  14.825  0.4417  0.4688  0.2697
  172DOPC  H12R20969   2.817   4.492  14.918 -0.2301  2.8341 -1.0386
  172DOPC  H12S20970   2.908   4.411  14.800  0.7192  0.7691  1.1385
  172DOPC  C21320971   2.732   4.302  14.855  0.2571  0.9467  0.0789
  172DOPC  H13R20972   2.722   4.235  14.767 -1.9327  1.5791 -0.2175
  172DOPC  H13S20973   2.629   4.320  14.892  0.0382 -2.9317  1.8270
  172DOPC  C21420974   2.808   4.222  14.963  0.4782 -0.2820 -0.5929
  172DOPC  H14R20975   2.830   4.294  15.045  0.4392 -0.9162 -0.0073
  172DOPC  H14S20976   2.899   4.175  14.921  1.0027  1.1398 -1.1146
  172DOPC  C21520977   2.735   4.109  15.042  0.1884 -0.1155 -0.2289
  172DOPC  H15R20978   2.794   4.082  15.133 -1.6538  1.4271  1.5064
  172DOPC  H15S20979   2.732   4.017  14.980  0.3197 -1.8027  2.1239
  172DOPC  C21620980   2.604   4.140  15.107  0.1756  0.1943 -0.2772
  172DOPC  H16R20981   2.557   4.047  15.145  0.5405  0.8514  1.9348
  172DOPC  H16S20982   2.535   4.181  15.030 -1.1525 -0.5771  0.4612
  172DOPC  C21720983   2.619   4.244  15.215  0.3945  0.1308  0.1840
  172DOPC  H17R20984   2.671   4.336  15.180 -0.5447  0.6569  0.1632
  172DOPC  H17S20985   2.682   4.201  15.296 -1.9693 -1.2495  1.3962
  172DOPC  C21820986   2.484   4.275  15.282  0.4834 -0.0855  0.0132
  172DOPC  H18R20987   2.419   4.185  15.283  1.1026 -0.5426 -0.2816
  172DOPC  H18S20988   2.425   4.345  15.218  0.0843 -0.3239  0.1122
  172DOPC  H18T20989   2.492   4.322  15.382 -0.2293 -0.3328  0.1923
  172DOPC   C3320990   2.630   5.049  13.599  0.1681  0.4039 -0.1551
  172DOPC   H3X20991   2.574   5.136  13.558 -1.5928 -0.3345  0.5492
  172DOPC   H3Y20992   2.729   5.089  13.630  0.7359 -1.1443  0.1079
  172DOPC   C3420993   2.554   4.991  13.718  0.4150 -0.0824  0.5787
  172DOPC   H4X20994   2.605   4.896  13.745  1.1241  0.8633  2.7746
  172DOPC   H4Y20995   2.455   4.962  13.678  0.9041 -1.5076  0.3507
  172DOPC   C3520996   2.535   5.087  13.837 -0.3788  0.4125  0.5468
  172DOPC   H5X20997   2.482   5.177  13.798 -0.3309  0.7859  1.3109
  172DOPC   H5Y20998   2.639   5.121  13.856 -0.0201  1.5414 -2.8349
  172DOPC   C3620999   2.454   5.024  13.959  0.3847  0.0340 -0.5586
  172DOPC   H6X21000   2.360   4.975  13.927 -0.4978  0.2721  1.5010
  172DOPC   H6Y21001   2.521   4.945  14.001 -1.3599 -0.7049  1.0081
  172DOPC   C3721002   2.430   5.123  14.074 -0.0711  0.3896  0.7898
  172DOPC   H7X21003   2.377   5.212  14.034  1.1942 -0.2462 -2.6111
  172DOPC   H7Y21004   2.365   5.066  14.145 -2.0582 -0.2746 -1.4430
  172DOPC   C3821005   2.561   5.164  14.154  0.3294  0.6171  0.2369
  172DOPC   H8X21006   2.632   5.205  14.078 -0.5747 -1.1131 -1.6513
  172DOPC   H8Y21007   2.606   5.070  14.192 -1.5497  0.6621  2.8044
  172DOPC   C3921008   2.521   5.264  14.261 -0.1889 -0.2266 -0.1626
  172DOPC   H9X21009   2.526   5.370  14.232  1.1894 -0.2273  0.0188
  172DOPC  C31021010   2.504   5.233  14.391  0.6199 -0.1060 -0.2770
  172DOPC  H10X21011   2.451   5.305  14.455  0.6239  1.1999 -1.6902
  172DOPC  C31121012   2.506   5.090  14.450  0.1639  0.2981  1.0465
  172DOPC  H11X21013   2.607   5.045  14.449  0.2446  0.1693  4.4226
  172DOPC  H11Y21014   2.434   5.028  14.392  0.7935  0.1337  0.4297
  172DOPC  C31221015   2.457   5.084  14.592  0.2056 -0.4472  0.5612
  172DOPC  H12X21016   2.349   5.107  14.601 -0.0330 -1.7858  1.3777
  172DOPC  H12Y21017   2.497   5.171  14.648  0.0899  0.5108 -0.7715
  172DOPC  C31321018   2.488   4.955  14.671  0.1471 -0.2631  0.1140
  172DOPC  H13X21019   2.431   4.871  14.627  1.0180 -0.9717  0.3087
  172DOPC  H13Y21020   2.595   4.927  14.656  0.3049 -0.5774  1.6881
  172DOPC  C31421021   2.467   4.960  14.822  0.5393 -0.3493 -0.2084
  172DOPC  H14X21022   2.536   5.035  14.868  1.1061  0.6096 -2.4675
  172DOPC  H14Y21023   2.363   4.999  14.829 -0.1066 -2.2216  1.8768
  172DOPC  C31521024   2.488   4.826  14.884  0.1187  0.5565 -0.1469
  172DOPC  H15X21025   2.593   4.789  14.877  0.1517  0.4571  0.8379
  172DOPC  H15Y21026   2.428   4.745  14.836  0.6079 -1.3045  2.1902
  172DOPC  C31621027   2.458   4.825  15.033 -0.0753 -0.4965  0.7672
  172DOPC  H16X21028   2.521   4.897  15.089 -2.3665 -0.1559  3.1214
  172DOPC  H16Y21029   2.356   4.865  15.052  0.4109  0.9784  0.3929
  172DOPC  C31721030   2.457   4.692  15.106  0.2193 -0.1282 -0.1098
  172DOPC  H17X21031   2.379   4.628  15.059 -0.0736  0.9883 -1.1839
  172DOPC  H17Y21032   2.548   4.629  15.095  0.5992 -0.2199  2.8639
  172DOPC  C31821033   2.434   4.696  15.263  0.4607  0.2195  0.0024
  172DOPC  H18X21034   2.430   4.591  15.301 -0.1991  0.8216  1.7245
  172DOPC  H18Y21035   2.531   4.735  15.299  0.9658 -0.3080 -0.7538
  172DOPC  H18Z21036   2.345   4.754  15.294 -0.2380  0.3525 -2.1522
  173DOPC     N21037   1.229   3.656  13.355  0.2372  0.9552 -0.3022
  173DOPC   C1221038   1.154   3.735  13.459 -0.1208 -0.1030 -0.3946
  173DOPC  H12A21039   1.225   3.767  13.534  2.4002  1.6522 -3.2997
  173DOPC  H12B21040   1.087   3.672  13.516  1.1817  0.4556  1.8922
  173DOPC   C1321041   1.335   3.738  13.287 -0.1592 -0.3132  0.1006
  173DOPC  H13A21042   1.312   3.841  13.260  1.6663 -0.1552 -0.9577
  173DOPC  H13B21043   1.420   3.753  13.352  1.2217 -0.4068 -1.6293
  173DOPC  H13C21044   1.369   3.692  13.196 -1.7275 -0.0765 -0.6470
  173DOPC   C1421045   1.134   3.603  13.251 -0.2728 -0.3488  0.1837
  173DOPC  H14A21046   1.081   3.686  13.207 -0.2880  0.5744  1.8624
  173DOPC  H14B21047   1.194   3.556  13.174  2.0945 -0.8046  2.1638
  173DOPC  H14C21048   1.053   3.546  13.293 -1.1512 -1.3523 -2.6133
  173DOPC   C1521049   1.301   3.543  13.422 -0.8954  0.8803  0.0128
  173DOPC  H15A21050   1.354   3.493  13.342 -0.5259  0.7611  0.3293
  173DOPC  H15B21051   1.231   3.476  13.470 -0.1014 -1.5879 -2.0306
  173DOPC  H15C21052   1.369   3.569  13.502 -0.9417 -0.3092  0.4689
  173DOPC   C1121053   1.072   3.866  13.426 -1.0539  0.3695  0.0504
  173DOPC  H11A21054   0.987   3.852  13.356  0.2322  2.5982 -2.0831
  173DOPC  H11B21055   1.016   3.891  13.519 -1.0782 -1.5641  0.6114
  173DOPC     P21056   1.160   4.108  13.460  0.0882 -0.3644  0.0159
  173DOPC   O1321057   1.030   4.182  13.464  0.3409  0.3009 -0.3191
  173DOPC   O1421058   1.275   4.177  13.401  0.4403 -0.4941  0.1841
  173DOPC   O1221059   1.155   3.970  13.377  0.2054 -0.1299 -0.0049
  173DOPC   O1121060   1.211   4.054  13.600 -0.0772  0.2261  0.3322
  173DOPC    C121061   1.149   4.058  13.722  0.3117  0.1614 -0.4707
  173DOPC    HA21062   1.082   3.971  13.734  0.7896 -0.0910  0.4628
  173DOPC    HB21063   1.092   4.150  13.750  0.4964 -0.4523  2.1269
  173DOPC    C221064   1.255   4.032  13.825 -0.5127  0.1105  0.2323
  173DOPC    HS21065   1.307   3.938  13.795  2.2974  2.4400 -3.0661
  173DOPC   O2121066   1.195   4.031  13.958  0.5132  0.1019 -0.2753
  173DOPC   C2121067   1.177   3.913  14.014  0.1403 -0.4221  0.4926
  173DOPC   O2221068   1.205   3.807  13.960  0.1926  0.3837  0.2805
  173DOPC   C2221069   1.118   3.930  14.152  1.0087  0.1009 -0.6206
  173DOPC   H2R21070   1.140   4.034  14.184  0.0859  0.5886 -1.4888
  173DOPC   H2S21071   1.170   3.868  14.229 -1.2677 -0.6784  0.3856
  173DOPC    C321072   1.364   4.141  13.823  0.2369 -0.0423 -0.0089
  173DOPC    HX21073   1.311   4.235  13.849  0.9437  0.3057  0.1896
  173DOPC    HY21074   1.395   4.165  13.719  0.7942  0.5024  0.2783
  173DOPC   O3121075   1.471   4.112  13.916  0.1521 -0.3688  0.0947
  173DOPC   C3121076   1.566   4.034  13.861 -0.0942  0.1488  0.8664
  173DOPC   O3221077   1.577   4.012  13.739  0.1430 -0.2438  0.1636
  173DOPC   C3221078   1.651   3.973  13.975  0.2730  0.4686  0.2456
  173DOPC   H2X21079   1.667   3.867  13.946 -1.6595  0.4513 -0.9731
  173DOPC   H2Y21080   1.748   4.027  13.967  1.6905 -1.9547 -0.0737
  173DOPC   C2321081   0.966   3.904  14.148 -0.2273 -0.2209  0.1135
  173DOPC   H3R21082   0.948   3.808  14.095  0.7203  0.3690 -1.3313
  173DOPC   H3S21083   0.923   3.990  14.092 -2.0938  0.8773  2.9968
  173DOPC   C2421084   0.911   3.891  14.287 -0.1270 -0.2456  0.6050
  173DOPC   H4R21085   0.952   3.980  14.340  0.2397  0.0011 -0.0752
  173DOPC   H4S21086   0.945   3.805  14.348 -0.5099 -1.3715 -0.7174
  173DOPC   C2521087   0.755   3.902  14.289 -0.8773 -0.6827  0.0340
  173DOPC   H5R21088   0.718   3.831  14.213 -1.6104 -0.6469  0.3501
  173DOPC   H5S21089   0.712   4.001  14.261 -3.6078 -1.5391  0.9775
  173DOPC   C2621090   0.691   3.869  14.424  1.0166  0.5237  0.6580
  173DOPC   H6R21091   0.742   3.931  14.501 -0.9400  1.5306  1.2170
  173DOPC   H6S21092   0.709   3.764  14.457 -0.6459  0.4414  1.3997
  173DOPC   C2721093   0.537   3.905  14.431 -0.6578 -0.3197  0.6130
  173DOPC   H7R21094   0.483   3.860  14.346  1.9873 -1.0469 -0.7936
  173DOPC   H7S21095   0.518   4.014  14.429  0.2261 -0.1680 -0.8489
  173DOPC   C2821096   0.471   3.851  14.551 -0.3954 -0.1936  0.1855
  173DOPC   H8R21097   0.518   3.907  14.635  0.0254 -1.1974  0.6422
  173DOPC   H8S21098   0.501   3.750  14.589 -2.4912  0.4688  4.0760
  173DOPC   C2921099   0.320   3.868  14.557  1.4581 -0.1676 -0.5262
  173DOPC   H9R21100   0.294   3.974  14.567  0.8214 -0.3948  0.3341
  173DOPC  C21021101   0.223   3.773  14.548 -0.4771 -0.2953 -0.6090
  173DOPC  H10R21102   0.121   3.810  14.559  0.0879  1.1277  0.0340
  173DOPC  C21121103   0.254   3.629  14.532  0.3058  0.1535  0.4913
  173DOPC  H11R21104   0.269   3.566  14.623  1.0727 -0.3656  0.0196
  173DOPC  H11S21105   0.344   3.611  14.470  1.3064  0.1113  1.8916
  173DOPC  C21221106   0.145   3.556  14.451  0.3654 -0.0623  0.3173
  173DOPC  H12R21107   0.043   3.561  14.494 -0.7505 -2.3086 -1.8161
  173DOPC  H12S21108   0.159   3.446  14.447  1.8415  0.1387 -1.2960
  173DOPC  C21321109   0.135   3.599  14.299 -0.1549 -0.1646 -0.1449
  173DOPC  H13R21110   0.097   3.703  14.292 -0.3943 -0.2163  0.4005
  173DOPC  H13S21111   0.064   3.530  14.249  0.9971 -0.4573 -1.4492
  173DOPC  C21421112   0.264   3.591  14.222 -0.4522 -0.0170 -0.1561
  173DOPC  H14R21113   0.303   3.491  14.252 -1.0344 -0.5806 -1.1882
  173DOPC  H14S21114   0.328   3.673  14.260 -1.2152  0.6310 -0.2287
  173DOPC  C21521115   0.248   3.591  14.064  0.3594 -0.4225 -0.2308
  173DOPC  H15R21116   0.216   3.695  14.045 -2.8219 -1.4696 -1.3001
  173DOPC  H15S21117   0.160   3.535  14.025 -1.9949  1.7850  1.5583
  173DOPC  C21621118   0.382   3.554  13.992  0.6431  0.8491  0.1393
  173DOPC  H16R21119   0.370   3.575  13.884 -0.9303  0.1473  0.1494
  173DOPC  H16S21120   0.392   3.443  13.993 -0.4267  0.7502  0.5535
  173DOPC  C21721121   0.505   3.612  14.050 -0.3933 -0.0633  0.7264
  173DOPC  H17R21122   0.531   3.562  14.146 -0.8845  1.2808  1.5941
  173DOPC  H17S21123   0.478   3.719  14.064 -1.0269 -0.3526  1.8154
  173DOPC  C21821124   0.610   3.601  13.954  0.4367 -0.2935  0.8177
  173DOPC  H18R21125   0.645   3.498  13.928  3.0483  0.6729  0.1985
  173DOPC  H18S21126   0.693   3.672  13.974 -0.2704  0.3849  1.3769
  173DOPC  H18T21127   0.577   3.635  13.854  2.8119 -0.3722 -0.0569
  173DOPC   C3321128   1.591   3.997  14.113 -0.3083 -0.7311  0.0537
  173DOPC   H3X21129   1.498   3.939  14.129 -2.2491  2.3284  0.8443
  173DOPC   H3Y21130   1.566   4.105  14.123  1.0795 -0.1046 -2.3462
  173DOPC   C3421131   1.691   3.960  14.228  0.3567  0.1408 -0.4210
  173DOPC   H4X21132   1.792   3.996  14.200  0.1390  1.7869  0.8274
  173DOPC   H4Y21133   1.692   3.849  14.240 -0.9864  0.1720  0.1824
  173DOPC   C3521134   1.652   4.026  14.358 -0.4818  0.1193 -0.0950
  173DOPC   H5X21135   1.641   4.137  14.351  0.2569  0.3169  1.5389
  173DOPC   H5Y21136   1.728   4.008  14.436 -2.1294  0.8662  1.7799
  173DOPC   C3621137   1.519   3.992  14.418  0.0942 -0.7553 -0.2765
  173DOPC   H6X21138   1.430   4.005  14.352 -1.0315 -1.2410  1.0843
  173DOPC   H6Y21139   1.527   3.881  14.429 -0.3207 -0.6024  2.0672
  173DOPC   C3721140   1.494   4.059  14.553 -0.4903  0.0693  0.3873
  173DOPC   H7X21141   1.573   4.013  14.616 -1.9257 -1.9217  0.8127
  173DOPC   H7Y21142   1.513   4.168  14.540  0.1304  0.0263  0.8934
  173DOPC   C3821143   1.352   4.023  14.600 -0.4765  1.3673  0.0878
  173DOPC   H8X21144   1.346   3.913  14.614 -2.3187  1.4053 -0.2255
  173DOPC   H8Y21145   1.286   4.039  14.512  0.4157 -1.4453 -1.1899
  173DOPC   C3921146   1.319   4.088  14.730 -0.1041  0.0322  0.3016
  173DOPC   H9X21147   1.331   4.029  14.822 -0.2210  1.6362  1.3887
  173DOPC  C31021148   1.249   4.197  14.740  0.4139 -0.1985 -0.2163
  173DOPC  H10X21149   1.222   4.232  14.841  0.4374 -1.0307  0.0818
  173DOPC  C31121150   1.199   4.281  14.626 -0.3074  0.6678 -0.8520
  173DOPC  H11X21151   1.269   4.281  14.539  0.5707 -1.0493 -0.1879
  173DOPC  H11Y21152   1.181   4.387  14.656  0.6900  0.5048  0.4295
  173DOPC  C31221153   1.070   4.224  14.579 -0.3526  0.4112 -0.7559
  173DOPC  H12X21154   1.076   4.115  14.557 -0.2341  0.3899 -0.6185
  173DOPC  H12Y21155   1.046   4.277  14.485  0.2252  1.6858 -0.2090
  173DOPC  C31321156   0.957   4.246  14.679  0.1596  0.0539 -0.4032
  173DOPC  H13X21157   0.977   4.172  14.760 -3.8008  1.1954  1.9020
  173DOPC  H13Y21158   0.968   4.343  14.731  0.7523  0.3813 -1.1290
  173DOPC  C31421159   0.815   4.216  14.628 -0.4775  0.2400  0.3715
  173DOPC  H14X21160   0.801   4.117  14.579 -0.3692  0.3325  0.1508
  173DOPC  H14Y21161   0.739   4.225  14.708  1.7827 -0.0187  2.6659
  173DOPC  C31521162   0.758   4.326  14.525  0.6157 -0.1687  0.5939
  173DOPC  H15X21163   0.828   4.334  14.440  0.6332 -2.1104  0.3685
  173DOPC  H15Y21164   0.760   4.426  14.574  2.0545  0.2559 -0.2952
  173DOPC  C31621165   0.622   4.292  14.464 -0.2763  0.1832  0.0312
  173DOPC  H16X21166   0.636   4.191  14.419  0.4728 -0.7130  2.1633
  173DOPC  H16Y21167   0.547   4.273  14.544 -0.0664 -1.3777 -0.1087
  173DOPC  C31721168   0.561   4.396  14.380  0.2432 -0.0075  0.3701
  173DOPC  H17X21169   0.558   4.485  14.446 -0.2460 -0.0991  0.4779
  173DOPC  H17Y21170   0.629   4.406  14.293  0.3153 -1.0686  0.2946
  173DOPC  C31821171   0.423   4.355  14.338 -0.3780  0.6503  0.2075
  173DOPC  H18X21172   0.379   4.427  14.266 -1.5452  1.2987  1.5119
  173DOPC  H18Y21173   0.424   4.251  14.297 -1.2600  0.0810  1.5306
  173DOPC  H18Z21174   0.353   4.343  14.423 -0.6848 -1.0829 -0.2364
  174DOPC     N21175   3.603   3.328  13.713 -0.0933  0.3424 -0.8554
  174DOPC   C1221176   3.536   3.412  13.608 -0.5909 -0.1551  0.1491
  174DOPC  H12A21177   3.488   3.499  13.652 -0.3348 -1.0546  2.3118
  174DOPC  H12B21178   3.454   3.352  13.571 -0.2251 -1.1312  0.8861
  174DOPC   C1321179   3.707   3.408  13.776 -0.8342 -0.4070  0.4986
  174DOPC  H13A21180   3.675   3.498  13.826  2.1088  2.1184 -1.7832
  174DOPC  H13B21181   3.774   3.346  13.834  0.6927  1.3182  0.6632
  174DOPC  H13C21182   3.784   3.450  13.713  1.8282  0.9007  4.2897
  174DOPC   C1421183   3.652   3.206  13.647 -0.4351 -0.0191 -0.5073
  174DOPC  H14A21184   3.709   3.136  13.706 -3.5101 -1.5078  0.9618
  174DOPC  H14B21185   3.563   3.153  13.616 -0.6263 -0.2274  0.3692
  174DOPC  H14C21186   3.703   3.253  13.565 -1.8762  2.8447  0.0986
  174DOPC   C1521187   3.495   3.287  13.816  0.5183 -0.5596 -0.6451
  174DOPC  H15A21188   3.547   3.237  13.896 -0.0637 -2.0370 -1.1512
  174DOPC  H15B21189   3.424   3.211  13.783  1.2070 -1.2102 -0.6497
  174DOPC  H15C21190   3.444   3.372  13.858  1.2018 -0.6352  0.3569
  174DOPC   C1121191   3.618   3.478  13.500 -0.0569 -0.1927  0.1490
  174DOPC  H11A21192   3.678   3.403  13.444  0.9972  0.8028 -0.0827
  174DOPC  H11B21193   3.536   3.520  13.438 -0.9556 -1.9811  0.0567
  174DOPC     P21194   3.805   3.647  13.461  0.0204 -0.0367 -0.1248
  174DOPC   O1321195   3.746   3.696  13.335  0.3598 -0.0179 -0.2259
  174DOPC   O1421196   3.915   3.552  13.448  0.4456 -0.2425  0.2735
  174DOPC   O1221197   3.694   3.580  13.550  0.0044  0.3911  0.5786
  174DOPC   O1121198   3.865   3.775  13.541 -0.1943  0.0629  0.0159
  174DOPC    C121199   3.834   3.777  13.680 -0.8953 -1.1577  0.4775
  174DOPC    HA21200   3.892   3.695  13.726  1.0961 -0.9654 -1.5035
  174DOPC    HB21201   3.725   3.774  13.696 -0.8888 -0.0890  0.7971
  174DOPC    C221202   3.884   3.911  13.748 -0.3873 -0.4636  0.5946
  174DOPC    HS21203   3.840   3.996  13.693  0.7875 -1.7631 -2.6269
  174DOPC   O2121204   4.027   3.917  13.751 -0.0884 -0.3429 -0.0921
  174DOPC   C2121205   4.066   4.015  13.833  0.0542 -0.5219 -0.8067
  174DOPC   O2221206   4.016   4.124  13.863  0.3514  0.1420  0.1355
  174DOPC   C2221207   4.212   3.974  13.867  0.6635  0.3166 -0.0780
  174DOPC   H2R21208   4.279   4.033  13.801  2.1705  0.7652  1.7617
  174DOPC   H2S21209   4.226   3.864  13.861 -0.6203 -0.1318  3.1707
  174DOPC    C321210   3.823   3.913  13.894  0.2180  0.1378  0.0457
  174DOPC    HX21211   3.717   3.882  13.891  0.2340  0.0892 -0.0120
  174DOPC    HY21212   3.818   4.017  13.933  0.2154  0.2362 -0.2190
  174DOPC   O3121213   3.898   3.838  13.990 -0.0378  0.4812 -0.1222
  174DOPC   C3121214   3.840   3.723  14.028  0.2364 -0.2857 -1.1578
  174DOPC   O3221215   3.732   3.681  13.988 -0.6177 -0.3974 -0.8270
  174DOPC   C3221216   3.938   3.649  14.120 -0.6872  0.4790  0.1041
  174DOPC   H2X21217   4.033   3.701  14.099 -0.2632  0.2531  1.3786
  174DOPC   H2Y21218   3.912   3.654  14.228  0.9168  0.0768  0.5328
  174DOPC   C2321219   4.242   4.019  14.014 -0.3972  0.0785  0.1363
  174DOPC   H3R21220   4.257   4.128  14.000  1.4982 -0.4247 -2.6961
  174DOPC   H3S21221   4.341   3.980  14.046 -0.3383  0.9822  1.0798
  174DOPC   C2421222   4.135   3.989  14.123 -0.4512 -0.1240 -0.2948
  174DOPC   H4R21223   4.142   3.883  14.156 -1.1048  0.3237  1.4229
  174DOPC   H4S21224   4.033   3.998  14.080 -0.1081 -0.6315 -1.2386
  174DOPC   C2521225   4.164   4.072  14.251 -0.6495  0.1705 -0.0871
  174DOPC   H5R21226   4.163   4.179  14.222 -1.7956  0.2658  0.2536
  174DOPC   H5S21227   4.269   4.052  14.279 -0.0706  0.2896 -2.0313
  174DOPC   C2621228   4.071   4.044  14.371 -0.0180 -0.5912  0.7205
  174DOPC   H6R21229   4.040   3.939  14.388 -1.9345 -0.2361 -0.3070
  174DOPC   H6S21230   3.979   4.097  14.339  0.5635 -1.2356 -2.2297
  174DOPC   C2721231   4.124   4.124  14.496  0.7031  0.2196  0.5526
  174DOPC   H7R21232   4.127   4.227  14.456 -0.4405 -0.1441 -0.5299
  174DOPC   H7S21233   4.227   4.091  14.523 -0.3718 -3.0484  1.1070
  174DOPC   C2821234   4.022   4.111  14.613  0.1431 -0.5058  0.3634
  174DOPC   H8R21235   3.919   4.130  14.576 -0.5831  1.4613  3.0309
  174DOPC   H8S21236   4.045   4.204  14.669 -0.1080 -0.7071  0.8098
  174DOPC   C2921237   4.044   3.985  14.696 -0.2602 -0.0741  0.2577
  174DOPC   H9R21238   4.129   3.924  14.663 -0.1092  1.2939 -2.0935
  174DOPC  C21021239   3.961   3.933  14.790 -0.5143  0.5523  0.4671
  174DOPC  H10R21240   3.981   3.832  14.827  2.1621  1.1130  0.7487
  174DOPC  C21121241   3.831   3.998  14.837 -0.4044 -0.2550 -0.3567
  174DOPC  H11R21242   3.809   4.092  14.782 -3.1163 -1.9127 -2.3892
  174DOPC  H11S21243   3.839   4.015  14.946  1.1004 -1.2707 -0.2797
  174DOPC  C21221244   3.702   3.908  14.829  0.2252 -0.1692  0.4561
  174DOPC  H12R21245   3.725   3.810  14.873  1.7729 -0.9141 -1.8261
  174DOPC  H12S21246   3.675   3.892  14.722  0.8924 -0.5281  0.3408
  174DOPC  C21321247   3.588   3.974  14.903  0.8151  0.3714 -0.0978
  174DOPC  H13R21248   3.608   3.973  15.012  1.9047 -0.3776 -0.2879
  174DOPC  H13S21249   3.501   3.911  14.873  0.3379  1.6141 -1.4761
  174DOPC  C21421250   3.553   4.114  14.856  0.2727  0.0766  0.3931
  174DOPC  H14R21251   3.585   4.115  14.749 -0.5694 -1.3268  0.1067
  174DOPC  H14S21252   3.618   4.179  14.919  0.4761 -0.7159  1.0097
  174DOPC  C21521253   3.407   4.143  14.867  0.5977  0.1966 -0.1422
  174DOPC  H15R21254   3.382   4.128  14.974  2.5704  2.2095  0.6762
  174DOPC  H15S21255   3.352   4.069  14.805  1.5943 -0.1309 -0.6536
  174DOPC  C21621256   3.391   4.294  14.843  1.3881  0.1134  0.1802
  174DOPC  H16R21257   3.432   4.313  14.741  0.0705  0.3524 -0.3203
  174DOPC  H16S21258   3.454   4.345  14.919 -1.0515 -1.5479  3.5414
  174DOPC  C21721259   3.239   4.339  14.844  0.3056  0.3323 -0.2984
  174DOPC  H17R21260   3.184   4.311  14.751 -1.3295 -1.1495  1.0578
  174DOPC  H17S21261   3.248   4.449  14.835  0.0236  0.3031 -1.0351
  174DOPC  C21821262   3.155   4.309  14.963 -0.1181 -0.0428  0.2177
  174DOPC  H18R21263   3.150   4.199  14.983 -1.7475 -0.3600 -1.6519
  174DOPC  H18S21264   3.050   4.340  14.946 -0.2143 -1.0679 -1.2371
  174DOPC  H18T21265   3.205   4.355  15.051 -0.2403 -0.2294  0.3861
  174DOPC   C3321266   3.967   3.506  14.079 -0.8502 -0.0816  0.1483
  174DOPC   H3X21267   4.023   3.517  13.984 -1.5583 -0.2578 -0.2993
  174DOPC   H3Y21268   3.878   3.448  14.047  0.2869 -2.2181  0.6342
  174DOPC   C3421269   4.046   3.419  14.175 -0.0569 -0.3050  0.1738
  174DOPC   H4X21270   4.141   3.470  14.203  0.6849 -0.8447 -1.2576
  174DOPC   H4Y21271   4.076   3.326  14.122 -0.4171  0.3167 -1.1860
  174DOPC   C3521272   3.969   3.371  14.302  0.1361  0.6704  0.2323
  174DOPC   H5X21273   3.918   3.275  14.281  0.2274  0.2700  1.7669
  174DOPC   H5Y21274   3.898   3.454  14.324 -0.8358  0.1150 -0.7119
  174DOPC   C3621275   4.053   3.354  14.425 -0.0279  0.3634  0.2978
  174DOPC   H6X21276   4.148   3.302  14.401 -1.1445 -0.8672 -1.6821
  174DOPC   H6Y21277   4.081   3.458  14.452  1.1706  0.2283 -0.3736
  174DOPC   C3721278   3.984   3.282  14.538  0.3973 -0.3632  0.2772
  174DOPC   H7X21279   4.047   3.302  14.627  1.3273 -0.3222 -0.3817
  174DOPC   H7Y21280   3.885   3.332  14.548 -0.1301 -0.7288 -2.3135
  174DOPC   C3821281   3.965   3.131  14.512  0.0502  0.2076 -0.2499
  174DOPC   H8X21282   4.067   3.096  14.485 -0.1489  0.5584 -1.5588
  174DOPC   H8Y21283   3.899   3.116  14.424 -0.8334  2.2848 -0.0017
  174DOPC   C3921284   3.906   3.049  14.616  0.8251  0.2717 -0.4386
  174DOPC   H9X21285   3.849   3.100  14.695 -1.1046 -1.5665 -0.5420
  174DOPC  C31021286   3.890   2.917  14.609  0.3326  0.1860 -0.4012
  174DOPC  H10X21287   3.852   2.857  14.694 -0.8870 -0.3212 -1.2777
  174DOPC  C31121288   3.949   2.832  14.502  0.6919 -0.2594 -0.8967
  174DOPC  H11X21289   3.950   2.887  14.405 -0.4060  3.4880  1.0221
  174DOPC  H11Y21290   3.888   2.746  14.467  1.5589 -0.3929 -2.1730
  174DOPC  C31221291   4.087   2.783  14.527 -0.2941 -0.1364 -0.1525
  174DOPC  H12X21292   4.149   2.875  14.539 -1.3462  0.6872 -0.9200
  174DOPC  H12Y21293   4.116   2.733  14.432 -0.9763  2.4361 -1.8351
  174DOPC  C31321294   4.092   2.692  14.655 -0.6276 -0.2062 -0.8069
  174DOPC  H13X21295   4.056   2.744  14.747 -2.0443 -2.6247  0.1194
  174DOPC  H13Y21296   4.021   2.608  14.643  0.4034 -1.0545 -1.0743
  174DOPC  C31421297   4.236   2.645  14.693  0.2377 -0.7818  0.7494
  174DOPC  H14X21298   4.236   2.554  14.758 -1.9890 -0.5634  1.1606
  174DOPC  H14Y21299   4.301   2.624  14.606  0.1009  0.1892  0.3967
  174DOPC  C31521300   4.317   2.756  14.768 -0.2179 -0.2110 -0.5387
  174DOPC  H15X21301   4.252   2.789  14.852  0.8553  3.2538 -0.9128
  174DOPC  H15Y21302   4.318   2.843  14.699  0.2751 -2.2765 -3.3155
  174DOPC  C31621303   4.459   2.721  14.816 -0.4355 -0.5393  0.6588
  174DOPC  H16X21304   4.494   2.814  14.866  0.3865 -0.4630 -0.0281
  174DOPC  H16Y21305   4.469   2.644  14.896  1.7571 -2.2414 -1.1117
  174DOPC  C31721306   4.554   2.687  14.703  0.1253  0.1840  0.0673
  174DOPC  H17X21307   4.521   2.584  14.680 -2.0749  1.2821 -2.1930
  174DOPC  H17Y21308   4.534   2.738  14.606  1.4956  0.4066 -0.1234
  174DOPC  C31821309   4.695   2.687  14.743  0.0398  0.3083 -0.4273
  174DOPC  H18X21310   4.705   2.648  14.846 -1.5478  2.9622  0.8713
  174DOPC  H18Y21311   4.749   2.614  14.679  0.2409  0.6800 -0.6859
  174DOPC  H18Z21312   4.740   2.789  14.735 -1.5520  0.9200 -4.0775
  175DOPC     N21313   2.993   5.769  13.075  0.0435 -0.3551  0.2539
  175DOPC   C1221314   3.005   5.709  13.208 -0.2649 -0.4831 -0.4011
  175DOPC  H12A21315   3.105   5.726  13.247 -0.6036  0.7857 -0.0413
  175DOPC  H12B21316   2.984   5.603  13.207 -0.3449 -0.5303  1.6724
  175DOPC   C1321317   3.015   5.918  13.085 -0.0323  0.4756 -0.2468
  175DOPC  H13A21318   2.982   5.982  13.004 -2.6708  1.7275  1.6685
  175DOPC  H13B21319   2.969   5.954  13.176 -0.8331 -0.7147 -0.1641
  175DOPC  H13C21320   3.120   5.939  13.099 -0.1657 -0.4359  2.7618
  175DOPC   C1421321   2.856   5.744  13.014 -0.3850  0.0457 -0.5370
  175DOPC  H14A21322   2.860   5.779  12.912 -0.0494  1.4566 -0.0697
  175DOPC  H14B21323   2.829   5.640  13.027  1.3627 -0.0708  4.0677
  175DOPC  H14C21324   2.774   5.803  13.051 -1.3761  0.1101 -2.7239
  175DOPC   C1521325   3.100   5.707  12.982 -0.7061 -0.0955  0.4133
  175DOPC  H15A21326   3.201   5.742  13.001  0.6288 -2.3300 -1.8961
  175DOPC  H15B21327   3.072   5.741  12.884  0.9511 -0.5712 -0.2687
  175DOPC  H15C21328   3.103   5.600  12.999  1.6137 -0.4015 -1.3362
  175DOPC   C1121329   2.918   5.767  13.326  0.0960  0.2599  0.3518
  175DOPC  H11A21330   2.812   5.767  13.294 -0.1244  0.8480  1.0630
  175DOPC  H11B21331   2.924   5.706  13.419 -0.5194 -0.3190  0.0174
  175DOPC     P21332   3.013   5.944  13.481  0.0479  0.2747 -0.3083
  175DOPC   O1321333   3.033   6.094  13.483 -0.1950 -0.3624  0.4809
  175DOPC   O1421334   3.135   5.867  13.509  0.3189  0.0413 -0.1197
  175DOPC   O1221335   2.939   5.903  13.350  0.2157 -0.2544 -0.9389
  175DOPC   O1121336   2.911   5.901  13.593  0.4752  0.0370 -0.1160
  175DOPC    C121337   2.763   5.927  13.583 -0.2014 -0.0704  0.4485
  175DOPC    HA21338   2.720   5.859  13.660 -0.8506 -0.6341 -0.3956
  175DOPC    HB21339   2.727   5.891  13.485  0.7116 -1.0129  0.4432
  175DOPC    C221340   2.715   6.065  13.615  0.1835  0.1138  0.0770
  175DOPC    HS21341   2.749   6.131  13.533 -1.5222  0.2898 -0.5220
  175DOPC   O2121342   2.764   6.106  13.749  0.4829  1.1471 -0.0061
  175DOPC   C2121343   2.809   6.227  13.749  0.3308 -0.0948 -0.6350
  175DOPC   O2221344   2.814   6.305  13.655  0.3291  0.3548  0.7012
  175DOPC   C2221345   2.872   6.262  13.890 -0.3089 -0.3859 -0.6098
  175DOPC   H2R21346   2.969   6.311  13.868 -0.3184 -0.4294 -0.7495
  175DOPC   H2S21347   2.880   6.163  13.939  1.3981 -0.8770 -1.8063
  175DOPC    C321348   2.562   6.082  13.612  0.3366 -0.2416 -0.0604
  175DOPC    HX21349   2.518   6.036  13.520 -0.8106 -0.7438  0.7147
  175DOPC    HY21350   2.540   6.190  13.599  0.4570 -0.3037 -0.8464
  175DOPC   O3121351   2.501   6.026  13.732  0.4347  0.0729  0.0806
  175DOPC   C3121352   2.457   6.106  13.816 -0.0037 -0.9510 -0.6733
  175DOPC   O3221353   2.476   6.231  13.821 -0.0139  0.0004  0.3450
  175DOPC   C3221354   2.392   6.018  13.925  0.1103  0.6033  0.0695
  175DOPC   H2X21355   2.285   6.023  13.896  0.0541 -2.3806 -0.4942
  175DOPC   H2Y21356   2.422   5.912  13.911  0.3971  0.9153 -1.8316
  175DOPC   C2321357   2.783   6.357  13.975  0.8148  0.3165 -0.2171
  175DOPC   H3R21358   2.682   6.313  13.964  0.8513  0.4679 -1.1920
  175DOPC   H3S21359   2.785   6.464  13.945 -0.8804  0.1879 -0.8697
  175DOPC   C2421360   2.834   6.353  14.117  0.1193  0.0572 -0.9639
  175DOPC   H4R21361   2.857   6.457  14.149 -0.0990 -0.2570  0.2757
  175DOPC   H4S21362   2.936   6.309  14.111  0.7344  0.9447  1.4616
  175DOPC   C2521363   2.748   6.271  14.215 -0.3833  0.5866  0.2172
  175DOPC   H5R21364   2.739   6.164  14.185  0.0126 -0.7986  4.3375
  175DOPC   H5S21365   2.650   6.323  14.221  0.1634  1.6229  0.2860
  175DOPC   C2621366   2.793   6.285  14.362  0.1363 -0.3412 -0.5736
  175DOPC   H6R21367   2.801   6.393  14.388  1.8506 -0.8111  1.0227
  175DOPC   H6S21368   2.891   6.238  14.383 -1.0610 -2.0970  1.5241
  175DOPC   C2721369   2.699   6.226  14.469  0.4400 -0.0354  0.5462
  175DOPC   H7R21370   2.686   6.116  14.462 -1.2762  0.1909 -0.2618
  175DOPC   H7S21371   2.601   6.269  14.442  0.3587  0.5948  1.7672
  175DOPC   C2821372   2.738   6.272  14.608  0.0115  0.3472  0.4745
  175DOPC   H8R21373   2.758   6.381  14.601 -0.2137  0.4024  0.6800
  175DOPC   H8S21374   2.831   6.217  14.633 -1.1743 -2.0841 -0.1780
  175DOPC   C2921375   2.636   6.242  14.714  0.1875  0.7205 -0.0557
  175DOPC   H9R21376   2.547   6.182  14.685  1.9785 -2.1264 -0.0464
  175DOPC  C21021377   2.641   6.275  14.840 -0.1981 -0.6802 -0.6769
  175DOPC  H10R21378   2.542   6.271  14.887 -0.4399 -0.9504 -1.2002
  175DOPC  C21121379   2.740   6.347  14.927  0.0288 -0.5398  0.3266
  175DOPC  H11R21380   2.754   6.451  14.893 -0.3040 -1.0204 -1.3699
  175DOPC  H11S21381   2.833   6.286  14.932 -1.0904 -2.7969 -2.7248
  175DOPC  C21221382   2.692   6.354  15.080 -0.1279  0.2311 -0.1190
  175DOPC  H12R21383   2.661   6.258  15.124 -2.6905  0.9774 -0.1474
  175DOPC  H12S21384   2.606   6.425  15.079 -0.8880 -0.6843 -0.2262
  175DOPC  C21321385   2.802   6.416  15.167  0.4724 -0.1700  0.1446
  175DOPC  H13R21386   2.826   6.524  15.152  0.6358 -0.0670  1.0607
  175DOPC  H13S21387   2.894   6.355  15.157  0.4169 -0.1451 -0.5400
  175DOPC  C21421388   2.756   6.419  15.320  0.1979  0.1478 -0.7709
  175DOPC  H14R21389   2.727   6.316  15.347  0.3276  0.1747 -0.5215
  175DOPC  H14S21390   2.673   6.490  15.336 -0.1772 -0.0646 -1.7186
  175DOPC  C21521391   2.860   6.468  15.419 -0.2859  0.2209  0.3551
  175DOPC  H15R21392   2.873   6.573  15.385  0.0011 -0.5740 -2.2273
  175DOPC  H15S21393   2.954   6.421  15.385 -0.2885  0.2754  0.2718
  175DOPC  C21621394   2.826   6.432  15.565  0.0317 -0.2444 -0.6547
  175DOPC  H16R21395   2.835   6.321  15.575  2.3356 -0.0853 -0.2195
  175DOPC  H16S21396   2.717   6.443  15.581  0.2703  0.0949  0.9852
  175DOPC  C21721397   2.902   6.514  15.668  0.0669  0.5893  0.0578
  175DOPC  H17R21398   2.857   6.466  15.757 -1.1338  0.9671 -0.3298
  175DOPC  H17S21399   2.867   6.620  15.666  0.8552  0.8533 -0.5081
  175DOPC  C21821400   3.050   6.484  15.656 -0.0423  0.1912  0.0196
  175DOPC  H18R21401   3.082   6.497  15.550 -0.2525  2.2938  0.1735
  175DOPC  H18S21402   3.065   6.375  15.669  1.4909  0.6734  3.4686
  175DOPC  H18T21403   3.102   6.535  15.740 -2.2477  0.8960  1.0349
  175DOPC   C3321404   2.404   6.069  14.064  1.0053  0.1435  0.1962
  175DOPC   H3X21405   2.395   6.180  14.057  2.9844  0.2336 -1.8792
  175DOPC   H3Y21406   2.505   6.048  14.105  0.7799  1.2117  1.3902
  175DOPC   C3421407   2.294   6.017  14.161  0.6732 -0.0704 -0.2756
  175DOPC   H4X21408   2.300   5.907  14.180 -1.7351 -0.1846  0.1619
  175DOPC   H4Y21409   2.194   6.034  14.115  0.4062  2.1000  0.9735
  175DOPC   C3521410   2.300   6.072  14.306  0.2441  0.8680 -0.3666
  175DOPC   H5X21411   2.302   6.182  14.295  2.3420  0.7829 -1.3559
  175DOPC   H5Y21412   2.399   6.055  14.353 -0.0605 -0.1587 -0.0565
  175DOPC   C3621413   2.187   6.025  14.400  0.5631  0.5416  0.4210
  175DOPC   H6X21414   2.088   6.046  14.355  0.0385  0.2651  1.4176
  175DOPC   H6Y21415   2.188   5.915  14.409 -1.3650  0.4161 -0.4338
  175DOPC   C3721416   2.196   6.093  14.539 -0.4226  0.5587  0.6587
  175DOPC   H7X21417   2.279   6.045  14.594 -2.2689 -2.4286  1.0699
  175DOPC   H7Y21418   2.208   6.202  14.527  0.8242  0.5098  1.3322
  175DOPC   C3821419   2.081   6.078  14.632 -0.1371 -0.3949  0.2115
  175DOPC   H8X21420   1.989   6.085  14.570  0.5162 -0.1795 -0.7497
  175DOPC   H8Y21421   2.069   6.164  14.701  1.8638 -0.1687  0.3337
  175DOPC   C3921422   2.081   5.943  14.698 -0.1652 -0.0299  0.0142
  175DOPC   H9X21423   2.083   5.857  14.629 -0.1998  0.8587 -1.1147
  175DOPC  C31021424   2.080   5.919  14.828 -0.0943  0.3035 -0.0663
  175DOPC  H10X21425   2.088   5.814  14.858  1.8145 -0.4360 -2.7876
  175DOPC  C31121426   2.072   6.015  14.944  1.0376 -0.2157 -0.3854
  175DOPC  H11X21427   1.992   5.982  15.013  1.2503  0.2576  0.0938
  175DOPC  H11Y21428   2.053   6.116  14.902  1.7882 -0.6647 -1.8445
  175DOPC  C31221429   2.204   6.021  15.011 -0.5095 -0.2782 -0.3658
  175DOPC  H12X21430   2.284   6.055  14.942 -0.0941 -0.2767  0.1065
  175DOPC  H12Y21431   2.233   5.930  15.068  2.9734  1.4612  0.9358
  175DOPC  C31321432   2.189   6.125  15.121  0.1317 -1.2913 -0.8422
  175DOPC  H13X21433   2.164   6.224  15.077  1.9039  0.0177  0.9287
  175DOPC  H13Y21434   2.106   6.092  15.187  2.2759 -2.7941  1.2806
  175DOPC  C31421435   2.317   6.137  15.203  0.4663  0.0730 -0.0848
  175DOPC  H14X21436   2.361   6.047  15.251 -1.2694  0.9162  3.4184
  175DOPC  H14Y21437   2.390   6.172  15.126  0.1372  1.9627  0.3992
  175DOPC  C31521438   2.305   6.241  15.318 -0.0686  0.2384 -0.4418
  175DOPC  H15X21439   2.230   6.314  15.280 -1.4699 -1.0899 -0.3025
  175DOPC  H15Y21440   2.407   6.285  15.330 -0.2727  0.5333  0.2264
  175DOPC  C31621441   2.268   6.187  15.460  0.2628  0.1700  0.6173
  175DOPC  H16X21442   2.162   6.213  15.485 -0.5470 -1.0528 -1.3620
  175DOPC  H16Y21443   2.273   6.076  15.454  0.7357  0.2185  0.0486
  175DOPC  C31721444   2.348   6.240  15.577 -0.3548 -0.1516 -0.0262
  175DOPC  H17X21445   2.293   6.194  15.662 -0.7643  2.0060  0.9377
  175DOPC  H17Y21446   2.452   6.203  15.565 -1.2697 -2.8558 -0.3464
  175DOPC  C31821447   2.348   6.390  15.601  0.3295 -0.6320  0.2338
  175DOPC  H18X21448   2.376   6.399  15.708 -1.3791  0.0559  0.6601
  175DOPC  H18Y21449   2.431   6.430  15.540  0.2397 -0.5250  0.1822
  175DOPC  H18Z21450   2.248   6.436  15.586  0.3432 -0.3500  0.9716
  176DOPC     N21451   3.010   2.015  13.366  0.3336 -0.0697 -0.2565
  176DOPC   C1221452   2.925   2.130  13.432  0.4095 -0.1389  0.6342
  176DOPC  H12A21453   2.841   2.132  13.365  0.6171  0.6912  0.3850
  176DOPC  H12B21454   2.967   2.229  13.425 -1.1577  0.6582  1.9235
  176DOPC   C1321455   3.145   1.988  13.438  0.0897 -0.0779 -0.5637
  176DOPC  H13A21456   3.194   2.083  13.451 -2.6264  1.1374  2.0216
  176DOPC  H13B21457   3.127   1.951  13.538  2.5969  1.1807  0.4471
  176DOPC  H13C21458   3.213   1.930  13.378  0.0272 -0.4947 -0.2410
  176DOPC   C1421459   3.049   2.072  13.235  0.8623  0.9153  1.2179
  176DOPC  H14A21460   3.132   2.139  13.246  1.0326  0.8492  0.3804
  176DOPC  H14B21461   3.075   1.990  13.168 -0.6536 -3.3791  5.3008
  176DOPC  H14C21462   2.976   2.133  13.184  0.9349 -0.7273 -1.0257
  176DOPC   C1521463   2.930   1.892  13.343 -0.2643  0.3321  0.1501
  176DOPC  H15A21464   2.889   1.856  13.436  0.1403 -0.9366 -0.1436
  176DOPC  H15B21465   2.999   1.809  13.332 -0.3398  0.3906 -0.8965
  176DOPC  H15C21466   2.854   1.895  13.266 -0.2762 -1.2227  0.0770
  176DOPC   C1121467   2.869   2.088  13.574  0.3474  0.4103 -0.6352
  176DOPC  H11A21468   2.787   2.150  13.616  0.9838  0.3679  0.7349
  176DOPC  H11B21469   2.824   1.987  13.560 -1.4082  1.1074 -0.3247
  176DOPC     P21470   2.970   1.983  13.795  0.0933 -0.0382  0.8173
  176DOPC   O1321471   2.999   2.067  13.914  0.0270 -0.1992  0.4507
  176DOPC   O1421472   3.053   1.864  13.761 -0.6868 -0.8532 -0.1170
  176DOPC   O1221473   2.978   2.077  13.668  0.1937 -0.0625  0.3805
  176DOPC   O1121474   2.823   1.945  13.813  0.3243 -0.1212 -0.3717
  176DOPC    C121475   2.771   1.816  13.813 -0.2185 -0.3081  0.7155
  176DOPC    HA21476   2.827   1.759  13.736  1.3056  1.1392  0.7023
  176DOPC    HB21477   2.670   1.827  13.768 -0.2324  1.6176  1.1230
  176DOPC    C221478   2.765   1.732  13.946 -0.4330 -0.3240  0.8065
  176DOPC    HS21479   2.691   1.652  13.923 -1.1814  1.4937 -4.3272
  176DOPC   O2121480   2.727   1.828  14.053 -0.2528 -0.3465 -0.5085
  176DOPC   C2121481   2.597   1.859  14.053  0.0520 -0.2896  0.0781
  176DOPC   O2221482   2.519   1.814  13.968 -0.5276 -0.1103 -0.0674
  176DOPC   C2221483   2.565   1.969  14.147 -0.3476 -0.6033  0.6219
  176DOPC   H2R21484   2.472   1.937  14.199 -0.8938 -1.0374 -0.5825
  176DOPC   H2S21485   2.543   2.063  14.092 -1.8320 -0.3583  1.5506
  176DOPC    C321486   2.898   1.657  13.980 -0.1696 -0.1054 -0.5120
  176DOPC    HX21487   2.979   1.733  13.980  1.8040 -2.0259  1.4974
  176DOPC    HY21488   2.927   1.595  13.892  0.4099  1.0389 -1.1514
  176DOPC   O3121489   2.884   1.581  14.104  0.0035  0.0796 -0.0051
  176DOPC   C3121490   2.924   1.652  14.216 -0.0077  0.7048 -0.5229
  176DOPC   O3221491   2.985   1.761  14.211 -0.1829  1.2228 -0.1044
  176DOPC   C3221492   2.899   1.572  14.340 -0.4577  0.1676  0.3210
  176DOPC   H2X21493   2.793   1.587  14.369 -0.9315  0.1095 -1.2893
  176DOPC   H2Y21494   2.907   1.465  14.310 -1.7286 -0.4459  2.0001
  176DOPC   C2321495   2.668   1.994  14.258 -0.2524 -0.6685  0.4534
  176DOPC   H3R21496   2.640   2.091  14.302 -1.7765 -0.7956 -0.1664
  176DOPC   H3S21497   2.766   2.006  14.207 -0.2953 -0.9782  0.2942
  176DOPC   C2421498   2.655   1.882  14.367 -0.7194 -0.1123 -0.5143
  176DOPC   H4R21499   2.752   1.891  14.421 -0.4456  2.1729 -1.2693
  176DOPC   H4S21500   2.661   1.783  14.317  1.2698  0.1395 -0.8689
  176DOPC   C2521501   2.540   1.897  14.462 -0.4544 -0.0405 -0.5880
  176DOPC   H5R21502   2.457   1.853  14.403  0.0689  0.3094 -1.6071
  176DOPC   H5S21503   2.518   2.003  14.488 -1.2266 -0.3333  0.0006
  176DOPC   C2621504   2.564   1.816  14.594 -0.3121  0.0240 -0.2956
  176DOPC   H6R21505   2.652   1.863  14.643  0.4612 -2.0591  0.4443
  176DOPC   H6S21506   2.582   1.707  14.579  1.5942  0.1144  1.0340
  176DOPC   C2721507   2.443   1.829  14.683 -0.0288  0.1843  0.0503
  176DOPC   H7R21508   2.363   1.773  14.630  0.5268 -0.0737 -0.5355
  176DOPC   H7S21509   2.424   1.937  14.697 -0.7547  0.1327 -0.5111
  176DOPC   C2821510   2.459   1.756  14.819  0.8622  0.3816 -0.3669
  176DOPC   H8R21511   2.494   1.653  14.799 -1.0074 -0.2766 -0.3805
  176DOPC   H8S21512   2.359   1.740  14.863  1.5535  1.8295  1.9181
  176DOPC   C2921513   2.545   1.816  14.923 -0.0327 -0.1592  0.0645
  176DOPC   H9R21514   2.643   1.847  14.885 -1.1721  0.7206 -2.3350
  176DOPC  C21021515   2.528   1.842  15.057 -0.2082 -0.5496 -0.3812
  176DOPC  H10R21516   2.611   1.883  15.117 -1.8305 -1.4042  2.6146
  176DOPC  C21121517   2.409   1.814  15.151  0.5449 -0.9841  0.1869
  176DOPC  H11R21518   2.455   1.766  15.241  2.0087  1.0083  0.5660
  176DOPC  H11S21519   2.332   1.746  15.109  0.0594 -0.0246 -0.5158
  176DOPC  C21221520   2.314   1.928  15.199  0.4226 -0.4006  0.0930
  176DOPC  H12R21521   2.378   2.012  15.235 -0.6608  0.9074 -0.8828
  176DOPC  H12S21522   2.244   1.905  15.283 -1.5818  0.6687 -1.1797
  176DOPC  C21321523   2.218   1.977  15.081 -0.3438  0.3661  0.2991
  176DOPC  H13R21524   2.153   1.890  15.058 -0.3380  0.6017 -0.6453
  176DOPC  H13S21525   2.266   1.993  14.982 -3.0595 -1.3656 -1.4257
  176DOPC  C21421526   2.126   2.089  15.125  0.7110  0.4170 -0.0651
  176DOPC  H14R21527   2.188   2.181  15.127  2.1080 -0.3843 -2.1793
  176DOPC  H14S21528   2.084   2.070  15.226 -1.3943  0.3401 -0.9102
  176DOPC  C21521529   2.001   2.097  15.032 -0.0553 -0.0169 -0.2692
  176DOPC  H15R21530   1.953   1.998  15.020 -1.3431  0.4809  0.5243
  176DOPC  H15S21531   2.045   2.121  14.933  0.1966  1.7012  0.2166
  176DOPC  C21621532   1.908   2.213  15.078  0.2051 -0.2396 -0.1322
  176DOPC  H16R21533   1.958   2.312  15.072  0.1320 -0.0594  1.8167
  176DOPC  H16S21534   1.899   2.202  15.188  0.5941  1.4038  0.0865
  176DOPC  C21721535   1.774   2.224  15.002  0.0753  0.4249  0.1306
  176DOPC  H17R21536   1.718   2.129  14.985 -0.4361  0.9188 -1.0535
  176DOPC  H17S21537   1.792   2.249  14.895  0.9098 -1.8068 -0.2975
  176DOPC  C21821538   1.679   2.334  15.059 -0.4614  0.6303  0.2777
  176DOPC  H18R21539   1.742   2.425  15.066 -0.7435  0.8652 -0.1701
  176DOPC  H18S21540   1.627   2.306  15.153  0.2365 -1.1663  0.1714
  176DOPC  H18T21541   1.601   2.355  14.982  0.9245  0.5945 -1.1970
  176DOPC   C3321542   2.987   1.594  14.466  0.0192  0.3010  0.2348
  176DOPC   H3X21543   2.970   1.702  14.486 -3.3418  0.1148 -0.8870
  176DOPC   H3Y21544   3.095   1.583  14.446  0.4382  0.6461  2.0992
  176DOPC   C3421545   2.945   1.515  14.594 -0.0139  0.1281  0.1296
  176DOPC   H4X21546   3.028   1.514  14.667 -0.5956 -2.0696  0.8341
  176DOPC   H4Y21547   2.923   1.411  14.562 -0.8824  0.6084 -0.9313
  176DOPC   C3521548   2.823   1.582  14.665 -0.4700  0.5610 -0.6230
  176DOPC   H5X21549   2.732   1.538  14.620 -1.4277  0.5940  1.2302
  176DOPC   H5Y21550   2.828   1.691  14.647 -0.7525  0.5309 -0.8965
  176DOPC   C3621551   2.809   1.559  14.824  0.1668 -0.1289  0.2747
  176DOPC   H6X21552   2.706   1.565  14.867 -0.3560 -0.5990 -0.8778
  176DOPC   H6Y21553   2.841   1.457  14.853  0.1535 -0.1549  0.1953
  176DOPC   C3721554   2.895   1.656  14.898 -0.4530 -0.0863  0.4193
  176DOPC   H7X21555   2.998   1.651  14.857 -0.8251  1.0363 -0.7194
  176DOPC   H7Y21556   2.852   1.754  14.867 -2.6564 -0.7393  1.1779
  176DOPC   C3821557   2.909   1.648  15.051  0.4766 -0.2650  0.1908
  176DOPC   H8X21558   2.815   1.665  15.109  0.6818 -0.8678  0.7095
  176DOPC   H8Y21559   2.984   1.727  15.069  0.4397 -0.3255  0.6071
  176DOPC   C3921560   2.969   1.526  15.108  0.2652  0.5390 -0.1469
  176DOPC   H9X21561   2.994   1.446  15.038  0.9200 -0.0064  0.6946
  176DOPC  C31021562   2.989   1.506  15.238  0.6943 -1.0954  0.4356
  176DOPC  H10X21563   3.033   1.412  15.274  1.0281 -0.4641  1.7218
  176DOPC  C31121564   2.956   1.604  15.341  0.4173 -0.2996 -0.4025
  176DOPC  H11X21565   2.853   1.644  15.330  0.3007 -0.6151 -0.4518
  176DOPC  H11Y21566   3.020   1.695  15.341  0.4814 -0.3357 -1.4432
  176DOPC  C31221567   2.975   1.557  15.486  0.3994 -0.0150  0.2625
  176DOPC  H12X21568   2.928   1.457  15.500 -0.5877  0.5693  1.2611
  176DOPC  H12Y21569   2.910   1.616  15.553 -0.6881  1.3279 -1.8587
  176DOPC  C31321570   3.119   1.576  15.531  0.3713 -0.6197  0.0401
  176DOPC  H13X21571   3.193   1.521  15.470  0.0429 -1.7070  0.5835
  176DOPC  H13Y21572   3.146   1.683  15.537 -0.2124 -0.4980  0.7253
  176DOPC  C31421573   3.137   1.510  15.667  0.6630 -0.3317 -0.0361
  176DOPC  H14X21574   3.059   1.554  15.733  0.6313  0.2443 -0.4528
  176DOPC  H14Y21575   3.110   1.404  15.648 -0.3963 -0.1505  0.3615
  176DOPC  C31521576   3.279   1.520  15.729 -0.0082  0.3519  0.1947
  176DOPC  H15X21577   3.276   1.472  15.830  1.4044  1.8507  1.0069
  176DOPC  H15Y21578   3.299   1.628  15.751 -0.5741 -0.1787  4.1039
  176DOPC  C31621579   3.383   1.440  15.655  0.7873  0.8957 -0.6129
  176DOPC  H16X21580   3.392   1.334  15.685 -2.1674  0.3822 -1.2946
  176DOPC  H16Y21581   3.357   1.442  15.547  0.7054 -0.6465 -0.6329
  176DOPC  C31721582   3.523   1.506  15.668  0.1927 -0.0635 -0.2585
  176DOPC  H17X21583   3.585   1.474  15.581 -1.9229 -1.2275 -1.4021
  176DOPC  H17Y21584   3.520   1.617  15.665  0.7001  0.1458  2.9135
  176DOPC  C31821585   3.591   1.459  15.803 -0.7150 -0.2658  0.2755
  176DOPC  H18X21586   3.698   1.483  15.816 -0.7658  0.0302  0.1588
  176DOPC  H18Y21587   3.538   1.509  15.886  2.6295  2.0586  1.1932
  176DOPC  H18Z21588   3.591   1.348  15.813 -0.7176 -0.2890  0.0419
  177DOPC     N21589   4.749   7.142  12.674 -0.0022  0.8684  0.6722
  177DOPC   C1221590   4.677   7.007  12.689  0.2952 -0.2924 -0.0491
  177DOPC  H12A21591   4.748   6.931  12.660  1.5217  0.4180  0.9976
  177DOPC  H12B21592   4.594   7.000  12.620  0.3983  0.5881 -0.2734
  177DOPC   C1321593   4.790   7.154  12.529 -0.2526 -0.0046 -0.0814
  177DOPC  H13A21594   4.818   7.255  12.504 -2.8225  0.7716 -0.1268
  177DOPC  H13B21595   4.862   7.079  12.499  1.3527  0.6715  1.8237
  177DOPC  H13C21596   4.705   7.138  12.464  0.7324 -0.7256 -1.2066
  177DOPC   C1421597   4.870   7.153  12.753  0.0982  0.1581  0.2604
  177DOPC  H14A21598   4.919   7.248  12.738  1.0425 -0.4551 -0.6335
  177DOPC  H14B21599   4.850   7.141  12.859  0.4967 -1.3768  0.1770
  177DOPC  H14C21600   4.943   7.077  12.729 -1.2518 -1.3271  0.6854
  177DOPC   C1521601   4.656   7.247  12.702  0.3093 -0.5642  0.9262
  177DOPC  H15A21602   4.685   7.348  12.678  0.1797 -0.7714 -0.1378
  177DOPC  H15B21603   4.628   7.251  12.806  0.1809  0.9270  0.8480
  177DOPC  H15C21604   4.569   7.230  12.641  1.6945 -0.1450 -1.2954
  177DOPC   C1121605   4.618   6.967  12.822 -0.0555 -0.7290  0.4812
  177DOPC  H11A21606   4.527   7.030  12.827  1.0653  1.1241 -1.2695
  177DOPC  H11B21607   4.594   6.860  12.806  1.6982 -0.9473 -0.9938
  177DOPC     P21608   4.794   6.860  12.985  0.0460  0.0130 -0.0070
  177DOPC   O1321609   4.922   6.918  13.025 -0.9883  0.2500  0.0338
  177DOPC   O1421610   4.802   6.763  12.874  0.5403 -0.0555 -0.1301
  177DOPC   O1221611   4.705   6.976  12.937 -0.2986 -0.4118 -0.3453
  177DOPC   O1121612   4.718   6.799  13.115 -0.5988  0.2984  0.5880
  177DOPC    C121613   4.600   6.855  13.170 -0.6140  0.0438 -0.3767
  177DOPC    HA21614   4.537   6.777  13.217 -0.5259  1.1523  1.6906
  177DOPC    HB21615   4.529   6.891  13.093 -0.5614  0.6990 -0.1221
  177DOPC    C221616   4.644   6.954  13.276  0.0840  0.2577 -0.6370
  177DOPC    HS21617   4.727   7.017  13.235 -1.4211  1.1377 -2.5005
  177DOPC   O2121618   4.691   6.873  13.384  0.0108 -0.0377 -0.1152
  177DOPC   C2121619   4.785   6.917  13.472  0.1726 -0.7174  0.4886
  177DOPC   O2221620   4.829   7.030  13.461 -0.0716 -0.1959  0.1637
  177DOPC   C2221621   4.824   6.815  13.580 -0.7045 -0.5049 -0.1555
  177DOPC   H2R21622   4.920   6.846  13.625 -0.8078 -1.8371  1.0564
  177DOPC   H2S21623   4.846   6.718  13.530  1.4331 -1.1329  1.8215
  177DOPC    C321624   4.524   7.037  13.317 -0.0060 -0.5627  0.7822
  177DOPC    HX21625   4.444   6.966  13.348 -1.6850  1.0119  0.2847
  177DOPC    HY21626   4.479   7.079  13.224  3.8857 -1.5919 -1.7783
  177DOPC   O3121627   4.531   7.144  13.419 -0.3302 -0.4839  0.7127
  177DOPC   C3121628   4.586   7.258  13.375  0.2668 -0.2282 -0.4347
  177DOPC   O3221629   4.623   7.286  13.264  0.7109  0.4264 -0.3406
  177DOPC   C3221630   4.589   7.365  13.487  0.3511 -0.0143 -0.4154
  177DOPC   H2X21631   4.684   7.419  13.469 -0.4155  0.8723 -2.0378
  177DOPC   H2Y21632   4.510   7.442  13.472  0.8995  0.3636 -1.4907
  177DOPC   C2321633   4.715   6.791  13.682  0.0743  0.0157  0.1908
  177DOPC   H3R21634   4.744   6.700  13.740  0.1008 -0.4385 -0.5326
  177DOPC   H3S21635   4.621   6.753  13.637 -0.9765  1.4727  1.0694
  177DOPC   C2421636   4.699   6.911  13.773 -0.3647  0.5338 -0.3944
  177DOPC   H4R21637   4.654   6.996  13.718 -0.2292  0.5202 -0.5284
  177DOPC   H4S21638   4.796   6.953  13.809 -0.3615 -0.4140  0.7768
  177DOPC   C2521639   4.616   6.887  13.902  0.1818 -0.2786 -0.4852
  177DOPC   H5R21640   4.635   6.795  13.961 -1.0622  0.4633  1.1494
  177DOPC   H5S21641   4.514   6.866  13.864  0.2236 -1.1058 -0.1727
  177DOPC   C2621642   4.626   7.013  13.997 -0.0711  0.1207  0.4702
  177DOPC   H6R21643   4.626   7.109  13.942 -1.6319  0.4666  1.0386
  177DOPC   H6S21644   4.713   6.995  14.064 -0.3551  0.3887  0.9107
  177DOPC   C2721645   4.502   7.011  14.094 -0.8001  0.2517 -0.3426
  177DOPC   H7R21646   4.544   6.931  14.159  1.0026  0.7578 -0.8185
  177DOPC   H7S21647   4.411   6.986  14.035  0.3544 -0.7214 -1.7926
  177DOPC   C2821648   4.499   7.147  14.168 -0.0239  0.1819 -0.1059
  177DOPC   H8R21649   4.500   7.214  14.079 -0.2335 -2.1702 -2.0138
  177DOPC   H8S21650   4.588   7.155  14.233  0.4343 -0.2042 -0.6731
  177DOPC   C2921651   4.371   7.164  14.242  0.1691 -0.3767 -0.1655
  177DOPC   H9R21652   4.371   7.136  14.348 -1.9220 -2.5874 -0.6544
  177DOPC  C21021653   4.252   7.196  14.182  0.4973 -0.4000 -0.1191
  177DOPC  H10R21654   4.159   7.211  14.239 -0.7463  0.1720 -2.2067
  177DOPC  C21121655   4.240   7.246  14.036 -0.2958 -0.2288 -0.2213
  177DOPC  H11R21656   4.136   7.231  13.999 -0.0592 -1.1338 -0.5628
  177DOPC  H11S21657   4.315   7.193  13.973  0.4385  0.6372 -0.0894
  177DOPC  C21221658   4.273   7.396  14.036  0.8006 -0.3282  0.1971
  177DOPC  H12R21659   4.263   7.441  13.935  0.2618  0.7646  0.7207
  177DOPC  H12S21660   4.381   7.406  14.062  0.8247 -0.1676  0.0401
  177DOPC  C21321661   4.188   7.481  14.137 -0.0249 -0.2933 -0.3208
  177DOPC  H13R21662   4.228   7.475  14.241  0.7297 -0.0186 -0.5910
  177DOPC  H13S21663   4.077   7.470  14.138 -0.1555  0.3570  2.7033
  177DOPC  C21421664   4.193   7.628  14.091  0.2701 -0.3872 -0.4892
  177DOPC  H14R21665   4.112   7.642  14.016 -1.9512 -0.9600  1.6608
  177DOPC  H14S21666   4.295   7.644  14.050  0.3789 -1.5614 -0.7058
  177DOPC  C21521667   4.165   7.738  14.200  0.1097 -0.3208 -0.2705
  177DOPC  H15R21668   4.169   7.841  14.159 -3.1144 -0.0674 -0.2145
  177DOPC  H15S21669   4.228   7.737  14.292 -1.8895  0.8853  1.2156
  177DOPC  C21621670   4.027   7.718  14.262 -0.2059 -0.3218  0.8454
  177DOPC  H16R21671   4.016   7.614  14.299 -0.8636  0.2242  2.2507
  177DOPC  H16S21672   3.961   7.738  14.175 -0.4525  0.8695  1.2904
  177DOPC  C21721673   4.004   7.816  14.382  1.2545  0.9630  0.7332
  177DOPC  H17R21674   4.096   7.829  14.443  2.5636  1.4148 -1.2634
  177DOPC  H17S21675   3.930   7.766  14.449  1.1955 -0.2609 -0.2176
  177DOPC  C21821676   3.952   7.957  14.334  0.5457 -0.2821  0.1056
  177DOPC  H18R21677   3.870   7.929  14.264  0.0166 -2.6672  1.5573
  177DOPC  H18S21678   4.034   8.013  14.286  0.4296 -0.9779 -0.9295
  177DOPC  H18T21679   3.903   8.018  14.414  1.3885  0.3046  0.1866
  177DOPC   C3321680   4.574   7.318  13.630  0.0515  0.0907 -0.1267
  177DOPC   H3X21681   4.652   7.242  13.654  2.0539  1.3045 -2.3746
  177DOPC   H3Y21682   4.475   7.273  13.653  0.5580 -0.7716  0.4188
  177DOPC   C3421683   4.599   7.433  13.734 -0.3051 -0.0929  0.1925
  177DOPC   H4X21684   4.707   7.458  13.730 -0.1201 -0.4630  1.8527
  177DOPC   H4Y21685   4.582   7.394  13.837  1.7054 -0.1971  0.5306
  177DOPC   C3521686   4.514   7.562  13.708 -0.3576 -0.7705  0.0271
  177DOPC   H5X21687   4.406   7.538  13.713 -0.5848 -0.0450 -1.1933
  177DOPC   H5Y21688   4.538   7.612  13.612  0.4238 -0.9885  0.1021
  177DOPC   C3621689   4.539   7.666  13.826  0.0493  0.6382 -0.2685
  177DOPC   H6X21690   4.505   7.619  13.921 -1.3221  1.5081 -0.2983
  177DOPC   H6Y21691   4.648   7.686  13.831 -0.0048  1.0736 -0.7222
  177DOPC   C3721692   4.470   7.795  13.807  0.2046 -0.0227 -0.0336
  177DOPC   H7X21693   4.521   7.843  13.721  0.6235  0.3228  0.4094
  177DOPC   H7Y21694   4.362   7.792  13.778 -0.2339  3.9109  0.6668
  177DOPC   C3821695   4.471   7.892  13.931 -0.1444 -0.3076 -0.2736
  177DOPC   H8X21696   4.577   7.909  13.957 -0.7260  1.8112  1.0238
  177DOPC   H8Y21697   4.404   7.854  14.011  0.2863 -0.2621  0.1106
  177DOPC   C3921698   4.426   8.034  13.897  0.3157 -0.1974 -1.0262
  177DOPC   H9X21699   4.337   8.032  13.832  0.7154  0.1581 -1.5895
  177DOPC  C31021700   4.492   8.148  13.933 -0.5063 -0.6400  0.1753
  177DOPC  H10X21701   4.456   8.249  13.911  1.0668 -0.3808 -1.3705
  177DOPC  C31121702   4.615   8.168  14.019 -0.0229 -0.1268  0.6084
  177DOPC  H11X21703   4.694   8.202  13.949 -1.9743  1.3092 -1.0365
  177DOPC  H11Y21704   4.653   8.078  14.070 -0.3957 -0.1715  0.8071
  177DOPC  C31221705   4.608   8.275  14.131 -0.3779  0.6180  0.5806
  177DOPC  H12X21706   4.705   8.265  14.184  0.8198  0.8460 -1.4440
  177DOPC  H12Y21707   4.534   8.246  14.208 -0.8286 -0.8452 -0.3582
  177DOPC  C31321708   4.615   8.418  14.071 -0.2365 -0.4173 -0.9494
  177DOPC  H13X21709   4.692   8.419  13.991 -0.0515  0.4780 -0.7669
  177DOPC  H13Y21710   4.520   8.445  14.022  0.8044  1.4185 -2.0738
  177DOPC  C31421711   4.659   8.531  14.168 -0.1074 -0.2206 -0.3733
  177DOPC  H14X21712   4.759   8.511  14.210  1.1078  2.1428 -1.9176
  177DOPC  H14Y21713   4.676   8.627  14.114  1.5972  0.3240  1.0200
  177DOPC  C31521714   4.553   8.568  14.281 -0.3716  0.4460 -0.0398
  177DOPC  H15X21715   4.561   8.476  14.342  2.8545  0.7019  0.1173
  177DOPC  H15Y21716   4.458   8.586  14.225 -1.0279 -3.1472 -0.3049
  177DOPC  C31621717   4.591   8.693  14.358 -0.9497 -0.3392 -0.5279
  177DOPC  H16X21718   4.626   8.774  14.290  0.1018  0.6970  1.1815
  177DOPC  H16Y21719   4.505   8.744  14.404 -0.5345  0.6569 -0.8294
  177DOPC  C31721720   4.698   8.668  14.465 -0.1451 -0.4218 -0.1339
  177DOPC  H17X21721   4.662   8.619  14.558 -1.7157  0.0218 -0.4850
  177DOPC  H17Y21722   4.766   8.588  14.427 -1.0182 -1.4963  0.4875
  177DOPC  C31821723   4.778   8.794  14.503  0.0334  0.4858  0.7020
  177DOPC  H18X21724   4.794   8.862  14.417 -0.8186  1.1723  1.0762
  177DOPC  H18Y21725   4.716   8.858  14.570 -1.9884 -1.2887  0.6337
  177DOPC  H18Z21726   4.871   8.756  14.551  0.2348 -0.7715 -0.6153
  178DOPC     N21727   1.238   0.319  13.132 -0.8638 -0.4658  0.8169
  178DOPC   C1221728   1.250   0.244  13.261 -0.2643  0.2659 -0.9820
  178DOPC  H12A21729   1.202   0.294  13.344  1.9085  0.1672  0.4266
  178DOPC  H12B21730   1.354   0.237  13.291 -0.2535  0.4967 -0.9616
  178DOPC   C1321731   1.293   0.462  13.151  0.2578  0.2278  0.3284
  178DOPC  H13A21732   1.399   0.464  13.169  0.0980  1.0898  1.3074
  178DOPC  H13B21733   1.264   0.518  13.063 -0.1871 -0.4577  0.0295
  178DOPC  H13C21734   1.248   0.508  13.238 -0.9062 -0.7255  0.2548
  178DOPC   C1421735   1.094   0.325  13.094  0.0484  0.0478  0.0762
  178DOPC  H14A21736   1.084   0.348  12.989 -0.4160  0.2815  0.1699
  178DOPC  H14B21737   1.041   0.232  13.109  1.1911 -0.4593  1.1009
  178DOPC  H14C21738   1.046   0.408  13.143 -0.2217 -0.3070  0.4270
  178DOPC   C1521739   1.311   0.250  13.015  0.5298 -0.2254  0.0966
  178DOPC  H15A21740   1.299   0.296  12.918  0.0854 -0.3348  0.0976
  178DOPC  H15B21741   1.285   0.145  13.008 -0.6578  0.1505 -2.0413
  178DOPC  H15C21742   1.415   0.260  13.039 -0.1743  1.6811  2.8611
  178DOPC   C1121743   1.205   0.092  13.259  0.3039 -0.8369 -0.1269
  178DOPC  H11A21744   1.259   0.044  13.175 -1.3809  1.5115 -2.7444
  178DOPC  H11B21745   1.237   0.044  13.354 -0.4185 -2.4420 -0.6510
  178DOPC     P21746   0.964   0.111  13.352 -0.2206  0.0574  0.1445
  178DOPC   O1321747   0.831   0.060  13.319  0.7635  0.5434  0.1889
  178DOPC   O1421748   0.967   0.256  13.395  0.2555  0.3156 -0.2120
  178DOPC   O1221749   1.065   0.074  13.232 -0.3042 -0.5311 -0.1031
  178DOPC   O1121750   1.009   0.030  13.474 -0.0025  0.1844  0.5829
  178DOPC    C121751   1.031  -0.115  13.474  0.3007  0.0860 -0.4539
  178DOPC    HA21752   1.134  -0.127  13.514  0.5735  0.6563 -0.9745
  178DOPC    HB21753   1.023  -0.162  13.374 -2.3434 -1.2332  0.2831
  178DOPC    C221754   0.930  -0.189  13.569 -0.1239  0.0061 -0.3975
  178DOPC    HS21755   0.828  -0.189  13.525  0.1473 -1.6268 -1.1178
  178DOPC   O2121756   0.946  -0.125  13.698 -0.0941 -0.0319 -0.3805
  178DOPC   C2121757   0.836  -0.090  13.764  0.2843 -0.3128  0.0850
  178DOPC   O2221758   0.725  -0.127  13.729 -0.2845 -0.1281  0.1442
  178DOPC   C2221759   0.881  -0.075  13.909 -0.1707 -0.2200  0.1969
  178DOPC   H2R21760   0.971  -0.010  13.913 -0.1558 -0.2724  0.9557
  178DOPC   H2S21761   0.929  -0.165  13.953 -0.9343  0.3156  2.2243
  178DOPC    C321762   0.959  -0.340  13.578  0.0120  0.5972 -0.0131
  178DOPC    HX21763   1.064  -0.349  13.611  0.0408 -0.6872 -0.3953
  178DOPC    HY21764   0.938  -0.382  13.477  0.2301  0.7054 -0.1026
  178DOPC   O3121765   0.871  -0.395  13.667 -0.3044  0.6278  0.5116
  178DOPC   C3121766   0.905  -0.497  13.737  0.2111 -0.0166 -0.2746
  178DOPC   O3221767   1.000  -0.568  13.719  0.0934  0.0254  0.3337
  178DOPC   C3221768   0.810  -0.504  13.857  0.0871  1.0509 -0.3208
  178DOPC   H2X21769   0.773  -0.408  13.897 -0.4852  0.8911 -0.4579
  178DOPC   H2Y21770   0.721  -0.561  13.824 -2.7049  3.4371  2.4725
  178DOPC   C2321771   0.769  -0.014  13.993 -0.0196  0.7981 -0.0982
  178DOPC   H3R21772   0.711   0.067  13.944  0.9983  1.6278  0.0285
  178DOPC   H3S21773   0.831   0.039  14.068  0.4974 -1.2655  1.0126
  178DOPC   C2421774   0.676  -0.122  14.059  0.3377  0.4105 -0.3893
  178DOPC   H4R21775   0.748  -0.194  14.104 -0.5845 -0.8044 -0.8244
  178DOPC   H4S21776   0.611  -0.171  13.984  0.4228  0.8823 -0.7778
  178DOPC   C2521777   0.583  -0.072  14.173  0.4303  0.0817  0.8597
  178DOPC   H5R21778   0.539  -0.170  14.201 -1.3136  0.5244 -0.1871
  178DOPC   H5S21779   0.510  -0.005  14.123 -0.4430 -2.4615 -1.5242
  178DOPC   C2621780   0.650  -0.022  14.299  0.5103  0.1272  0.1665
  178DOPC   H6R21781   0.724   0.059  14.278  2.0639 -1.6417 -1.5071
  178DOPC   H6S21782   0.703  -0.106  14.346  0.3059 -0.0561  0.0733
  178DOPC   C2721783   0.554   0.056  14.390 -0.5311 -0.0724  0.6872
  178DOPC   H7R21784   0.512   0.133  14.323  0.7658  0.1336  0.0704
  178DOPC   H7S21785   0.623   0.120  14.448 -0.4323  1.7894 -1.3720
  178DOPC   C2821786   0.464  -0.041  14.461 -0.1032 -0.2083 -0.2030
  178DOPC   H8R21787   0.536  -0.110  14.511  0.1678 -0.3761 -0.8215
  178DOPC   H8S21788   0.399  -0.091  14.386  1.3876 -0.5715 -1.3077
  178DOPC   C2921789   0.374   0.034  14.550  0.8297 -0.5885  0.1066
  178DOPC   H9R21790   0.329   0.117  14.494  1.7220 -0.2871 -0.1763
  178DOPC  C21021791   0.350   0.024  14.680  0.6881  1.1607 -0.5052
  178DOPC  H10R21792   0.287   0.104  14.722 -2.0805 -1.5670  0.9164
  178DOPC  C21121793   0.412  -0.066  14.782  0.1201  0.5734  0.4235
  178DOPC  H11R21794   0.452   0.004  14.858  0.7725  1.6292 -0.8528
  178DOPC  H11S21795   0.500  -0.123  14.744 -0.7743  0.8220 -2.2353
  178DOPC  C21221796   0.307  -0.161  14.858 -0.0246 -0.2015  0.5113
  178DOPC  H12R21797   0.317  -0.271  14.852 -1.9577 -0.3390 -1.5843
  178DOPC  H12S21798   0.208  -0.122  14.825  0.2262  2.4468  2.5418
  178DOPC  C21321799   0.287  -0.124  15.009  0.3081  0.2059  0.2966
  178DOPC  H13R21800   0.188  -0.158  15.046  1.0868 -0.9323  1.4355
  178DOPC  H13S21801   0.297  -0.014  15.018 -1.9290  0.4123  0.7375
  178DOPC  C21421802   0.376  -0.205  15.095  1.2199 -0.3224 -0.3082
  178DOPC  H14R21803   0.331  -0.306  15.085  0.6204 -0.0183 -0.7587
  178DOPC  H14S21804   0.358  -0.171  15.200 -1.5777 -0.3791 -0.6935
  178DOPC  C21521805   0.530  -0.187  15.072 -0.3198  0.2740 -0.2636
  178DOPC  H15R21806   0.552  -0.205  14.965 -0.5551 -1.3771 -0.0562
  178DOPC  H15S21807   0.593  -0.265  15.120  0.0318 -1.0878 -2.7920
  178DOPC  C21621808   0.574  -0.046  15.113 -0.5550 -0.1648 -0.0789
  178DOPC  H16R21809   0.575  -0.037  15.224 -1.6906  2.1053 -0.1844
  178DOPC  H16S21810   0.497   0.023  15.071  0.1552  1.5671  1.3074
  178DOPC  C21721811   0.713   0.017  15.070  0.4869  0.4510  0.4394
  178DOPC  H17R21812   0.790  -0.034  15.132 -1.1010 -1.1103  1.2166
  178DOPC  H17S21813   0.703   0.127  15.087  1.7040  0.8564 -1.2631
  178DOPC  C21821814   0.745  -0.001  14.923 -0.4678  0.3214 -0.5795
  178DOPC  H18R21815   0.664   0.027  14.853  0.8599  3.5749 -0.9791
  178DOPC  H18S21816   0.763  -0.108  14.900 -0.0962  0.3762 -0.5453
  178DOPC  H18T21817   0.827   0.058  14.876  0.0703 -2.2558 -3.2232
  178DOPC   C3321818   0.876  -0.584  13.969 -0.4816  0.0923  0.5056
  178DOPC   H3X21819   0.960  -0.526  14.011  0.9457 -1.3852 -0.1759
  178DOPC   H3Y21820   0.918  -0.675  13.921 -0.1064  1.2374 -1.4349
  178DOPC   C3421821   0.789  -0.638  14.070  0.5596 -0.3423 -0.6571
  178DOPC   H4X21822   0.851  -0.696  14.141 -0.0750  1.0558  1.1173
  178DOPC   H4Y21823   0.714  -0.702  14.018 -1.0967 -0.5383  1.7805
  178DOPC   C3521824   0.715  -0.529  14.153  0.3803  0.1894 -0.3675
  178DOPC   H5X21825   0.617  -0.561  14.192 -0.2661  0.8118 -1.4172
  178DOPC   H5Y21826   0.687  -0.447  14.084 -0.9082  0.3572  0.3429
  178DOPC   C3621827   0.799  -0.470  14.268  1.1190  0.1103  0.3703
  178DOPC   H6X21828   0.899  -0.441  14.230  0.9596 -0.0355 -0.1861
  178DOPC   H6Y21829   0.748  -0.380  14.308 -0.5725 -0.1794 -0.9882
  178DOPC   C3721830   0.825  -0.574  14.380  0.4046 -0.3621 -0.4211
  178DOPC   H7X21831   0.723  -0.610  14.405  0.3617 -2.3099 -3.0071
  178DOPC   H7Y21832   0.883  -0.658  14.337 -0.5378 -1.4364  0.3520
  178DOPC   C3821833   0.886  -0.516  14.502 -0.4349  0.1599  0.7118
  178DOPC   H8X21834   0.980  -0.462  14.475  1.1400 -1.3722  2.7805
  178DOPC   H8Y21835   0.905  -0.599  14.573 -1.6195 -0.5861  0.1906
  178DOPC   C3921836   0.791  -0.415  14.567 -0.0378  0.5462 -0.3142
  178DOPC   H9X21837   0.695  -0.388  14.522 -1.0887  0.7432  1.9057
  178DOPC  C31021838   0.808  -0.360  14.688  0.6388  0.0891 -0.5052
  178DOPC  H10X21839   0.728  -0.292  14.721  0.5478 -0.5275  0.5780
  178DOPC  C31121840   0.927  -0.384  14.774  0.6733  0.0833 -0.0215
  178DOPC  H11X21841   0.959  -0.490  14.766  0.7431  0.0872  0.2096
  178DOPC  H11Y21842   0.897  -0.341  14.872 -0.7044  0.2488 -0.4864
  178DOPC  C31221843   1.035  -0.280  14.741  0.2807 -0.4601 -0.1956
  178DOPC  H12X21844   0.988  -0.182  14.763 -0.0573 -0.7631  0.4780
  178DOPC  H12Y21845   1.056  -0.281  14.632  0.2129  0.5583 -0.2311
  178DOPC  C31321846   1.166  -0.298  14.822 -0.1898  0.2917  0.3874
  178DOPC  H13X21847   1.237  -0.215  14.801  0.9251 -0.6549  0.2926
  178DOPC  H13Y21848   1.138  -0.296  14.929  0.4995 -1.0259  0.6231
  178DOPC  C31421849   1.232  -0.428  14.779  0.0848 -0.3849 -1.0720
  178DOPC  H14X21850   1.159  -0.509  14.800 -2.9833  1.7179 -2.8620
  178DOPC  H14Y21851   1.270  -0.432  14.675  2.1381  2.2510 -0.5326
  178DOPC  C31521852   1.369  -0.456  14.856  0.0660 -0.0196 -0.4795
  178DOPC  H15X21853   1.415  -0.355  14.865 -0.0446  0.3694 -3.3912
  178DOPC  H15Y21854   1.427  -0.540  14.813  1.0766 -0.5166  1.7298
  178DOPC  C31621855   1.351  -0.501  15.006  0.0476  0.4768 -0.4712
  178DOPC  H16X21856   1.315  -0.412  15.062  3.0980  1.3641  0.2977
  178DOPC  H16Y21857   1.298  -0.598  15.018  1.1373 -0.0973 -0.1881
  178DOPC  C31721858   1.497  -0.525  15.052 -0.1939 -0.8702 -0.4622
  178DOPC  H17X21859   1.550  -0.611  15.007  0.6014 -3.1156  4.1807
  178DOPC  H17Y21860   1.558  -0.438  15.018  1.0737 -1.6848 -0.3236
  178DOPC  C31821861   1.516  -0.534  15.199 -0.1018  0.2165  0.4990
  178DOPC  H18X21862   1.622  -0.543  15.231 -0.3146  3.5662  2.6299
  178DOPC  H18Y21863   1.485  -0.441  15.251  2.0193  0.8858  0.6819
  178DOPC  H18Z21864   1.463  -0.623  15.239  0.1016 -1.4121 -2.5853
  179DOPC     N21865   7.847   6.947  13.279 -0.2862  0.1533  0.3309
  179DOPC   C1221866   7.794   7.084  13.328  0.0751 -0.0379  0.3869
  179DOPC  H12A21867   7.688   7.082  13.310 -0.0276 -0.8769  0.9919
  179DOPC  H12B21868   7.833   7.159  13.262 -0.5044 -0.9140 -0.9896
  179DOPC   C1321869   7.832   6.953  13.123 -0.0533 -0.3603  0.1088
  179DOPC  H13A21870   7.881   6.865  13.083 -1.9541 -0.9815 -0.9688
  179DOPC  H13B21871   7.732   6.957  13.082  0.1700  0.4278 -0.3932
  179DOPC  H13C21872   7.883   7.038  13.080 -1.1724  0.8665  1.1330
  179DOPC   C1421873   7.760   6.838  13.331 -0.1850 -0.9012 -0.3853
  179DOPC  H14A21874   7.656   6.840  13.300 -0.5739 -1.1049  0.8793
  179DOPC  H14B21875   7.805   6.744  13.305  1.4130  0.2668 -2.1480
  179DOPC  H14C21876   7.766   6.854  13.437  1.0119  1.0643 -0.6972
  179DOPC   C1521877   7.990   6.924  13.309  0.1263 -0.2123 -0.1791
  179DOPC  H15A21878   8.047   7.003  13.264 -1.0142  1.0379  0.5208
  179DOPC  H15B21879   8.024   6.831  13.265 -0.5319 -1.2569  1.3955
  179DOPC  H15C21880   8.001   6.923  13.417 -0.5538  2.1899 -0.0525
  179DOPC   C1121881   7.823   7.114  13.482 -0.4443  0.3217 -0.5754
  179DOPC  H11A21882   7.931   7.109  13.504 -0.4710  0.8716 -0.2916
  179DOPC  H11B21883   7.809   7.219  13.516  0.5420  0.8355 -1.7108
  179DOPC     P21884   7.595   7.038  13.600 -0.0370  0.1438  0.2047
  179DOPC   O1321885   7.545   6.899  13.613 -0.0688 -0.0952 -0.4886
  179DOPC   O1421886   7.521   7.131  13.516 -1.3835  0.3094 -0.5028
  179DOPC   O1221887   7.754   7.027  13.566  0.3073 -0.5704  0.3863
  179DOPC   O1121888   7.607   7.099  13.750 -0.2032  0.1573  0.2563
  179DOPC    C121889   7.687   7.055  13.856  0.3802 -0.7524 -0.6866
  179DOPC    HA21890   7.748   7.142  13.889  2.7364 -2.3364 -0.6442
  179DOPC    HB21891   7.763   6.980  13.826  2.0736 -0.6161  2.7353
  179DOPC    C221892   7.609   6.990  13.974  0.0654  0.3313 -0.1208
  179DOPC    HS21893   7.535   7.050  14.031 -1.0412 -2.9212  2.1577
  179DOPC   O2121894   7.702   6.928  14.068  0.0054  0.0091 -0.3729
  179DOPC   C2121895   7.765   7.011  14.147  0.4484 -0.0575  0.0815
  179DOPC   O2221896   7.743   7.131  14.156 -0.4219  1.1005  0.3782
  179DOPC   C2221897   7.868   6.942  14.240  0.4173  0.6450 -0.4844
  179DOPC   H2R21898   7.920   7.016  14.304  0.9487  0.5496 -0.8060
  179DOPC   H2S21899   7.932   6.875  14.179 -4.1026 -1.5357 -3.4523
  179DOPC    C321900   7.514   6.878  13.920  1.0046  0.1880 -0.2713
  179DOPC    HX21901   7.580   6.794  13.887 -1.6254 -2.2680  0.2707
  179DOPC    HY21902   7.463   6.926  13.834 -1.2982 -1.1206  0.2769
  179DOPC   O3121903   7.418   6.829  14.015  0.3512  0.4614  0.0992
  179DOPC   C3121904   7.458   6.729  14.091 -0.5061 -0.4447  0.5046
  179DOPC   O3221905   7.561   6.664  14.082 -0.1812 -0.1443  0.1302
  179DOPC   C3221906   7.354   6.729  14.201  0.2987  0.5041  0.6515
  179DOPC   H2X21907   7.271   6.801  14.184 -0.9613 -1.4434 -2.2973
  179DOPC   H2Y21908   7.308   6.628  14.209  0.7484  0.3537  1.4352
  179DOPC   C2321909   7.797   6.850  14.348 -0.3379 -0.1612 -0.0824
  179DOPC   H3R21910   7.739   6.772  14.294  1.9705 -1.9510 -0.1216
  179DOPC   H3S21911   7.726   6.910  14.410 -0.3171 -0.2399  0.0166
  179DOPC   C2421912   7.896   6.791  14.444  0.1083 -0.2406 -0.1095
  179DOPC   H4R21913   7.849   6.789  14.545 -1.0419  1.3364 -0.5835
  179DOPC   H4S21914   7.987   6.850  14.466 -0.7672  0.5344  1.6104
  179DOPC   C2521915   7.927   6.641  14.404 -0.7052  0.5482  0.5432
  179DOPC   H5R21916   7.955   6.638  14.297 -0.2092  0.0861  0.6837
  179DOPC   H5S21917   7.842   6.570  14.415 -1.3962  1.2901  0.1073
  179DOPC   C2621918   8.042   6.575  14.483  0.1627  0.2163 -0.7098
  179DOPC   H6R21919   8.015   6.583  14.591  0.2953  0.0638 -0.6656
  179DOPC   H6S21920   8.139   6.627  14.468  0.4657  0.2713  1.1640
  179DOPC   C2721921   8.062   6.429  14.441  0.1599  0.7191  0.4158
  179DOPC   H7R21922   7.960   6.385  14.450  0.3185  0.7137  3.0526
  179DOPC   H7S21923   8.133   6.378  14.508 -0.9862 -3.6058 -1.3414
  179DOPC   C2821924   8.118   6.421  14.299  0.0320 -0.0537  0.4680
  179DOPC   H8R21925   8.221   6.465  14.302  0.2594 -0.5470 -0.0647
  179DOPC   H8S21926   8.054   6.483  14.232 -0.6071  0.7546  1.7794
  179DOPC   C2921927   8.121   6.278  14.252 -0.2024 -0.8591 -0.1261
  179DOPC   H9R21928   8.023   6.242  14.219  0.8826 -1.6702 -2.7019
  179DOPC  C21021929   8.222   6.185  14.255 -0.3029 -0.4277  0.2682
  179DOPC  H10R21930   8.208   6.100  14.186 -0.1915  2.4541 -3.6871
  179DOPC  C21121931   8.363   6.199  14.305 -0.7234  0.2991  0.2524
  179DOPC  H11R21932   8.391   6.298  14.345 -0.6828  0.0941  0.7378
  179DOPC  H11S21933   8.424   6.181  14.214  1.4627 -0.1009  1.7326
  179DOPC  C21221934   8.398   6.100  14.409 -0.7275 -0.2270  0.1654
  179DOPC  H12R21935   8.509   6.103  14.419 -0.4850 -2.8052 -1.0934
  179DOPC  H12S21936   8.392   5.996  14.371  0.9468 -0.0819 -0.5846
  179DOPC  C21321937   8.330   6.129  14.543 -0.9357  0.4487  0.1118
  179DOPC  H13R21938   8.220   6.140  14.530 -0.9973 -0.4697 -0.1706
  179DOPC  H13S21939   8.364   6.228  14.581  0.6148 -0.8095  2.2123
  179DOPC  C21421940   8.362   6.010  14.631  0.0539 -0.5335  0.1440
  179DOPC  H14R21941   8.470   5.986  14.625  0.3992  1.1431 -1.6889
  179DOPC  H14S21942   8.319   5.920  14.582 -1.7568  0.2848  0.1210
  179DOPC  C21521943   8.311   6.024  14.774 -0.2204  0.2406 -0.1392
  179DOPC  H15R21944   8.220   6.086  14.784 -0.6843 -0.6883  2.0038
  179DOPC  H15S21945   8.394   6.071  14.831  0.0508 -1.7692  1.2363
  179DOPC  C21621946   8.267   5.892  14.830 -0.3887  0.0736 -0.3911
  179DOPC  H16R21947   8.331   5.809  14.794  1.0224 -0.0071  2.0971
  179DOPC  H16S21948   8.164   5.872  14.792 -0.0446 -1.0253 -0.7870
  179DOPC  C21721949   8.246   5.878  14.979  0.0931  0.0347  0.1232
  179DOPC  H17R21950   8.332   5.925  15.033 -1.0735  2.7805 -0.2372
  179DOPC  H17S21951   8.229   5.776  15.021  1.4116  1.0379  3.4039
  179DOPC  C21821952   8.126   5.958  15.018 -0.6125 -0.4028  0.4961
  179DOPC  H18R21953   8.100   5.957  15.126  1.2823  2.8186  1.1054
  179DOPC  H18S21954   8.036   5.920  14.964 -1.1303  0.2905  0.8554
  179DOPC  H18T21955   8.132   6.067  15.001 -2.0377 -0.1405  1.4770
  179DOPC   C3321956   7.420   6.759  14.341 -0.0576  0.2428  0.2974
  179DOPC   H3X21957   7.347   6.792  14.418  0.0275 -1.7870  1.3177
  179DOPC   H3Y21958   7.500   6.835  14.328 -0.3460  0.2010 -2.1139
  179DOPC   C3421959   7.481   6.637  14.405  0.0984 -0.0363  0.3068
  179DOPC   H4X21960   7.548   6.597  14.325 -0.6871 -0.4523 -0.1598
  179DOPC   H4Y21961   7.410   6.554  14.425 -0.1471  0.4596  1.5588
  179DOPC   C3521962   7.549   6.655  14.537  0.5314 -0.1233 -1.2369
  179DOPC   H5X21963   7.607   6.750  14.537  2.2049 -0.7841  4.4645
  179DOPC   H5Y21964   7.631   6.582  14.549 -1.1875 -2.3033 -2.1113
  179DOPC   C3621965   7.458   6.645  14.663 -0.0589  0.4290  0.3895
  179DOPC   H6X21966   7.374   6.718  14.658  0.9874  1.9363  2.9737
  179DOPC   H6Y21967   7.416   6.542  14.666  2.0575 -0.5041 -0.2153
  179DOPC   C3721968   7.530   6.669  14.797  0.5497  0.4567  0.3865
  179DOPC   H7X21969   7.608   6.590  14.798 -2.7831 -3.1314  0.6464
  179DOPC   H7Y21970   7.568   6.773  14.794  1.1576  0.2120 -0.7473
  179DOPC   C3821971   7.441   6.651  14.927  0.1329 -0.7538  0.1689
  179DOPC   H8X21972   7.343   6.696  14.897 -1.0895 -3.1105  0.4219
  179DOPC   H8Y21973   7.480   6.707  15.014  1.3985 -1.8354  0.3169
  179DOPC   C3921974   7.407   6.509  14.972 -0.4373  0.1483  0.2330
  179DOPC   H9X21975   7.416   6.436  14.890 -0.2376 -0.6944  0.9931
  179DOPC  C31021976   7.386   6.476  15.099 -0.9893 -0.5252  0.1743
  179DOPC  H10X21977   7.351   6.373  15.119  1.3490 -1.6166 -0.9047
  179DOPC  C31121978   7.380   6.559  15.222  0.7315 -0.1725  0.2653
  179DOPC  H11X21979   7.393   6.668  15.208 -2.8082  0.3844  0.4542
  179DOPC  H11Y21980   7.451   6.525  15.300 -1.9355 -1.5690  2.2411
  179DOPC  C31221981   7.243   6.551  15.290 -0.1775  0.3022  0.3399
  179DOPC  H12X21982   7.160   6.569  15.219 -1.2409  0.7679  1.6583
  179DOPC  H12Y21983   7.252   6.639  15.358 -1.1956 -0.1418  1.0746
  179DOPC  C31321984   7.215   6.418  15.362  0.2449 -0.1209  0.1505
  179DOPC  H13X21985   7.243   6.340  15.288  1.0584  0.6708 -0.3952
  179DOPC  H13Y21986   7.287   6.388  15.442 -0.5141 -2.7252 -0.0400
  179DOPC  C31421987   7.072   6.399  15.405  0.3065  0.0415 -0.5884
  179DOPC  H14X21988   7.054   6.462  15.496 -0.9015  0.8361 -1.3429
  179DOPC  H14Y21989   6.997   6.430  15.329  0.3170 -0.8210 -0.9606
  179DOPC  C31521990   7.028   6.252  15.449  0.2888 -0.7217 -0.7686
  179DOPC  H15X21991   7.093   6.217  15.532 -0.2244 -0.3921 -0.2173
  179DOPC  H15Y21992   7.052   6.183  15.366 -1.3239 -1.3134 -0.7710
  179DOPC  C31621993   6.875   6.237  15.475  0.2238  0.4631  0.2753
  179DOPC  H16X21994   6.834   6.301  15.557  0.2306  0.5723  0.1933
  179DOPC  H16Y21995   6.819   6.259  15.382 -1.4427 -1.5222  0.7183
  179DOPC  C31721996   6.834   6.086  15.511  0.1747 -0.4046  0.0976
  179DOPC  H17X21997   6.868   6.063  15.615 -0.6446  1.6576  0.8897
  179DOPC  H17Y21998   6.723   6.090  15.516  0.0596 -1.4326 -1.2412
  179DOPC  C31821999   6.889   5.972  15.415  0.0458 -0.2970 -0.3869
  179DOPC  H18X22000   6.999   5.963  15.429 -0.0561  0.0832  0.8556
  179DOPC  H18Y22001   6.837   5.875  15.433  1.2902 -1.3736 -2.2790
  179DOPC  H18Z22002   6.859   6.004  15.313 -1.5075 -2.7620 -0.7777
  180DOPC     N22003   5.653   5.436  13.505 -0.0380 -0.0858  0.0191
  180DOPC   C1222004   5.676   5.395  13.649  0.4769 -0.1860  0.5796
  180DOPC  H12A22005   5.585   5.406  13.707  0.7342 -0.4416  1.0412
  180DOPC  H12B22006   5.742   5.466  13.698  2.3521 -0.3594 -1.5655
  180DOPC   C1322007   5.585   5.574  13.510  0.1115  0.3621 -0.1777
  180DOPC  H13A22008   5.644   5.656  13.549  0.8147 -0.0735 -0.3068
  180DOPC  H13B22009   5.536   5.593  13.416  0.1686  0.3375 -0.2126
  180DOPC  H13C22010   5.509   5.564  13.587 -0.5870 -2.2162 -1.1054
  180DOPC   C1422011   5.577   5.336  13.422  0.0609  0.4904 -0.1051
  180DOPC  H14A22012   5.600   5.239  13.462 -0.8392  0.4539  0.3221
  180DOPC  H14B22013   5.475   5.343  13.454  0.1226  1.8171 -0.1169
  180DOPC  H14C22014   5.592   5.350  13.316 -2.2985  0.8856 -0.4306
  180DOPC   C1522015   5.786   5.450  13.435  0.1754 -0.1059 -0.6691
  180DOPC  H15A22016   5.828   5.353  13.413  0.1432 -0.1296 -0.6263
  180DOPC  H15B22017   5.857   5.501  13.498  1.4650 -0.9612 -1.4049
  180DOPC  H15C22018   5.769   5.512  13.348 -1.6566 -0.7226 -0.7957
  180DOPC   C1122019   5.741   5.253  13.670  0.9747  0.4284  0.1417
  180DOPC  H11A22020   5.830   5.242  13.604  1.7905 -0.9784  1.4231
  180DOPC  H11B22021   5.780   5.250  13.773 -1.3201  0.6518  1.0731
  180DOPC     P22022   5.553   5.100  13.761 -0.0150  0.0965 -0.1179
  180DOPC   O1322023   5.451   5.004  13.706 -0.0051 -0.0260  0.0623
  180DOPC   O1422024   5.504   5.210  13.846  0.4991  0.3248  0.0009
  180DOPC   O1222025   5.645   5.148  13.636 -0.1470  0.3751 -0.5048
  180DOPC   O1122026   5.661   5.021  13.848 -0.0468 -0.7801  0.0411
  180DOPC    C122027   5.688   4.885  13.845  1.0412  0.4766 -0.6605
  180DOPC    HA22028   5.797   4.864  13.852  1.0042  0.2869 -0.6390
  180DOPC    HB22029   5.661   4.851  13.742 -2.6314  2.8988 -0.6636
  180DOPC    C222030   5.614   4.804  13.960  0.4374  0.3034 -0.9483
  180DOPC    HS22031   5.506   4.826  13.953  0.1900 -1.1278 -2.1471
  180DOPC   O2122032   5.684   4.846  14.083 -0.0144  0.0941 -0.2159
  180DOPC   C2122033   5.594   4.880  14.181 -0.4564  0.0078 -0.0834
  180DOPC   O2222034   5.473   4.861  14.181  0.6496 -0.4939  0.1788
  180DOPC   C2222035   5.672   4.951  14.297 -0.0159  0.1080  0.0413
  180DOPC   H2R22036   5.689   5.047  14.244  1.3902 -1.6662 -3.0434
  180DOPC   H2S22037   5.765   4.891  14.306 -1.6930 -2.7658 -0.4333
  180DOPC    C322038   5.633   4.651  13.935  0.0816  0.3207  0.4887
  180DOPC    HX22039   5.743   4.646  13.947  0.6122  1.2425 -2.9582
  180DOPC    HY22040   5.603   4.632  13.830 -1.8352  2.3133  0.5809
  180DOPC   O3122041   5.554   4.574  14.019 -0.1835  0.3678 -0.2211
  180DOPC   C3122042   5.607   4.449  14.034  0.4229 -0.4077  0.0569
  180DOPC   O3222043   5.712   4.411  13.988 -0.0322  0.4958  0.1622
  180DOPC   C3222044   5.512   4.363  14.109 -0.9140  0.4848  0.0234
  180DOPC   H2X22045   5.417   4.367  14.050 -0.2666 -2.0544 -1.3608
  180DOPC   H2Y22046   5.551   4.259  14.102 -2.3727 -0.0769 -0.2614
  180DOPC   C2322047   5.599   4.976  14.432  0.6602  0.1783 -0.5697
  180DOPC   H3R22048   5.496   5.012  14.411  0.6982  1.6944  1.5046
  180DOPC   H3S22049   5.645   5.067  14.476  1.1818 -1.6142  2.9631
  180DOPC   C2422050   5.591   4.851  14.517 -0.3337 -0.2135 -0.2585
  180DOPC   H4R22051   5.577   4.877  14.624 -0.1935 -0.8672 -0.0758
  180DOPC   H4S22052   5.683   4.790  14.507 -0.5592 -0.6514  0.2255
  180DOPC   C2522053   5.479   4.759  14.485 -0.8062  0.0085 -0.0099
  180DOPC   H5R22054   5.483   4.714  14.384 -3.0635 -0.1186 -0.1073
  180DOPC   H5S22055   5.393   4.828  14.474 -1.0497 -0.4712 -1.2418
  180DOPC   C2622056   5.464   4.652  14.590 -0.0073 -0.0040 -0.3673
  180DOPC   H6R22057   5.557   4.608  14.631 -0.1219  2.5418  3.1380
  180DOPC   H6S22058   5.408   4.565  14.550  1.2675 -1.6846  1.3133
  180DOPC   C2722059   5.392   4.715  14.715  0.0389  0.0966 -0.0771
  180DOPC   H7R22060   5.283   4.732  14.703  0.1965  0.4075 -1.1624
  180DOPC   H7S22061   5.439   4.814  14.731 -0.4624  0.3691 -0.2969
  180DOPC   C2822062   5.413   4.625  14.840  0.7360  0.3164 -0.5667
  180DOPC   H8R22063   5.371   4.675  14.929 -0.3877 -1.5544 -0.0052
  180DOPC   H8S22064   5.523   4.621  14.853  0.8164 -0.2588 -1.3320
  180DOPC   C2922065   5.360   4.488  14.832  0.6355  0.2703 -0.2866
  180DOPC   H9R22066   5.407   4.423  14.757  0.1020 -0.5310  0.0619
  180DOPC  C21022067   5.254   4.433  14.902  0.0907 -0.2486  0.0882
  180DOPC  H10R22068   5.218   4.330  14.886 -1.2896  0.0412  1.0760
  180DOPC  C21122069   5.152   4.506  14.982  0.0253  1.0846  0.8833
  180DOPC  H11R22070   5.164   4.615  14.997  1.2760  1.1363 -0.3587
  180DOPC  H11S22071   5.176   4.476  15.087  2.3073  1.6752  0.5638
  180DOPC  C21222072   5.010   4.484  14.935  0.5269  0.4919 -0.2144
  180DOPC  H12R22073   4.983   4.529  14.837  2.3391  0.0694 -0.9474
  180DOPC  H12S22074   4.939   4.539  15.001  0.2764 -0.7937  0.6186
  180DOPC  C21322075   4.963   4.339  14.922  0.2528 -0.0779  0.1794
  180DOPC  H13R22076   4.976   4.276  15.012  0.0262 -1.4929 -0.7575
  180DOPC  H13S22077   5.021   4.284  14.846  1.4715  1.2003  0.1426
  180DOPC  C21422078   4.822   4.327  14.863 -1.0976  0.2702  0.8876
  180DOPC  H14R22079   4.819   4.375  14.763  3.0816 -2.7713 -0.9967
  180DOPC  H14S22080   4.759   4.385  14.934 -2.3882  0.9264 -0.7195
  180DOPC  C21522081   4.772   4.177  14.856 -0.6763  0.0818  0.4814
  180DOPC  H15R22082   4.662   4.174  14.840 -0.4456  0.3204 -1.3997
  180DOPC  H15S22083   4.781   4.135  14.958 -1.2943  2.1723  1.4351
  180DOPC  C21622084   4.820   4.088  14.747 -0.4645 -0.1236  0.3444
  180DOPC  H16R22085   4.803   3.986  14.788 -3.1497  1.5316  3.9507
  180DOPC  H16S22086   4.930   4.100  14.736 -0.4263  3.2031  2.7966
  180DOPC  C21722087   4.759   4.113  14.609 -0.4154 -0.5234 -0.0210
  180DOPC  H17R22088   4.777   4.218  14.578 -1.6573 -0.9246 -2.3486
  180DOPC  H17S22089   4.651   4.085  14.610 -0.9054  1.1637  2.2687
  180DOPC  C21822090   4.823   4.031  14.495 -0.0765  0.5046 -0.0802
  180DOPC  H18R22091   4.932   4.050  14.506  0.6969 -3.5261  0.5672
  180DOPC  H18S22092   4.789   4.070  14.396  0.3698  0.6260 -0.1883
  180DOPC  H18T22093   4.793   3.925  14.499 -1.0137  0.7483 -0.3231
  180DOPC   C3322094   5.497   4.416  14.251 -0.4736 -0.3790  0.1599
  180DOPC   H3X22095   5.493   4.526  14.262  2.7516 -0.2668  0.9722
  180DOPC   H3Y22096   5.593   4.403  14.304  0.6127  3.2829 -0.6299
  180DOPC   C3422097   5.374   4.350  14.337  0.2063 -0.0052  0.2046
  180DOPC   H4X22098   5.406   4.357  14.444  2.3615 -0.9313 -0.3247
  180DOPC   H4Y22099   5.363   4.241  14.322 -2.9325  0.0722  1.2149
  180DOPC   C3522100   5.239   4.423  14.315 -0.3462  0.8855 -0.0234
  180DOPC   H5X22101   5.231   4.452  14.208  0.7874  3.7928  0.5642
  180DOPC   H5Y22102   5.242   4.520  14.369 -1.8643  0.3823  1.0305
  180DOPC   C3622103   5.114   4.341  14.359  0.1972 -0.3787 -0.4594
  180DOPC   H6X22104   5.118   4.242  14.310  0.6124 -0.7952  0.3909
  180DOPC   H6Y22105   5.138   4.323  14.466  2.8914 -0.0519 -0.9454
  180DOPC   C3722106   4.987   4.424  14.347  0.7994 -0.2061 -1.1552
  180DOPC   H7X22107   4.975   4.457  14.242  0.1084  0.5161 -0.8535
  180DOPC   H7Y22108   4.911   4.354  14.389  0.9717  0.4984  0.3958
  180DOPC   C3822109   4.977   4.549  14.444 -0.1238  0.6280 -0.5214
  180DOPC   H8X22110   5.071   4.608  14.439  1.7077 -1.7679  2.4407
  180DOPC   H8Y22111   4.969   4.530  14.553  0.7048 -0.1703 -0.5867
  180DOPC   C3922112   4.856   4.634  14.408 -0.0063  0.3537 -0.5666
  180DOPC   H9X22113   4.849   4.648  14.299  0.6987  0.6786 -0.5775
  180DOPC  C31022114   4.769   4.692  14.501 -0.4459 -0.1557 -0.4860
  180DOPC  H10X22115   4.691   4.758  14.461 -1.4310 -1.4834 -0.8171
  180DOPC  C31122116   4.784   4.682  14.648  0.3894  0.1090 -0.9066
  180DOPC  H11X22117   4.883   4.713  14.686  0.5599  2.6221 -3.1693
  180DOPC  H11Y22118   4.783   4.573  14.671  0.0695  0.7961  3.1113
  180DOPC  C31222119   4.687   4.767  14.732 -0.4350  0.3575 -0.6687
  180DOPC  H12X22120   4.583   4.737  14.706 -0.8745  1.3012 -0.0137
  180DOPC  H12Y22121   4.696   4.877  14.722  0.8093  0.5721  1.9012
  180DOPC  C31322122   4.696   4.732  14.882 -0.3240  0.4216 -0.5215
  180DOPC  H13X22123   4.687   4.622  14.889 -0.2229  0.4382 -0.1281
  180DOPC  H13Y22124   4.791   4.751  14.936 -0.5755 -1.2529  0.5683
  180DOPC  C31422125   4.579   4.788  14.966 -0.3936 -0.5389  0.3700
  180DOPC  H14X22126   4.592   4.898  14.980 -0.2591 -0.6589  1.2594
  180DOPC  H14Y22127   4.487   4.774  14.906  0.0131  0.0084 -0.3911
  180DOPC  C31522128   4.567   4.716  15.099 -1.1163 -0.7271 -0.6860
  180DOPC  H15X22129   4.549   4.609  15.076  1.9851 -2.3658  3.2502
  180DOPC  H15Y22130   4.476   4.753  15.150 -1.3366 -0.9329 -0.9299
  180DOPC  C31622131   4.693   4.733  15.189  0.5430  0.0944  0.1940
  180DOPC  H16X22132   4.784   4.686  15.146 -0.2546  0.5943 -2.1624
  180DOPC  H16Y22133   4.718   4.840  15.203  1.3260 -0.0398 -0.1188
  180DOPC  C31722134   4.679   4.676  15.333  0.8859 -0.3715  0.2094
  180DOPC  H17X22135   4.580   4.709  15.372 -0.3658 -0.6599 -2.4966
  180DOPC  H17Y22136   4.668   4.566  15.329  0.3607 -0.5136  3.2360
  180DOPC  C31822137   4.796   4.710  15.428  0.2453 -0.3917  0.6822
  180DOPC  H18X22138   4.802   4.642  15.516  0.5073 -3.4611 -1.5384
  180DOPC  H18Y22139   4.889   4.696  15.368 -1.2856 -2.4721 -1.3488
  180DOPC  H18Z22140   4.793   4.817  15.458 -0.0980  0.1441 -1.1732
  181DOPC     N22141   0.016   4.110  13.228 -0.2515  0.1886 -0.2361
  181DOPC   C1222142  -0.067   3.991  13.183  0.1837 -0.4858  0.5602
  181DOPC  H12A22143  -0.065   3.981  13.075 -1.2015  0.2561  0.4391
  181DOPC  H12B22144  -0.171   4.021  13.185 -0.0286 -0.9435 -1.3988
  181DOPC   C1322145   0.166   4.078  13.206  0.2928  0.2470  0.8928
  181DOPC  H13A22146   0.176   4.038  13.106  0.3744  2.9956 -0.2890
  181DOPC  H13B22147   0.218   4.172  13.205  0.4935  0.2023 -2.0494
  181DOPC  H13C22148   0.212   4.009  13.275  1.2049 -0.6787 -0.5848
  181DOPC   C1422149  -0.005   4.142  13.363 -0.0808  0.3159 -0.2250
  181DOPC  H14A22150   0.066   4.211  13.406 -0.6377  1.1012 -0.5431
  181DOPC  H14B22151  -0.099   4.189  13.385 -0.0176 -0.3866  1.8232
  181DOPC  H14C22152  -0.001   4.052  13.422  0.2796  0.1060 -0.5597
  181DOPC   C1522153  -0.015   4.227  13.143  1.1601  0.8080  0.1280
  181DOPC  H15A22154   0.035   4.318  13.170  0.8023  1.4869 -1.4015
  181DOPC  H15B22155  -0.117   4.259  13.156  0.0513 -2.0090 -0.7346
  181DOPC  H15C22156  -0.022   4.205  13.037 -0.3679  0.6289  0.2330
  181DOPC   C1122157  -0.043   3.843  13.231 -0.1749 -0.0307  0.1525
  181DOPC  H11A22158  -0.088   3.766  13.166  1.9391 -1.0797 -0.1574
  181DOPC  H11B22159   0.067   3.832  13.220  0.0512 -1.5467  2.9567
  181DOPC     P22160  -0.235   3.820  13.411 -0.3437 -0.1659  0.0196
  181DOPC   O1322161  -0.287   3.679  13.401 -0.8229 -0.3275  1.0458
  181DOPC   O1422162  -0.316   3.919  13.332 -0.0065 -0.3357 -0.1134
  181DOPC   O1222163  -0.080   3.829  13.367  0.1328  0.0221  0.0416
  181DOPC   O1122164  -0.222   3.862  13.562  0.3585 -0.1567 -0.6439
  181DOPC    C122165  -0.113   3.837  13.651 -0.4823 -0.7170 -0.5947
  181DOPC    HA22166  -0.018   3.874  13.607  1.5071 -1.9611  2.3105
  181DOPC    HB22167  -0.095   3.730  13.672  1.2515  0.1218  3.2582
  181DOPC    C222168  -0.119   3.916  13.787 -0.4711  0.2859 -0.0333
  181DOPC    HS22169  -0.011   3.922  13.814 -0.4578 -0.9094  0.2400
  181DOPC   O2122170  -0.197   3.851  13.888  0.3348 -0.6371 -0.2912
  181DOPC   C2122171  -0.157   3.730  13.916  0.1984  0.1302 -0.1309
  181DOPC   O2222172  -0.042   3.686  13.901  0.3027  0.3993 -0.3287
  181DOPC   C2222173  -0.268   3.648  13.966 -0.0375 -0.5725  0.1453
  181DOPC   H2R22174  -0.349   3.622  13.895 -0.8000  1.0134  0.3910
  181DOPC   H2S22175  -0.316   3.712  14.043  0.9142  1.5027 -0.9276
  181DOPC    C322176  -0.182   4.053  13.766 -0.3250  0.5123  0.9927
  181DOPC    HX22177  -0.285   4.051  13.723  0.0243  1.2302  0.0811
  181DOPC    HY22178  -0.119   4.111  13.695 -0.7502  0.9762  0.9935
  181DOPC   O3122179  -0.164   4.129  13.884 -0.1217  0.1278  0.3050
  181DOPC   C3122180  -0.264   4.182  13.947 -0.2960  0.3178  0.5821
  181DOPC   O3222181  -0.377   4.186  13.901 -0.0947 -0.6447  0.4603
  181DOPC   C3222182  -0.214   4.252  14.068 -0.2712  0.3080  1.0416
  181DOPC   H2X22183  -0.128   4.195  14.110  0.2632  0.1996 -0.1723
  181DOPC   H2Y22184  -0.173   4.347  14.028 -0.0323 -0.5192 -0.8077
  181DOPC   C2322185  -0.225   3.514  14.024 -0.5522  0.4927 -0.7111
  181DOPC   H3R22186  -0.150   3.532  14.105  1.1914 -2.0478 -1.6251
  181DOPC   H3S22187  -0.171   3.457  13.946 -2.3879 -1.9694 -0.3011
  181DOPC   C2422188  -0.342   3.431  14.075  0.0699  0.0836 -0.3174
  181DOPC   H4R22189  -0.327   3.322  14.065  3.8083  0.3952  0.5400
  181DOPC   H4S22190  -0.427   3.442  14.004  0.5660  0.5950 -0.8472
  181DOPC   C2522191  -0.389   3.480  14.216  0.4739  0.7714 -0.2633
  181DOPC   H5R22192  -0.477   3.423  14.253  0.9454  0.6598  0.7229
  181DOPC   H5S22193  -0.417   3.587  14.206 -1.9768 -0.0163 -3.4603
  181DOPC   C2622194  -0.282   3.464  14.330  0.4211 -0.1653  0.6863
  181DOPC   H6R22195  -0.308   3.543  14.403 -2.1170  0.7764 -1.0850
  181DOPC   H6S22196  -0.177   3.470  14.295 -0.4064  1.1731 -1.8395
  181DOPC   C2722197  -0.308   3.326  14.403  0.5368  0.0284 -0.9223
  181DOPC   H7R22198  -0.313   3.247  14.325  1.6235 -1.6820  0.6512
  181DOPC   H7S22199  -0.403   3.321  14.460  1.1477  0.1261  0.1302
  181DOPC   C2822200  -0.196   3.298  14.505 -0.9878  0.5268 -0.3718
  181DOPC   H8R22201  -0.210   3.351  14.601  0.5039  0.7105 -0.2376
  181DOPC   H8S22202  -0.096   3.334  14.473 -0.7915 -0.4165 -0.8761
  181DOPC   C2922203  -0.172   3.151  14.541  1.1931  0.3242 -0.0162
  181DOPC   H9R22204  -0.100   3.095  14.479  2.4060 -1.8518  3.0991
  181DOPC  C21022205  -0.239   3.091  14.646 -0.5377 -0.1388  0.4859
  181DOPC  H10R22206  -0.231   2.983  14.667 -1.0141  0.0502  1.7708
  181DOPC  C21122207  -0.334   3.160  14.739  0.0518 -0.2971  0.4376
  181DOPC  H11R22208  -0.329   3.271  14.740  0.1001 -0.2343 -1.8182
  181DOPC  H11S22209  -0.309   3.127  14.842  2.8408  1.6607  0.4954
  181DOPC  C21222210  -0.483   3.115  14.707  0.4674 -0.5955  0.2952
  181DOPC  H12R22211  -0.492   3.006  14.725  0.4288 -0.4406  1.2420
  181DOPC  H12S22212  -0.504   3.134  14.599 -0.1845  1.7188  0.7721
  181DOPC  C21322213  -0.578   3.192  14.793  0.2263 -0.5944 -0.4109
  181DOPC  H13R22214  -0.567   3.299  14.764 -0.3174  0.2447  2.1861
  181DOPC  H13S22215  -0.546   3.181  14.899  0.4944  2.2790 -0.1180
  181DOPC  C21422216  -0.721   3.139  14.789 -0.1815 -0.2812  0.6636
  181DOPC  H14R22217  -0.733   3.030  14.803 -0.2136 -0.2513  0.8733
  181DOPC  H14S22218  -0.756   3.152  14.684 -0.5879 -0.6382  0.7541
  181DOPC  C21522219  -0.818   3.218  14.879  0.0275  0.1763  0.2463
  181DOPC  H15R22220  -0.802   3.322  14.844 -1.9155 -0.1394 -1.7961
  181DOPC  H15S22221  -0.798   3.208  14.988 -0.4498 -0.7078  0.2716
  181DOPC  C21622222  -0.955   3.167  14.854  0.3326  0.2733  0.4147
  181DOPC  H16R22223  -0.956   3.058  14.875  0.9406  0.2571  0.3789
  181DOPC  H16S22224  -0.982   3.164  14.746  0.5938 -2.3663  0.3432
  181DOPC  C21722225  -1.062   3.242  14.945 -0.8405  0.1855  0.1238
  181DOPC  H17R22226  -1.048   3.351  14.932  0.1811 -0.0148 -0.5449
  181DOPC  H17S22227  -1.031   3.221  15.050 -0.7441 -2.1337 -0.3028
  181DOPC  C21822228  -1.211   3.209  14.916 -0.2696  0.0884 -0.1356
  181DOPC  H18R22229  -1.236   3.221  14.808 -0.6718  0.5258  0.0009
  181DOPC  H18S22230  -1.277   3.272  14.980  0.5101 -0.1254  0.8967
  181DOPC  H18T22231  -1.216   3.106  14.955 -0.5068  0.1477 -0.0080
  181DOPC   C3322232  -0.326   4.265  14.168  0.3776 -0.4713 -0.1419
  181DOPC   H3X22233  -0.374   4.167  14.189  0.9513 -0.5697  0.7222
  181DOPC   H3Y22234  -0.409   4.325  14.123 -0.5448 -0.6708  1.2292
  181DOPC   C3422235  -0.286   4.337  14.302  0.3366  0.3270  0.4275
  181DOPC   H4X22236  -0.229   4.426  14.269  1.6025 -0.0467  1.4939
  181DOPC   H4Y22237  -0.211   4.283  14.364  1.6465  1.8930  0.2989
  181DOPC   C3522238  -0.413   4.355  14.392  0.3947 -0.4744  0.6167
  181DOPC   H5X22239  -0.443   4.259  14.440  0.8939  1.1432  4.5987
  181DOPC   H5Y22240  -0.499   4.392  14.332  0.5592  1.8228  1.6945
  181DOPC   C3622241  -0.387   4.462  14.501 -0.0964 -0.3171  1.3711
  181DOPC   H6X22242  -0.303   4.429  14.566 -0.3473  0.3581  2.0487
  181DOPC   H6Y22243  -0.347   4.551  14.449 -0.3822 -0.5726  0.7043
  181DOPC   C3722244  -0.514   4.501  14.582 -0.1368  0.5921 -0.2642
  181DOPC   H7X22245  -0.512   4.601  14.630 -0.9919  0.5496 -0.1290
  181DOPC   H7Y22246  -0.608   4.503  14.524  0.4244 -1.3959 -1.3454
  181DOPC   C3822247  -0.541   4.408  14.702  0.0284  0.0232 -0.7444
  181DOPC   H8X22248  -0.468   4.324  14.701  1.0055  0.8450 -0.4686
  181DOPC   H8Y22249  -0.641   4.360  14.712  0.1220  0.2011  1.6408
  181DOPC   C3922250  -0.544   4.469  14.839 -0.1783  0.0526  0.7476
  181DOPC   H9X22251  -0.619   4.546  14.862  2.4819  2.8544  0.7132
  181DOPC  C31022252  -0.445   4.459  14.927  0.1049 -0.0264  0.4257
  181DOPC  H10X22253  -0.457   4.508  15.025  1.0163 -2.1902  1.6850
  181DOPC  C31122254  -0.318   4.377  14.907 -0.0776  0.0793  0.0933
  181DOPC  H11X22255  -0.227   4.439  14.919  0.4446 -0.7142  0.2899
  181DOPC  H11Y22256  -0.308   4.344  14.801 -0.0711  0.0865  0.0916
  181DOPC  C31222257  -0.293   4.249  14.997 -0.2604 -0.0571 -0.6267
  181DOPC  H12X22258  -0.321   4.267  15.103  0.9246 -0.1376 -0.2845
  181DOPC  H12Y22259  -0.184   4.237  15.019 -0.1617 -0.0684 -1.1086
  181DOPC  C31322260  -0.356   4.119  14.947 -0.6996 -1.1202 -0.6117
  181DOPC  H13X22261  -0.465   4.138  14.946 -0.6285 -0.6137  0.3352
  181DOPC  H13Y22262  -0.324   4.108  14.841 -0.9250  0.9162 -0.9298
  181DOPC  C31422263  -0.317   4.007  15.038 -0.3817  0.6808  0.5839
  181DOPC  H14X22264  -0.208   4.017  15.057 -0.1492 -1.3537  0.5357
  181DOPC  H14Y22265  -0.373   4.026  15.132 -2.3295  0.9446 -0.5790
  181DOPC  C31522266  -0.338   3.871  14.979  0.1018  0.0287 -0.3691
  181DOPC  H15X22267  -0.443   3.865  14.944 -0.6071  0.4998  1.5643
  181DOPC  H15Y22268  -0.317   3.792  15.054  0.5602 -0.5751 -1.1176
  181DOPC  C31622269  -0.242   3.831  14.862  0.1186 -0.0869 -0.1953
  181DOPC  H16X22270  -0.259   3.890  14.769 -0.4987  0.9663  0.5654
  181DOPC  H16Y22271  -0.136   3.850  14.887 -0.4644  2.1887  0.8020
  181DOPC  C31722272  -0.276   3.691  14.814 -0.3723 -0.3540  0.1220
  181DOPC  H17X22273  -0.257   3.624  14.900  1.1622  0.3557  0.3698
  181DOPC  H17Y22274  -0.386   3.689  14.796 -0.4341  0.6497  0.3303
  181DOPC  C31822275  -0.204   3.632  14.694  0.0031  1.2046 -0.5065
  181DOPC  H18X22276  -0.097   3.661  14.697  0.4315 -0.1951 -1.2227
  181DOPC  H18Y22277  -0.212   3.521  14.694 -0.9382  1.2324 -2.4417
  181DOPC  H18Z22278  -0.253   3.670  14.602 -0.1833 -0.4158 -1.1199
  182DOPC     N22279   1.717   1.809  12.981  0.2748  0.8492  0.6923
  182DOPC   C1222280   1.812   1.746  13.080  0.1751  0.3291  0.0470
  182DOPC  H12A22281   1.913   1.748  13.044  0.0216  1.3121 -0.3780
  182DOPC  H12B22282   1.788   1.641  13.071 -1.7998  0.8288 -1.3402
  182DOPC   C1322283   1.577   1.779  13.011 -0.0531 -0.4544  0.3268
  182DOPC  H13A22284   1.548   1.841  13.094  0.2703 -0.1113  0.1861
  182DOPC  H13B22285   1.509   1.803  12.931  0.4225 -0.2273 -0.0175
  182DOPC  H13C22286   1.556   1.674  13.030  0.4041 -0.1403  2.9652
  182DOPC   C1422287   1.729   1.751  12.835 -0.0604  0.3600  0.1144
  182DOPC  H14A22288   1.832   1.774  12.811 -0.0417  1.8797  1.4932
  182DOPC  H14B22289   1.700   1.648  12.837 -0.5030  0.4924  0.9639
  182DOPC  H14C22290   1.668   1.804  12.764 -1.6541  0.6862  1.6790
  182DOPC   C1522291   1.746   1.956  12.967  0.5620  0.0771 -0.6419
  182DOPC  H15A22292   1.733   2.009  13.060  3.1886  0.7230 -0.5748
  182DOPC  H15B22293   1.675   1.993  12.894  0.6543 -2.3981 -2.1030
  182DOPC  H15C22294   1.845   1.975  12.928  0.8303  3.3498  1.2688
  182DOPC   C1122295   1.798   1.789  13.227  0.3246  0.4693 -0.4486
  182DOPC  H11A22296   1.716   1.732  13.276  2.1556 -1.5270  0.4942
  182DOPC  H11B22297   1.886   1.741  13.273 -0.1520  0.8363  0.8692
  182DOPC     P22298   1.898   2.024  13.314  0.2555  0.3091  0.3630
  182DOPC   O1322299   1.894   2.164  13.263  0.0234 -0.0527  0.4335
  182DOPC   O1422300   2.028   1.956  13.306 -0.2647 -0.3500  0.1069
  182DOPC   O1222301   1.790   1.928  13.247 -0.0922  0.1840 -0.1771
  182DOPC   O1122302   1.846   2.024  13.466  0.2313 -0.0980  0.3736
  182DOPC    C122303   1.878   1.897  13.531  0.0025  0.2849  0.7463
  182DOPC    HA22304   1.988   1.885  13.539  0.2911  1.2111 -1.3741
  182DOPC    HB22305   1.845   1.807  13.475  3.0344 -1.5484  1.6387
  182DOPC    C222306   1.823   1.890  13.677  0.9704  0.5304  0.4305
  182DOPC    HS22307   1.712   1.882  13.666  1.1673 -2.2718 -0.3199
  182DOPC   O2122308   1.867   2.011  13.747 -0.0794  0.3314  0.0514
  182DOPC   C2122309   1.764   2.074  13.816 -0.7157 -0.9005 -0.5114
  182DOPC   O2222310   1.652   2.031  13.818 -0.5952  0.2936  0.0212
  182DOPC   C2222311   1.828   2.200  13.872  0.4105  0.4579 -0.1646
  182DOPC   H2R22312   1.860   2.266  13.789 -1.2485 -0.1107 -1.3118
  182DOPC   H2S22313   1.911   2.159  13.933 -0.4402  0.9824  1.4138
  182DOPC    C322314   1.881   1.770  13.761  0.5375 -0.3183 -0.7569
  182DOPC    HX22315   1.991   1.763  13.773  0.5394  0.9222  0.1745
  182DOPC    HY22316   1.851   1.676  13.711 -2.1417 -0.1428  0.3263
  182DOPC   O3122317   1.818   1.774  13.890 -0.0377  0.1248  0.6451
  182DOPC   C3122318   1.844   1.678  13.979  0.1048  0.4605 -0.5784
  182DOPC   O3222319   1.919   1.581  13.957  0.0853 -0.1548 -0.0770
  182DOPC   C3222320   1.774   1.704  14.111  0.6575  0.2180 -0.2217
  182DOPC   H2X22321   1.858   1.722  14.180  3.3571 -1.5172 -2.8208
  182DOPC   H2Y22322   1.718   1.799  14.105  2.4513  1.2582 -1.2842
  182DOPC   C2322323   1.729   2.285  13.952 -0.8173 -0.0353  0.1873
  182DOPC   H3R22324   1.675   2.227  14.030 -0.7505 -0.1706  0.1342
  182DOPC   H3S22325   1.652   2.338  13.892  0.1469 -0.1732 -1.2113
  182DOPC   C2422326   1.803   2.387  14.041  0.5044  0.5836 -0.3575
  182DOPC   H4R22327   1.732   2.463  14.081  0.1955 -0.1401  0.4886
  182DOPC   H4S22328   1.881   2.441  13.982  1.7476  1.0134  1.5768
  182DOPC   C2522329   1.880   2.328  14.165 -0.5286  0.0626 -0.3696
  182DOPC   H5R22330   1.928   2.232  14.136  1.6069  1.3588 -1.3103
  182DOPC   H5S22331   1.801   2.297  14.236 -1.8070 -0.0379 -1.7811
  182DOPC   C2622332   1.978   2.420  14.231  0.4347  0.1655 -0.3277
  182DOPC   H6R22333   1.928   2.509  14.276  1.3537  0.4629  0.1559
  182DOPC   H6S22334   2.045   2.466  14.155  0.5164 -1.5441 -1.3292
  182DOPC   C2722335   2.060   2.350  14.344  0.0364 -0.2463  0.1107
  182DOPC   H7R22336   2.104   2.261  14.295 -0.1945  0.0796 -0.7057
  182DOPC   H7S22337   1.987   2.319  14.422 -1.0775  3.0518  0.5292
  182DOPC   C2822338   2.171   2.427  14.403 -0.2028 -0.1646  0.5429
  182DOPC   H8R22339   2.259   2.438  14.337  1.1278 -1.2077  2.0662
  182DOPC   H8S22340   2.205   2.362  14.486 -2.8289 -1.8651  0.4280
  182DOPC   C2922341   2.131   2.557  14.460 -0.2462  0.0540 -0.1990
  182DOPC   H9R22342   2.134   2.637  14.384 -0.6819  0.2878  0.0266
  182DOPC  C21022343   2.081   2.592  14.579 -0.6050  0.3667 -0.3722
  182DOPC  H10R22344   2.060   2.697  14.605  0.1789  0.9442 -1.9213
  182DOPC  C21122345   2.042   2.503  14.692 -0.5951 -0.0162  0.5070
  182DOPC  H11R22346   2.086   2.522  14.792 -0.4128 -3.1386  1.1416
  182DOPC  H11S22347   2.076   2.398  14.677  1.2160  0.8067 -1.6560
  182DOPC  C21222348   1.884   2.515  14.690 -0.4915  0.3857  0.2258
  182DOPC  H12R22349   1.844   2.415  14.719 -0.3535  0.9949  2.7733
  182DOPC  H12S22350   1.838   2.536  14.592 -0.5966 -0.9988 -0.0517
  182DOPC  C21322351   1.840   2.616  14.789 -0.3896 -0.0722 -0.3484
  182DOPC  H13R22352   1.866   2.724  14.779  0.9851  0.0271  3.0116
  182DOPC  H13S22353   1.883   2.588  14.887  0.3418  0.5393 -0.4800
  182DOPC  C21422354   1.694   2.591  14.821  0.4119  0.9531 -0.3032
  182DOPC  H14R22355   1.665   2.645  14.914 -0.5695  0.4602 -0.3139
  182DOPC  H14S22356   1.665   2.486  14.841 -2.8791  1.7461 -0.3788
  182DOPC  C21522357   1.601   2.637  14.711 -0.7488  0.2502 -0.4171
  182DOPC  H15R22358   1.633   2.580  14.621  0.5688  0.5181 -0.1408
  182DOPC  H15S22359   1.622   2.745  14.699 -0.4584  0.1668 -0.6845
  182DOPC  C21622360   1.453   2.617  14.733  0.2643 -0.2833  0.7715
  182DOPC  H16R22361   1.426   2.639  14.839  0.6614 -1.6118  1.1714
  182DOPC  H16S22362   1.421   2.512  14.715  0.4253 -0.1437 -0.3957
  182DOPC  C21722363   1.372   2.711  14.636  0.2760 -0.4267 -0.0320
  182DOPC  H17R22364   1.408   2.686  14.533  2.8381 -1.0647  0.9417
  182DOPC  H17S22365   1.390   2.820  14.644  0.9811 -0.5209 -0.2218
  182DOPC  C21822366   1.223   2.677  14.631 -0.0481  0.5741  0.4601
  182DOPC  H18R22367   1.210   2.571  14.600  2.1676  0.2886  0.3682
  182DOPC  H18S22368   1.183   2.740  14.549  2.2163  1.8747  0.2885
  182DOPC  H18T22369   1.172   2.700  14.727 -1.8503  0.2866 -0.3818
  182DOPC   C3322370   1.674   1.593  14.152  0.4331  0.0338  0.2451
  182DOPC   H3X22371   1.718   1.504  14.202 -2.1247 -1.3609  0.1743
  182DOPC   H3Y22372   1.608   1.560  14.069 -1.6978  1.4400  1.2912
  182DOPC   C3422373   1.573   1.645  14.255  0.2227  0.2365 -0.2428
  182DOPC   H4X22374   1.519   1.728  14.205  1.4635  0.3524 -1.4473
  182DOPC   H4Y22375   1.626   1.683  14.345  1.4606 -0.9175 -0.4510
  182DOPC   C3522376   1.473   1.537  14.294 -0.3691 -0.5116 -0.4904
  182DOPC   H5X22377   1.503   1.493  14.392 -1.1691 -0.4357 -0.2012
  182DOPC   H5Y22378   1.460   1.455  14.220 -1.4152  1.1382 -2.2397
  182DOPC   C3622379   1.333   1.597  14.318 -0.1943 -0.0830  0.3955
  182DOPC   H6X22380   1.320   1.682  14.388  1.6705  0.0243  0.6624
  182DOPC   H6Y22381   1.302   1.638  14.219  0.6429  2.0070  0.9384
  182DOPC   C3722382   1.231   1.491  14.357  0.1340 -0.5955  0.5507
  182DOPC   H7X22383   1.135   1.534  14.320  0.6620  1.5532  1.5271
  182DOPC   H7Y22384   1.251   1.403  14.292 -1.5990  1.7372 -3.5360
  182DOPC   C3822385   1.227   1.455  14.503 -0.3698  0.1131 -0.9107
  182DOPC   H8X22386   1.230   1.555  14.551 -0.2446 -0.0303 -0.6189
  182DOPC   H8Y22387   1.316   1.398  14.537 -1.5825 -1.0136  0.5274
  182DOPC   C3922388   1.103   1.385  14.550  0.4064  0.5259 -0.0893
  182DOPC   H9X22389   1.066   1.302  14.487  1.1429  0.7327 -0.8132
  182DOPC  C31022390   1.013   1.430  14.642 -0.4655  0.2360 -0.8233
  182DOPC  H10X22391   0.923   1.370  14.663  1.6991 -3.5143 -1.3926
  182DOPC  C31122392   1.032   1.548  14.735 -0.7893 -0.0922  0.6961
  182DOPC  H11X22393   0.936   1.605  14.739 -0.8434 -0.0805 -0.5653
  182DOPC  H11Y22394   1.108   1.624  14.708 -1.0840  0.3589  1.1120
  182DOPC  C31222395   1.071   1.512  14.880  0.0747  0.9826  0.9660
  182DOPC  H12X22396   1.151   1.435  14.874 -1.5631 -0.7869 -5.4649
  182DOPC  H12Y22397   0.985   1.465  14.931 -0.1123  0.3963  0.1191
  182DOPC  C31322398   1.124   1.625  14.963  0.0866 -0.3789  0.6855
  182DOPC  H13X22399   1.159   1.575  15.056  1.0304 -3.7978 -1.3416
  182DOPC  H13Y22400   1.214   1.678  14.926  0.0396  0.0052  1.1124
  182DOPC  C31422401   1.022   1.736  14.992 -0.3087  0.2417  0.2384
  182DOPC  H14X22402   0.991   1.787  14.898 -3.0156  0.4150  1.1319
  182DOPC  H14Y22403   0.938   1.685  15.045  0.0656 -1.0719 -0.4086
  182DOPC  C31522404   1.081   1.843  15.090 -0.0509  0.1019  0.1738
  182DOPC  H15X22405   1.180   1.872  15.049  0.5934 -2.0419  0.1082
  182DOPC  H15Y22406   1.100   1.810  15.194  1.2950 -1.1781 -0.4567
  182DOPC  C31622407   1.000   1.977  15.093  0.5762  0.6566  0.2698
  182DOPC  H16X22408   1.026   2.018  14.993  0.2724  1.4384  0.5018
  182DOPC  H16Y22409   0.891   1.955  15.098  0.7071 -0.3058 -0.7840
  182DOPC  C31722410   1.039   2.065  15.213 -0.0457 -0.3246 -0.4650
  182DOPC  H17X22411   1.149   2.067  15.227 -0.3076 -1.2290  2.1901
  182DOPC  H17Y22412   1.008   2.172  15.208  1.7891  0.2787  0.3232
  182DOPC  C31822413   0.967   2.014  15.336  0.1474  0.1357 -0.0678
  182DOPC  H18X22414   0.971   1.905  15.351 -1.4259  0.2121  1.1563
  182DOPC  H18Y22415   1.006   2.064  15.427 -0.1495  1.4336 -0.6228
  182DOPC  H18Z22416   0.858   2.034  15.340  0.1949  0.4142 -0.1324
  183DOPC     N22417   8.433   6.577  13.425 -0.5471 -1.2073 -0.0785
  183DOPC   C1222418   8.500   6.576  13.565  0.3622  0.2883  0.5015
  183DOPC  H12A22419   8.596   6.622  13.549  0.3064  0.4765  0.6940
  183DOPC  H12B22420   8.505   6.476  13.603  1.8931  0.4274  0.7056
  183DOPC   C1322421   8.291   6.536  13.425  0.5233  0.1265  0.0430
  183DOPC  H13A22422   8.244   6.540  13.328 -0.8028 -0.1848  0.6579
  183DOPC  H13B22423   8.284   6.438  13.471  2.6276 -0.4559 -0.7691
  183DOPC  H13C22424   8.240   6.604  13.491 -1.8260 -0.0191 -1.4900
  183DOPC   C1422425   8.511   6.485  13.343 -0.3540  0.0681  0.1462
  183DOPC  H14A22426   8.505   6.383  13.378 -0.1371  0.1886  0.5360
  183DOPC  H14B22427   8.463   6.476  13.246 -0.8207  1.3774  0.2320
  183DOPC  H14C22428   8.614   6.516  13.336 -0.5114  0.4733 -0.5777
  183DOPC   C1522429   8.438   6.714  13.368  0.4582 -0.6784 -0.0024
  183DOPC  H15A22430   8.368   6.773  13.426  0.5983 -0.2213 -0.2910
  183DOPC  H15B22431   8.380   6.718  13.277 -0.5611  3.5276  0.6161
  183DOPC  H15C22432   8.534   6.762  13.360  0.2360 -0.3811 -1.1728
  183DOPC   C1122433   8.433   6.645  13.685  0.5822 -0.9365 -0.7813
  183DOPC  H11A22434   8.503   6.639  13.770  2.7673 -0.0126 -2.4131
  183DOPC  H11B22435   8.412   6.753  13.665  2.4888  0.4504  3.5203
  183DOPC     P22436   8.298   6.452  13.811 -0.1416 -0.5945  0.0278
  183DOPC   O1322437   8.416   6.369  13.800 -0.3013  0.2007 -0.1555
  183DOPC   O1422438   8.170   6.381  13.796 -0.1048 -0.3583  0.0357
  183DOPC   O1222439   8.312   6.573  13.715 -0.3955  0.7972  0.2796
  183DOPC   O1122440   8.298   6.516  13.951  0.1548  0.1047 -0.1485
  183DOPC    C122441   8.239   6.647  13.984 -0.3402 -0.5165 -0.2081
  183DOPC    HA22442   8.174   6.630  14.072  1.1142 -1.2655  0.7725
  183DOPC    HB22443   8.189   6.699  13.900  0.3338 -0.5960 -0.6626
  183DOPC    C222444   8.358   6.734  14.037  0.2258 -0.6794 -0.0030
  183DOPC    HS22445   8.438   6.744  13.961  0.4733  5.0296  0.5192
  183DOPC   O2122446   8.405   6.687  14.164 -0.1564  0.1619  0.1546
  183DOPC   C2122447   8.497   6.597  14.165  0.4972  0.2241 -0.9337
  183DOPC   O2222448   8.561   6.553  14.068 -0.4904  0.1001 -0.4306
  183DOPC   C2222449   8.515   6.559  14.315 -0.3118  0.6873 -0.6112
  183DOPC   H2R22450   8.421   6.513  14.351 -0.2818  2.1032  1.4481
  183DOPC   H2S22451   8.538   6.656  14.365  0.7571  1.0740 -1.8069
  183DOPC    C322452   8.305   6.875  14.069 -0.7115 -0.1197  0.3217
  183DOPC    HX22453   8.236   6.874  14.156  1.4197 -2.3597  2.1237
  183DOPC    HY22454   8.254   6.913  13.978 -1.0737 -1.5755 -0.1116
  183DOPC   O3122455   8.425   6.965  14.101 -0.0535  0.2998  0.2318
  183DOPC   C3122456   8.490   7.008  13.995 -0.7737 -0.0716 -0.8514
  183DOPC   O3222457   8.475   6.971  13.881 -0.3741  0.0210  0.0508
  183DOPC   C3222458   8.603   7.103  14.038  0.2476  0.0423 -1.0814
  183DOPC   H2X22459   8.647   7.063  14.131 -0.5610 -0.5865 -0.9510
  183DOPC   H2Y22460   8.679   7.104  13.957  0.1280 -0.5372 -1.2099
  183DOPC   C2322461   8.630   6.465  14.347  0.9222 -0.6707  0.4433
  183DOPC   H3R22462   8.716   6.535  14.337 -0.1502  0.8534  1.3127
  183DOPC   H3S22463   8.646   6.386  14.271 -1.3252 -1.5826  0.8451
  183DOPC   C2422464   8.628   6.403  14.489  0.4905  0.3948 -0.2739
  183DOPC   H4R22465   8.734   6.378  14.511  0.4490  2.3099  2.9195
  183DOPC   H4S22466   8.570   6.309  14.487  0.7016  0.1469  2.0987
  183DOPC   C2522467   8.568   6.491  14.601  0.1199 -0.3866 -0.2796
  183DOPC   H5R22468   8.459   6.476  14.611  0.0526 -0.0800 -0.5449
  183DOPC   H5S22469   8.592   6.598  14.582 -1.4867 -0.0253 -0.4300
  183DOPC   C2622470   8.617   6.439  14.744  0.3135 -0.3222  0.1020
  183DOPC   H6R22471   8.728   6.437  14.745  0.3338 -0.5930  2.3154
  183DOPC   H6S22472   8.584   6.335  14.765 -1.6136 -0.0737 -1.4183
  183DOPC   C2722473   8.574   6.544  14.847 -0.2664  0.2495  0.9246
  183DOPC   H7R22474   8.600   6.644  14.808 -0.0882  0.0050  0.4043
  183DOPC   H7S22475   8.623   6.519  14.943  0.8159  0.7845  0.5311
  183DOPC   C2822476   8.422   6.559  14.876  0.2498 -0.9069 -0.0547
  183DOPC   H8R22477   8.360   6.576  14.785 -1.8938  3.4841  1.9711
  183DOPC   H8S22478   8.413   6.655  14.929 -0.7932  0.2727 -2.2168
  183DOPC   C2922479   8.362   6.451  14.961 -0.4491 -0.4174  0.2796
  183DOPC   H9R22480   8.424   6.431  15.049 -0.4623 -3.4450 -0.3069
  183DOPC  C21022481   8.250   6.379  14.949 -0.6484  0.3010 -0.0059
  183DOPC  H10R22482   8.223   6.303  15.023  1.1392  0.7913  1.2327
  183DOPC  C21122483   8.152   6.390  14.841  0.5544 -0.0825  0.4514
  183DOPC  H11R22484   8.106   6.294  14.809  0.6145  0.3068 -0.8676
  183DOPC  H11S22485   8.202   6.419  14.746  1.5695 -3.1032 -0.0740
  183DOPC  C21222486   8.028   6.485  14.885 -0.3607 -0.3745  0.2858
  183DOPC  H12R22487   7.966   6.504  14.795 -1.8861 -0.9903  1.1530
  183DOPC  H12S22488   8.081   6.580  14.906  1.8522 -0.9753 -2.0991
  183DOPC  C21322489   7.936   6.411  14.976  0.4449 -0.8807  0.1112
  183DOPC  H13R22490   7.985   6.392  15.074 -2.4306  0.9890  2.0685
  183DOPC  H13S22491   7.907   6.307  14.948 -0.6044 -0.3793 -0.7427
  183DOPC  C21422492   7.810   6.485  15.020  0.1222 -0.7825 -0.0213
  183DOPC  H14R22493   7.721   6.435  14.977  1.6852 -1.9379 -2.1086
  183DOPC  H14S22494   7.808   6.588  14.980 -0.4680 -0.4078  0.9249
  183DOPC  C21522495   7.802   6.512  15.166  0.8893  0.5130  0.2051
  183DOPC  H15R22496   7.741   6.602  15.188  0.6894  0.2832  0.6007
  183DOPC  H15S22497   7.901   6.533  15.211  0.4088  1.1769  0.9648
  183DOPC  C21622498   7.741   6.383  15.240 -0.3616 -0.3792 -0.0248
  183DOPC  H16R22499   7.802   6.293  15.218 -0.2659 -0.5205  0.7931
  183DOPC  H16S22500   7.635   6.367  15.210 -0.4716  0.1459  0.0728
  183DOPC  C21722501   7.745   6.404  15.388 -0.1860 -0.3034  0.8855
  183DOPC  H17R22502   7.727   6.513  15.397 -1.0466 -0.2742 -0.6810
  183DOPC  H17S22503   7.850   6.387  15.419  0.5521  2.7254  0.3115
  183DOPC  C21822504   7.629   6.344  15.474 -0.2885  0.2597  0.1963
  183DOPC  H18R22505   7.623   6.381  15.579  0.2266 -0.9407  0.6799
  183DOPC  H18S22506   7.644   6.237  15.501  0.7784  0.8520  2.1293
  183DOPC  H18T22507   7.526   6.359  15.435  0.0433  0.0166 -0.7882
  183DOPC   C3322508   8.546   7.248  14.059  0.2809 -0.1726 -0.0807
  183DOPC   H3X22509   8.499   7.292  13.969 -0.5970 -1.2515 -0.1764
  183DOPC   H3Y22510   8.638   7.301  14.090  0.0173 -1.1071  2.6016
  183DOPC   C3422511   8.440   7.268  14.173  0.4152 -0.0209 -0.0744
  183DOPC   H4X22512   8.479   7.208  14.257  1.3725 -3.2505 -2.6362
  183DOPC   H4Y22513   8.348   7.217  14.137  0.4117  0.4335 -0.7380
  183DOPC   C3522514   8.421   7.413  14.210 -0.5943 -0.2084 -0.3924
  183DOPC   H5X22515   8.387   7.479  14.127 -0.5540  4.5519  2.9934
  183DOPC   H5Y22516   8.523   7.450  14.231  0.5402 -1.5669 -2.9474
  183DOPC   C3622517   8.331   7.443  14.332 -0.2513 -0.3660  0.2634
  183DOPC   H6X22518   8.380   7.412  14.426 -0.8559 -2.1235  0.0421
  183DOPC   H6Y22519   8.316   7.551  14.352 -0.7620 -0.4300  0.2412
  183DOPC   C3722520   8.194   7.381  14.310 -0.2121 -0.4053 -0.0390
  183DOPC   H7X22521   8.145   7.434  14.226  0.4129 -0.4263 -0.4241
  183DOPC   H7Y22522   8.191   7.273  14.283 -1.1133  0.0539 -1.8855
  183DOPC   C3822523   8.108   7.399  14.439  0.0796 -0.1802 -0.3179
  183DOPC   H8X22524   8.087   7.507  14.452 -0.0454 -0.3567  1.1112
  183DOPC   H8Y22525   8.180   7.364  14.516 -0.1945  0.3505  0.1868
  183DOPC   C3922526   7.980   7.317  14.434  0.5446 -0.0300 -0.8452
  183DOPC   H9X22527   7.914   7.339  14.348 -0.6733 -1.7935 -0.4329
  183DOPC  C31022528   7.939   7.241  14.536  0.8769 -0.5924 -0.2433
  183DOPC  H10X22529   7.837   7.200  14.525  0.1046  1.8316 -3.3878
  183DOPC  C31122530   7.990   7.228  14.676 -0.9081 -0.5316 -0.0344
  183DOPC  H11X22531   7.930   7.265  14.761  0.0257 -1.4169  1.0493
  183DOPC  H11Y22532   8.087   7.280  14.687 -0.4008 -1.3205 -0.5908
  183DOPC  C31222533   8.020   7.078  14.701  0.4281 -0.4276  0.5278
  183DOPC  H12X22534   8.075   7.050  14.609 -0.0855  0.4438 -0.0628
  183DOPC  H12Y22535   7.930   7.012  14.705  1.0394 -1.2010  3.0084
  183DOPC  C31322536   8.107   7.055  14.830 -0.3600  0.3215  0.3493
  183DOPC  H13X22537   8.204   7.107  14.813  0.9835 -2.3531 -0.6408
  183DOPC  H13Y22538   8.063   7.104  14.920  1.6761  3.6674 -0.2978
  183DOPC  C31422539   8.144   6.908  14.851 -0.5654 -0.4501 -0.2164
  183DOPC  H14X22540   8.207   6.881  14.938  1.7705  0.8692 -1.4138
  183DOPC  H14Y22541   8.049   6.852  14.864 -1.3604  0.6899 -1.0008
  183DOPC  C31522542   8.209   6.852  14.723  0.4426 -0.1023 -0.0758
  183DOPC  H15X22543   8.149   6.878  14.633 -0.1404  0.9597  0.6026
  183DOPC  H15Y22544   8.191   6.743  14.737 -0.3597  0.0984  0.5098
  183DOPC  C31622545   8.343   6.907  14.696  0.0376 -0.9733  0.2998
  183DOPC  H16X22546   8.353   7.017  14.699  2.1214 -1.1417  2.0566
  183DOPC  H16Y22547   8.391   6.876  14.791 -1.5813 -1.6473  0.9274
  183DOPC  C31722548   8.404   6.848  14.567  0.9039 -0.2989  0.0097
  183DOPC  H17X22549   8.511   6.873  14.554  1.0180  1.5558  3.3343
  183DOPC  H17Y22550   8.399   6.737  14.573 -0.8404 -0.2256  0.7441
  183DOPC  C31822551   8.333   6.900  14.438 -0.0291  0.0251  0.3612
  183DOPC  H18X22552   8.380   6.858  14.346  0.5846 -1.6166  1.3777
  183DOPC  H18Y22553   8.228   6.867  14.429  0.1237  0.0201 -2.4182
  183DOPC  H18Z22554   8.326   7.010  14.423 -0.8878 -0.0213  0.4102
  184DOPC     N22555   3.375   0.026  13.369  0.1782 -0.1957  0.2637
  184DOPC   C1222556   3.353   0.083  13.509  0.2857  0.0095 -0.0664
  184DOPC  H12A22557   3.339   0.190  13.502  2.4940  0.2881 -1.5602
  184DOPC  H12B22558   3.440   0.066  13.571 -0.1124 -2.3154 -0.0645
  184DOPC   C1322559   3.400  -0.118  13.376 -0.1027 -0.1004 -0.2076
  184DOPC  H13A22560   3.481  -0.154  13.439 -1.6089 -3.7963 -0.1100
  184DOPC  H13B22561   3.316  -0.182  13.401 -1.3489  0.3710 -2.9105
  184DOPC  H13C22562   3.421  -0.149  13.275 -0.1765 -2.4028  0.4301
  184DOPC   C1422563   3.499   0.087  13.310  0.2609 -0.0885 -0.3697
  184DOPC  H14A22564   3.584   0.036  13.352 -0.5240 -0.2071  1.1333
  184DOPC  H14B22565   3.499   0.096  13.202  0.2092  2.5974 -0.2141
  184DOPC  H14C22566   3.483   0.192  13.331 -1.0382 -0.1948 -0.7363
  184DOPC   C1522567   3.262   0.061  13.281  0.3169 -0.1469 -0.0396
  184DOPC  H15A22568   3.169   0.037  13.331 -0.7701  0.1567 -1.8265
  184DOPC  H15B22569   3.259   0.007  13.188  0.9105  0.9341 -0.7006
  184DOPC  H15C22570   3.252   0.166  13.258 -1.7258 -0.3671 -0.3219
  184DOPC   C1122571   3.235   0.025  13.593  0.2776  0.4308 -0.2363
  184DOPC  H11A22572   3.255  -0.081  13.621  2.0908  1.1523  1.4720
  184DOPC  H11B22573   3.238   0.087  13.685  0.5261  1.1950 -0.7516
  184DOPC     P22574   3.030   0.166  13.516 -0.5749 -0.1268 -0.1986
  184DOPC   O1322575   2.932   0.166  13.407  0.1344 -0.1860 -0.4404
  184DOPC   O1422576   3.126   0.279  13.518 -0.4783  0.3205  0.3163
  184DOPC   O1222577   3.110   0.028  13.519  0.2025 -0.2559 -0.5246
  184DOPC   O1122578   2.961   0.159  13.648  0.2320 -0.8963 -0.2097
  184DOPC    C122579   2.869   0.067  13.699 -0.4143  0.2004 -0.1444
  184DOPC    HA22580   2.895  -0.037  13.667 -0.4632 -0.1308  0.8700
  184DOPC    HB22581   2.765   0.095  13.672 -0.8564 -1.2032  0.0267
  184DOPC    C222582   2.868   0.067  13.864  0.0435 -0.1090  0.9385
  184DOPC    HS22583   2.957   0.019  13.909 -1.3513 -2.8212  0.9999
  184DOPC   O2122584   2.748  -0.002  13.917 -0.5158  0.9400  0.1289
  184DOPC   C2122585   2.756  -0.136  13.894  0.2798 -0.7329 -0.3904
  184DOPC   O2222586   2.847  -0.193  13.840  0.4965  0.5808 -0.3479
  184DOPC   C2222587   2.625  -0.211  13.941 -0.3839  0.5603 -0.4857
  184DOPC   H2R22588   2.627  -0.304  13.881  0.1466  0.7578 -0.7827
  184DOPC   H2S22589   2.532  -0.154  13.923 -0.6873 -0.1680 -1.3243
  184DOPC    C322590   2.867   0.210  13.926 -0.1715 -0.0838 -0.0525
  184DOPC    HX22591   2.781   0.267  13.886  0.5343 -0.1741 -1.7896
  184DOPC    HY22592   2.964   0.251  13.892  0.4419 -0.4841  1.1189
  184DOPC   O3122593   2.862   0.205  14.072  0.0985  0.1700  0.2816
  184DOPC   C3122594   2.971   0.180  14.146 -0.0633  0.2311  0.1748
  184DOPC   O3222595   3.084   0.167  14.103 -0.2927 -0.2744  0.2870
  184DOPC   C3222596   2.937   0.173  14.294 -0.9495 -0.1638 -0.4758
  184DOPC   H2X22597   2.894   0.079  14.334 -3.2180  1.2694  0.6812
  184DOPC   H2Y22598   3.036   0.181  14.344 -1.6788 -0.2286  1.0219
  184DOPC   C2322599   2.637  -0.248  14.091 -0.2486  0.5150 -0.3964
  184DOPC   H3R22600   2.619  -0.160  14.156 -0.4204  0.8083 -0.8355
  184DOPC   H3S22601   2.744  -0.273  14.108 -0.8449 -3.0624 -1.2177
  184DOPC   C2422602   2.568  -0.379  14.131  0.2017  0.1236 -0.1966
  184DOPC   H4R22603   2.602  -0.458  14.061  2.3234  1.4390 -0.7831
  184DOPC   H4S22604   2.458  -0.370  14.122  0.1752  0.2852  0.2518
  184DOPC   C2522605   2.612  -0.422  14.271  0.4688  0.1802 -0.1873
  184DOPC   H5R22606   2.713  -0.379  14.288  1.1333 -1.6980  0.8663
  184DOPC   H5S22607   2.623  -0.530  14.294  0.2505  0.3470  0.7526
  184DOPC   C2622608   2.522  -0.358  14.383  0.0273 -0.2653  0.5738
  184DOPC   H6R22609   2.426  -0.413  14.374 -0.6296  1.1471 -2.7366
  184DOPC   H6S22610   2.511  -0.249  14.366 -3.0643 -0.5887 -0.1106
  184DOPC   C2722611   2.579  -0.371  14.527  0.6078  0.4529 -0.5224
  184DOPC   H7R22612   2.681  -0.328  14.514  0.4259  0.6150 -1.5447
  184DOPC   H7S22613   2.588  -0.475  14.565 -1.5400  0.2915 -0.3450
  184DOPC   C2822614   2.513  -0.279  14.635 -0.2436 -0.4484  0.4452
  184DOPC   H8R22615   2.500  -0.177  14.592 -1.8020 -1.2816 -1.1947
  184DOPC   H8S22616   2.580  -0.267  14.723 -0.8798 -0.4402  0.9392
  184DOPC   C2922617   2.379  -0.315  14.685 -0.3351  0.2211  0.1394
  184DOPC   H9R22618   2.313  -0.362  14.610 -1.7109  1.3649  0.5805
  184DOPC  C21022619   2.341  -0.297  14.816 -0.3718 -0.3267  1.2717
  184DOPC  H10R22620   2.241  -0.332  14.846 -0.7216 -0.2733  0.2038
  184DOPC  C21122621   2.425  -0.234  14.927 -0.0153  0.7813 -0.1140
  184DOPC  H11R22622   2.361  -0.169  14.990 -1.3803 -1.0629  0.5053
  184DOPC  H11S22623   2.509  -0.166  14.902  0.3300  0.5794  0.4788
  184DOPC  C21222624   2.472  -0.342  15.030 -0.4976 -0.3116 -0.0761
  184DOPC  H12R22625   2.536  -0.280  15.096 -1.0093  1.4937 -1.1900
  184DOPC  H12S22626   2.528  -0.423  14.978 -0.8818  0.4973 -1.8445
  184DOPC  C21322627   2.360  -0.404  15.112  0.2505  0.2679 -0.1416
  184DOPC  H13R22628   2.284  -0.454  15.049  1.1599  0.2683 -1.2819
  184DOPC  H13S22629   2.301  -0.320  15.156 -2.6545 -1.2771 -0.8232
  184DOPC  C21422630   2.395  -0.486  15.239  0.2692 -0.7331  1.2853
  184DOPC  H14R22631   2.315  -0.474  15.315 -1.6899  0.7830 -0.8763
  184DOPC  H14S22632   2.494  -0.451  15.276  1.3626 -1.9477 -0.2828
  184DOPC  C21522633   2.410  -0.641  15.208 -0.6377 -0.2695 -0.9100
  184DOPC  H15R22634   2.452  -0.692  15.298 -3.9048 -0.8670  0.4147
  184DOPC  H15S22635   2.486  -0.648  15.128  1.2145  1.5948  0.5884
  184DOPC  C21622636   2.281  -0.707  15.157  0.7175  0.4569  0.6971
  184DOPC  H16R22637   2.240  -0.666  15.062  0.0683  1.0901  1.2422
  184DOPC  H16S22638   2.203  -0.692  15.234 -1.1749 -2.2647 -0.5099
  184DOPC  C21722639   2.308  -0.857  15.147 -0.2015  1.0287 -0.4866
  184DOPC  H17R22640   2.381  -0.893  15.223  0.8079  1.9387 -1.0189
  184DOPC  H17S22641   2.360  -0.873  15.051  0.8499  1.8602 -0.0711
  184DOPC  C21822642   2.180  -0.940  15.154 -0.9680  0.1007  0.7856
  184DOPC  H18R22643   2.148  -0.961  15.258  0.3097 -1.0819  0.9629
  184DOPC  H18S22644   2.197  -1.045  15.123 -1.1879  0.0186  0.9407
  184DOPC  H18T22645   2.105  -0.902  15.082 -1.2035 -1.3904  0.2164
  184DOPC   C3322646   2.850   0.295  14.342 -0.4529  0.1758  0.4582
  184DOPC   H3X22647   2.753   0.299  14.287 -0.7000 -0.9699  0.7893
  184DOPC   H3Y22648   2.893   0.392  14.307  2.3040 -0.9259  0.5527
  184DOPC   C3422649   2.832   0.305  14.492 -1.0832 -0.1074  0.1527
  184DOPC   H4X22650   2.763   0.227  14.531 -2.1411  0.6531 -0.1286
  184DOPC   H4Y22651   2.791   0.405  14.517  0.5902  0.4552  0.7523
  184DOPC   C3522652   2.967   0.302  14.562 -0.6573  0.2537  0.1238
  184DOPC   H5X22653   3.017   0.397  14.534  2.5289 -1.7703 -1.6708
  184DOPC   H5Y22654   3.032   0.224  14.518 -2.4313 -0.2793 -1.7074
  184DOPC   C3622655   2.949   0.308  14.719 -0.4583 -0.2600 -0.3464
  184DOPC   H6X22656   2.860   0.372  14.736 -1.8088 -1.7792 -1.3707
  184DOPC   H6Y22657   2.939   0.205  14.759  2.0629 -0.5147 -0.2386
  184DOPC   C3722658   3.068   0.381  14.784  0.7949 -0.2485  0.3779
  184DOPC   H7X22659   3.156   0.313  14.792  0.3685 -0.8686 -0.0829
  184DOPC   H7Y22660   3.084   0.479  14.734 -0.6757  1.8152  3.6216
  184DOPC   C3822661   3.023   0.419  14.928 -0.2342  0.2992 -0.1143
  184DOPC   H8X22662   2.936   0.353  14.948 -0.5230  0.3463 -1.1281
  184DOPC   H8Y22663   2.984   0.523  14.934  0.1488  0.3737  1.2396
  184DOPC   C3922664   3.135   0.411  15.030  0.0693 -1.1027 -0.5248
  184DOPC   H9X22665   3.237   0.431  14.994  0.2817  2.9246  1.7423
  184DOPC  C31022666   3.126   0.413  15.168 -0.2817  0.1149 -0.3431
  184DOPC  H10X22667   3.221   0.400  15.221 -0.1330 -2.8877 -1.1490
  184DOPC  C31122668   2.996   0.402  15.243 -0.0006 -0.3246 -0.5664
  184DOPC  H11X22669   3.016   0.353  15.341 -1.1891  0.9172  0.3191
  184DOPC  H11Y22670   2.936   0.327  15.186  2.6505 -2.8743 -0.2706
  184DOPC  C31222671   2.935   0.537  15.253  0.7189 -0.7729 -0.7200
  184DOPC  H12X22672   2.913   0.570  15.149 -0.1298  1.1033  0.0128
  184DOPC  H12Y22673   3.006   0.606  15.304 -0.1944 -0.6234  0.3961
  184DOPC  C31322674   2.804   0.546  15.330 -0.2898  0.1627 -0.6044
  184DOPC  H13X22675   2.732   0.466  15.301 -0.9500  0.0996  1.0600
  184DOPC  H13Y22676   2.819   0.524  15.438 -0.1836 -0.2532 -0.7015
  184DOPC  C31422677   2.743   0.681  15.311  0.1196  0.2273 -0.2139
  184DOPC  H14X22678   2.821   0.759  15.321 -1.0546  1.6913 -1.7299
  184DOPC  H14Y22679   2.701   0.685  15.208 -2.9367 -0.8326  0.8852
  184DOPC  C31522680   2.609   0.704  15.391 -0.5861 -0.1819 -0.0497
  184DOPC  H15X22681   2.633   0.720  15.498 -0.9940  2.5899 -0.2983
  184DOPC  H15Y22682   2.550   0.610  15.400 -0.8088  0.1742  3.2146
  184DOPC  C31622683   2.531   0.822  15.341 -0.1373  0.0171  0.3503
  184DOPC  H16X22684   2.582   0.920  15.329 -0.2348 -0.0329 -0.5943
  184DOPC  H16Y22685   2.511   0.798  15.234  0.0809 -0.6583  0.4578
  184DOPC  C31722686   2.397   0.857  15.416  0.4983  0.0610 -0.3270
  184DOPC  H17X22687   2.340   0.763  15.434 -0.3453  0.6140 -0.0793
  184DOPC  H17Y22688   2.425   0.901  15.515  0.8935 -0.4859 -0.1888
  184DOPC  C31822689   2.322   0.962  15.340  0.1055 -0.0489  0.2664
  184DOPC  H18X22690   2.272   0.923  15.249 -0.0028  1.3456 -0.3005
  184DOPC  H18Y22691   2.235   0.998  15.399  0.2601  0.4146  0.2185
  184DOPC  H18Z22692   2.391   1.045  15.314  1.6707 -1.2373  0.4107
  185DOPC     N22693   6.251   6.345  12.907 -0.5544 -0.4794  0.4062
  185DOPC   C1222694   6.233   6.391  13.046  0.2386 -0.5183 -0.4627
  185DOPC  H12A22695   6.196   6.307  13.103  1.0830 -1.4908 -1.3094
  185DOPC  H12B22696   6.150   6.460  13.049  0.0900 -0.5152 -2.9404
  185DOPC   C1322697   6.127   6.320  12.835 -0.4734  0.0613  0.9395
  185DOPC  H13A22698   6.058   6.402  12.856  0.4854  0.6248  2.0234
  185DOPC  H13B22699   6.133   6.302  12.729 -1.8949 -0.8266  0.9825
  185DOPC  H13C22700   6.085   6.227  12.870 -0.0065  0.1111  1.6526
  185DOPC   C1422701   6.326   6.219  12.908 -0.3734 -0.8426 -0.2637
  185DOPC  H14A22702   6.372   6.200  12.813 -1.0397  3.0379 -1.5487
  185DOPC  H14B22703   6.416   6.227  12.968 -0.2929  0.9082 -0.5697
  185DOPC  H14C22704   6.277   6.132  12.950 -0.7208 -0.6279 -0.2180
  185DOPC   C1522705   6.330   6.441  12.821 -0.7046  0.7600  0.2281
  185DOPC  H15A22706   6.426   6.460  12.868  0.0069 -2.0714  0.1225
  185DOPC  H15B22707   6.281   6.536  12.805  2.1743  2.1193 -1.4860
  185DOPC  H15C22708   6.336   6.407  12.718  0.5973 -1.4257  0.9592
  185DOPC   C1122709   6.352   6.457  13.108 -0.1727 -0.8370  0.0861
  185DOPC  H11A22710   6.421   6.380  13.149 -0.3180 -0.9824  0.0568
  185DOPC  H11B22711   6.410   6.515  13.033 -2.4690  1.0147 -0.3590
  185DOPC     P22712   6.295   6.692  13.213 -0.0222  0.3581  0.0652
  185DOPC   O1322713   6.167   6.716  13.147  0.2954 -0.2425 -0.2394
  185DOPC   O1422714   6.403   6.764  13.144 -0.8129 -0.2132 -0.3057
  185DOPC   O1222715   6.324   6.538  13.224 -0.4305 -0.6861 -0.1490
  185DOPC   O1122716   6.286   6.734  13.362  0.1647 -0.1402  0.1622
  185DOPC    C122717   6.175   6.690  13.436 -0.8196 -0.3554 -0.2531
  185DOPC    HA22718   6.153   6.581  13.423 -2.0314 -0.0490 -0.8987
  185DOPC    HB22719   6.088   6.757  13.421 -1.2705 -0.8496  0.1307
  185DOPC    C222720   6.212   6.706  13.584  0.2055 -0.3999  0.1355
  185DOPC    HS22721   6.203   6.814  13.610 -1.8892 -0.4647 -0.1761
  185DOPC   O2122722   6.342   6.657  13.622 -0.3882 -0.4501  0.3030
  185DOPC   C2122723   6.396   6.709  13.733 -0.4317 -0.0265  0.6158
  185DOPC   O2222724   6.351   6.801  13.791 -0.8068 -0.1629 -0.4133
  185DOPC   C2222725   6.526   6.645  13.770 -0.1810  0.8408  0.3233
  185DOPC   H2R22726   6.603   6.696  13.708 -0.4889  0.5092 -0.3403
  185DOPC   H2S22727   6.517   6.538  13.740  0.5727  1.0818 -0.8262
  185DOPC    C322728   6.107   6.631  13.668 -0.7349 -0.4681  0.4984
  185DOPC    HX22729   6.127   6.524  13.690 -4.6856 -0.9959  2.3267
  185DOPC    HY22730   6.018   6.639  13.603 -0.0638  0.3991 -0.3401
  185DOPC   O3122731   6.090   6.693  13.796  0.1217 -0.0593  0.0655
  185DOPC   C3122732   6.025   6.812  13.792 -0.6213 -0.0486 -0.2993
  185DOPC   O3222733   5.968   6.861  13.698 -0.7124  0.8965 -0.5739
  185DOPC   C3222734   6.044   6.885  13.929 -0.3193 -0.3661 -0.5505
  185DOPC   H2X22735   6.030   6.805  14.005  2.0072 -1.3241 -1.0529
  185DOPC   H2Y22736   6.149   6.922  13.932 -0.6662  0.6910 -0.8324
  185DOPC   C2322737   6.555   6.658  13.916  0.0232  0.1353 -0.1529
  185DOPC   H3R22738   6.462   6.627  13.969 -0.7304 -1.1482 -2.1164
  185DOPC   H3S22739   6.587   6.761  13.941  0.8771 -0.4178  1.1474
  185DOPC   C2422740   6.652   6.558  13.975 -0.0716 -0.6428 -0.3775
  185DOPC   H4R22741   6.629   6.461  13.927 -0.8041  0.0711 -1.5231
  185DOPC   H4S22742   6.638   6.550  14.085 -1.2147  1.6759 -0.2891
  185DOPC   C2522743   6.793   6.595  13.933  1.0108 -0.0632 -0.2594
  185DOPC   H5R22744   6.803   6.705  13.940  1.2418 -0.1767  1.9676
  185DOPC   H5S22745   6.796   6.564  13.827 -1.7185 -2.2905  0.1786
  185DOPC   C2622746   6.901   6.520  14.019  0.0395  0.7012  0.1875
  185DOPC   H6R22747   6.890   6.413  13.989 -0.2864  0.4111  1.2917
  185DOPC   H6S22748   6.877   6.535  14.127 -3.0845  1.6030 -0.5284
  185DOPC   C2722749   7.038   6.564  14.002 -0.6325  0.8469 -0.0023
  185DOPC   H7R22750   7.056   6.671  14.027  2.4002  0.4292  0.0189
  185DOPC   H7S22751   7.064   6.545  13.896  0.0779 -0.9565  0.4490
  185DOPC   C2822752   7.149   6.484  14.078  0.3074  0.4387  0.1010
  185DOPC   H8R22753   7.126   6.508  14.184 -0.7652 -0.4901  0.0965
  185DOPC   H8S22754   7.248   6.523  14.047 -0.2939  1.4586 -0.6084
  185DOPC   C2922755   7.132   6.339  14.043  0.4722  0.0387 -0.0010
  185DOPC   H9R22756   7.097   6.305  13.945 -1.0976 -2.4193  1.3118
  185DOPC  C21022757   7.157   6.236  14.125 -0.5611  0.8608 -0.1447
  185DOPC  H10R22758   7.133   6.135  14.089 -1.5900  0.7299  0.8558
  185DOPC  C21122759   7.220   6.227  14.260 -0.0850 -0.1408 -0.4974
  185DOPC  H11R22760   7.281   6.317  14.282  0.2110 -0.3696 -0.3846
  185DOPC  H11S22761   7.300   6.150  14.250  0.5551  0.4960 -0.3328
  185DOPC  C21222762   7.142   6.200  14.392  0.3817  0.2350  0.0238
  185DOPC  H12R22763   7.202   6.143  14.466 -0.3599  2.6001  2.6158
  185DOPC  H12S22764   7.050   6.141  14.373  0.9084 -1.0521  1.2926
  185DOPC  C21322765   7.096   6.329  14.468 -0.3371  0.9508 -0.0511
  185DOPC  H13R22766   7.012   6.364  14.405 -0.9891 -0.9770 -0.3209
  185DOPC  H13S22767   7.171   6.410  14.464  2.5779 -1.5574 -0.0750
  185DOPC  C21422768   7.044   6.289  14.612 -0.3178  0.3086 -0.5980
  185DOPC  H14R22769   7.014   6.183  14.608  0.7822 -0.0459 -0.0450
  185DOPC  H14S22770   6.957   6.349  14.647 -0.1136  0.6046 -0.5871
  185DOPC  C21522771   7.155   6.293  14.723  0.1306 -0.1599  0.5734
  185DOPC  H15R22772   7.191   6.398  14.721 -1.0406  0.2566 -0.3115
  185DOPC  H15S22773   7.234   6.223  14.689 -1.1464 -0.2063 -2.6805
  185DOPC  C21622774   7.111   6.243  14.849 -0.1384  0.0164 -0.9746
  185DOPC  H16R22775   7.200   6.228  14.915 -0.8830  0.1082  0.0832
  185DOPC  H16S22776   7.060   6.145  14.838  0.5692 -0.2559 -1.9833
  185DOPC  C21722777   7.016   6.343  14.917  0.1970  0.1192 -0.6549
  185DOPC  H17R22778   6.912   6.342  14.878 -0.8718  3.3878  1.6871
  185DOPC  H17S22779   7.056   6.446  14.903 -0.1259  0.2692 -0.4683
  185DOPC  C21822780   6.995   6.300  15.063  0.0606 -0.1421 -0.2742
  185DOPC  H18R22781   6.939   6.373  15.126 -0.6592 -2.3900  1.8711
  185DOPC  H18S22782   7.087   6.287  15.124  0.8311 -1.5515 -1.6829
  185DOPC  H18T22783   6.941   6.204  15.070  1.7479 -1.0121  2.0519
  185DOPC   C3322784   5.939   6.993  13.953  0.8803 -0.2573 -0.1206
  185DOPC   H3X22785   5.843   6.942  13.932  0.4859  0.9184 -1.3051
  185DOPC   H3Y22786   5.943   7.074  13.878 -1.8054  0.2642  0.2192
  185DOPC   C3422787   5.918   7.046  14.095  0.5233  0.3451 -0.1394
  185DOPC   H4X22788   5.899   6.969  14.172  3.3874  0.7401  1.0902
  185DOPC   H4Y22789   5.822   7.101  14.084  0.8059  0.5084 -2.2008
  185DOPC   C3522790   6.030   7.122  14.155  0.0381 -0.3489 -0.3145
  185DOPC   H5X22791   6.090   7.181  14.083 -0.5099  0.8031  0.1437
  185DOPC   H5Y22792   6.098   7.053  14.210  0.7671  0.1615 -0.5610
  185DOPC   C3622793   5.978   7.216  14.262  0.1386  0.4369 -0.9318
  185DOPC   H6X22794   5.919   7.296  14.212 -0.6036  0.5836  0.1628
  185DOPC   H6Y22795   5.906   7.167  14.330  2.3540  1.1930  2.1459
  185DOPC   C3722796   6.092   7.293  14.332  0.2393  0.4359  0.4167
  185DOPC   H7X22797   6.161   7.226  14.388 -0.5956  2.3881  4.1264
  185DOPC   H7Y22798   6.161   7.329  14.253  0.7421  0.1624  0.7251
  185DOPC   C3822799   6.042   7.395  14.436  0.1717  0.2801  0.2186
  185DOPC   H8X22800   6.136   7.430  14.484  0.6154 -0.0064 -0.4359
  185DOPC   H8Y22801   5.980   7.338  14.509  0.8769 -1.1252 -0.2583
  185DOPC   C3922802   5.960   7.511  14.386 -0.1664 -0.5874 -0.1488
  185DOPC   H9X22803   5.994   7.547  14.288 -0.4191  1.0162  0.3274
  185DOPC  C31022804   5.851   7.572  14.443 -0.9148 -0.2338 -0.2639
  185DOPC  H10X22805   5.818   7.661  14.387 -2.4268 -1.3410 -1.2121
  185DOPC  C31122806   5.777   7.540  14.570 -0.4328 -0.1748  0.0347
  185DOPC  H11X22807   5.804   7.619  14.643 -0.3517  0.9174 -1.1438
  185DOPC  H11Y22808   5.811   7.446  14.619  0.2903  0.8825  1.6440
  185DOPC  C31222809   5.616   7.548  14.570 -0.9424 -0.0685 -0.1514
  185DOPC  H12X22810   5.582   7.481  14.652  0.2752 -0.9389 -0.3183
  185DOPC  H12Y22811   5.580   7.504  14.474 -1.6087  3.1816 -1.5249
  185DOPC  C31322812   5.557   7.688  14.570 -0.7829 -1.0434 -0.7670
  185DOPC  H13X22813   5.601   7.735  14.661 -1.7358  0.1096 -0.8737
  185DOPC  H13Y22814   5.597   7.742  14.481 -0.2504 -1.2918 -0.6870
  185DOPC  C31422815   5.401   7.695  14.569 -0.2024  0.0824 -0.8708
  185DOPC  H14X22816   5.364   7.627  14.490 -1.9922 -1.1523  0.9299
  185DOPC  H14Y22817   5.357   7.659  14.664  0.3388  2.0165  0.1711
  185DOPC  C31522818   5.340   7.834  14.556  0.2581 -0.9548 -0.1809
  185DOPC  H15X22819   5.255   7.839  14.485  0.3055  1.8387 -0.1586
  185DOPC  H15Y22820   5.415   7.897  14.504  0.0761  0.6831  1.4219
  185DOPC  C31622821   5.306   7.896  14.695 -0.4744 -0.0867 -0.8361
  185DOPC  H16X22822   5.256   7.816  14.753 -0.3807 -0.8380 -1.7628
  185DOPC  H16Y22823   5.400   7.921  14.749 -1.6073  1.1679  0.6414
  185DOPC  C31722824   5.219   8.020  14.690  0.7389 -0.6922 -1.7531
  185DOPC  H17X22825   5.130   7.991  14.629  0.3005 -2.2811 -0.4348
  185DOPC  H17Y22826   5.193   8.048  14.794  3.6398  1.0846 -1.3979
  185DOPC  C31822827   5.284   8.142  14.626  0.0909 -0.9736  0.3118
  185DOPC  H18X22828   5.294   8.131  14.515 -1.9923 -0.4075  0.0197
  185DOPC  H18Y22829   5.219   8.231  14.636 -1.6073 -1.8422 -2.0660
  185DOPC  H18Z22830   5.383   8.162  14.673 -0.8088  0.0104  1.8343
  186DOPC     N22831   5.760   4.028  13.173 -0.1094  0.0732 -0.3647
  186DOPC   C1222832   5.830   4.069  13.301 -0.0828 -0.2446  0.0804
  186DOPC  H12A22833   5.766   4.128  13.365 -0.4037 -0.6974  0.1881
  186DOPC  H12B22834   5.912   4.131  13.267  1.7328 -1.2243  2.4099
  186DOPC   C1322835   5.700   4.140  13.107  0.5750  0.0636 -0.0175
  186DOPC  H13A22836   5.631   4.117  13.026  1.0509  1.3313 -0.8131
  186DOPC  H13B22837   5.651   4.207  13.176  0.6168 -2.0571  2.2285
  186DOPC  H13C22838   5.778   4.196  13.058 -0.5057  3.5984  1.9510
  186DOPC   C1422839   5.643   3.941  13.215  0.4205 -0.0552  0.0424
  186DOPC  H14A22840   5.663   3.864  13.288 -1.5919 -2.1330 -1.4202
  186DOPC  H14B22841   5.569   3.992  13.275  0.6346 -0.7704  0.9275
  186DOPC  H14C22842   5.590   3.891  13.135  1.2904 -0.2511 -0.4283
  186DOPC   C1522843   5.852   3.955  13.079  0.1255 -0.1422  0.6211
  186DOPC  H15A22844   5.908   3.876  13.128 -0.4673 -1.1335 -0.2469
  186DOPC  H15B22845   5.923   4.027  13.043 -1.8007  1.1737 -0.7538
  186DOPC  H15C22846   5.791   3.914  13.000 -0.8232  2.4522 -0.0858
  186DOPC   C1122847   5.896   3.962  13.388 -0.0299 -0.1693  0.2542
  186DOPC  H11A22848   5.907   3.999  13.492  0.5146 -1.1124  0.5424
  186DOPC  H11B22849   5.825   3.880  13.412 -0.5799  0.9851  2.9443
  186DOPC     P22850   6.145   3.982  13.303 -0.6766 -0.3090  0.3414
  186DOPC   O1322851   6.137   4.126  13.271 -0.2156 -0.4960  0.6485
  186DOPC   O1422852   6.236   3.899  13.216  0.1848  0.5249 -0.5814
  186DOPC   O1222853   6.009   3.903  13.323 -0.2213  0.1506 -0.0435
  186DOPC   O1122854   6.200   3.958  13.451  0.2106 -0.3813 -0.3493
  186DOPC    C122855   6.186   3.832  13.518 -0.2963 -0.4700  0.1822
  186DOPC    HA22856   6.183   3.751  13.443 -3.0971 -2.4425  2.2582
  186DOPC    HB22857   6.088   3.832  13.570  0.0496 -0.1634  0.8517
  186DOPC    C222858   6.307   3.796  13.617 -0.2855  0.1436 -0.2604
  186DOPC    HS22859   6.282   3.701  13.668  0.0028  0.2465  0.0780
  186DOPC   O2122860   6.327   3.899  13.720 -0.1547  0.0915  0.3431
  186DOPC   C2122861   6.230   3.915  13.796 -0.3431  0.2364  0.2791
  186DOPC   O2222862   6.126   3.853  13.810 -0.2023 -0.1897  0.0489
  186DOPC   C2222863   6.283   4.018  13.900  0.0927  0.6400  0.0015
  186DOPC   H2R22864   6.285   4.121  13.857 -0.1404  1.3839  1.6878
  186DOPC   H2S22865   6.379   3.983  13.943  0.9179  1.8102 -0.8084
  186DOPC    C322866   6.445   3.763  13.551 -0.5145  0.9316 -0.0560
  186DOPC    HX22867   6.470   3.849  13.485  0.3095  1.5740  1.0725
  186DOPC    HY22868   6.428   3.676  13.484  2.5476 -1.6050  2.1878
  186DOPC   O3122869   6.553   3.717  13.641 -0.4275 -0.7096 -0.1235
  186DOPC   C3122870   6.622   3.822  13.682 -1.0459 -0.2618 -0.4985
  186DOPC   O3222871   6.614   3.939  13.645 -0.0351 -0.2369  0.2208
  186DOPC   C3222872   6.729   3.774  13.775 -0.2029 -0.0873  0.0714
  186DOPC   H2X22873   6.768   3.682  13.727 -1.6196 -0.6236 -0.1009
  186DOPC   H2Y22874   6.806   3.853  13.783 -0.0621 -0.1587 -0.5429
  186DOPC   C2322875   6.177   4.018  14.014 -0.1352 -0.6919 -0.6533
  186DOPC   H3R22876   6.163   3.913  14.047 -1.1886 -0.5087 -0.5022
  186DOPC   H3S22877   6.082   4.068  13.985 -0.5882  0.7418  2.8471
  186DOPC   C2422878   6.237   4.095  14.135  0.9675  0.1918 -0.4282
  186DOPC   H4R22879   6.264   4.200  14.111 -1.2930  0.3641 -2.4958
  186DOPC   H4S22880   6.337   4.055  14.164  0.5661 -0.2081  0.4409
  186DOPC   C2522881   6.135   4.084  14.253  0.1417 -0.3260  0.0971
  186DOPC   H5R22882   6.088   3.984  14.262  0.1190 -0.2755  0.5744
  186DOPC   H5S22883   6.052   4.156  14.234  0.9421  0.8034  0.7124
  186DOPC   C2622884   6.198   4.124  14.387 -0.0941 -0.1270 -0.2592
  186DOPC   H6R22885   6.275   4.050  14.415  1.6546  1.6282 -0.1715
  186DOPC   H6S22886   6.118   4.121  14.464 -1.1551 -1.0948 -1.3622
  186DOPC   C2722887   6.262   4.266  14.386  0.7579  0.0517  0.3145
  186DOPC   H7R22888   6.193   4.339  14.337  1.2764  0.3710  0.0436
  186DOPC   H7S22889   6.357   4.268  14.328  1.1219 -1.8366  0.7802
  186DOPC   C2822890   6.286   4.322  14.522 -0.0603  0.3667  0.2676
  186DOPC   H8R22891   6.331   4.423  14.517 -1.2594  0.8922 -0.2312
  186DOPC   H8S22892   6.371   4.266  14.567 -1.4908 -0.3475  2.2102
  186DOPC   C2922893   6.163   4.338  14.599 -0.2643 -0.1577 -0.2850
  186DOPC   H9R22894   6.126   4.254  14.659 -1.9923 -0.3781 -1.5713
  186DOPC  C21022895   6.074   4.443  14.596 -0.4061  0.0299 -0.3109
  186DOPC  H10R22896   5.988   4.430  14.663  1.2093  1.0849  2.1412
  186DOPC  C21122897   6.082   4.568  14.506 -0.8256  0.2668 -0.1079
  186DOPC  H11R22898   5.998   4.590  14.438  0.5921  0.4500 -1.8661
  186DOPC  H11S22899   6.169   4.562  14.437 -0.5332 -0.7625  0.3356
  186DOPC  C21222900   6.084   4.690  14.598 -1.1202  0.8449  0.6863
  186DOPC  H12R22901   6.123   4.773  14.535 -0.4052 -1.0044 -1.4469
  186DOPC  H12S22902   6.149   4.670  14.686  1.1574 -1.2189 -1.3249
  186DOPC  C21322903   5.949   4.714  14.662 -0.0002  0.0317 -0.2551
  186DOPC  H13R22904   5.921   4.618  14.709 -0.8268 -0.2837 -1.3476
  186DOPC  H13S22905   5.881   4.733  14.577  0.7195 -1.9315 -1.3528
  186DOPC  C21422906   5.936   4.822  14.771 -0.0234  0.2821 -0.5933
  186DOPC  H14R22907   5.858   4.895  14.740 -2.4539 -2.0268 -0.2335
  186DOPC  H14S22908   6.032   4.877  14.779  1.8344 -2.6770 -1.0578
  186DOPC  C21522909   5.881   4.767  14.903  0.2952 -0.2170 -0.4324
  186DOPC  H15R22910   5.959   4.709  14.958  1.8682  1.4175 -0.8233
  186DOPC  H15S22911   5.799   4.695  14.880 -1.0139  1.5910 -1.6666
  186DOPC  C21622912   5.809   4.885  14.969  0.3062  0.3075 -0.2714
  186DOPC  H16R22913   5.735   4.916  14.892  0.4690  0.7976 -0.2349
  186DOPC  H16S22914   5.891   4.959  14.978  1.8128 -1.4768  1.3854
  186DOPC  C21722915   5.739   4.855  15.096  0.1155 -0.3541 -0.5947
  186DOPC  H17R22916   5.655   4.783  15.084 -0.5426 -0.1235  1.9843
  186DOPC  H17S22917   5.699   4.951  15.135 -0.0773 -1.1564  1.2983
  186DOPC  C21822918   5.825   4.792  15.207 -0.3061 -0.3513  0.2947
  186DOPC  H18R22919   5.860   4.691  15.178 -0.3739  0.0154 -1.1102
  186DOPC  H18S22920   5.765   4.785  15.300 -0.4361 -1.4826  0.1426
  186DOPC  H18T22921   5.921   4.845  15.225  0.4928 -1.6336 -0.0899
  186DOPC   C3322922   6.673   3.754  13.916  0.2000 -0.0825 -1.4562
  186DOPC   H3X22923   6.750   3.697  13.973 -0.9081 -0.7940 -0.6347
  186DOPC   H3Y22924   6.581   3.693  13.914  0.8837 -1.2116 -0.1251
  186DOPC   C3422925   6.658   3.887  13.996 -0.3263  0.2613  0.2609
  186DOPC   H4X22926   6.593   3.870  14.085 -0.1158 -0.6463  0.2519
  186DOPC   H4Y22927   6.604   3.955  13.927 -2.6771  0.6909  2.3852
  186DOPC   C3522928   6.794   3.949  14.039 -0.5720  0.4292 -0.0954
  186DOPC   H5X22929   6.851   3.974  13.947  0.1346  2.3291  0.8075
  186DOPC   H5Y22930   6.859   3.879  14.096 -0.1392  1.5092  0.7600
  186DOPC   C3622931   6.787   4.080  14.101 -0.0190 -0.4393 -0.0664
  186DOPC   H6X22932   6.766   4.161  14.027 -0.3921 -1.2836 -0.9093
  186DOPC   H6Y22933   6.714   4.073  14.184  0.3541 -2.3671  0.1541
  186DOPC   C3722934   6.926   4.120  14.160  0.3287 -0.4339 -0.1664
  186DOPC   H7X22935   6.951   4.049  14.242  0.1636 -1.1772 -0.7511
  186DOPC   H7Y22936   7.004   4.112  14.082 -0.5170  0.9935 -1.2096
  186DOPC   C3822937   6.946   4.262  14.198  0.2471 -0.1412 -0.3217
  186DOPC   H8X22938   6.865   4.285  14.271  0.4656  0.9140 -0.3866
  186DOPC   H8Y22939   6.925   4.330  14.113  1.2632  1.2426  0.4708
  186DOPC   C3922940   7.075   4.305  14.267 -0.5804 -0.4700  0.4020
  186DOPC   H9X22941   7.162   4.316  14.201  0.6437  1.2716  2.1779
  186DOPC  C31022942   7.103   4.287  14.399 -0.4175  0.0694 -0.8256
  186DOPC  H10X22943   7.203   4.297  14.443 -0.2659 -1.6237 -0.7263
  186DOPC  C31122944   7.006   4.241  14.501 -0.2229  0.4138  0.1070
  186DOPC  H11X22945   6.958   4.149  14.460  0.3351  0.8538 -1.5945
  186DOPC  H11Y22946   6.920   4.309  14.518  0.0778  1.0933 -1.0552
  186DOPC  C31222947   7.083   4.197  14.628  0.3022  0.3348 -0.8452
  186DOPC  H12X22948   7.140   4.274  14.683  2.0123 -1.9583  0.7919
  186DOPC  H12Y22949   7.155   4.113  14.617 -0.7329 -0.9208  1.1958
  186DOPC  C31322950   6.985   4.144  14.744 -0.6554  0.1276 -0.6805
  186DOPC  H13X22951   6.925   4.233  14.774 -0.4320  0.1018 -0.1388
  186DOPC  H13Y22952   6.930   4.065  14.689  0.2637 -1.8298  1.1023
  186DOPC  C31422953   7.059   4.099  14.873 -0.0172  0.6596 -0.0043
  186DOPC  H14X22954   7.096   3.997  14.847  3.0593  1.8317 -0.5256
  186DOPC  H14Y22955   7.140   4.165  14.907  2.6471 -2.6215  0.5824
  186DOPC  C31522956   6.955   4.083  14.987  0.2313 -0.2215  0.5883
  186DOPC  H15X22957   6.873   4.016  14.953  0.6496  0.4499 -1.9485
  186DOPC  H15Y22958   6.913   4.184  15.004 -0.2157 -0.1488 -0.8223
  186DOPC  C31622959   7.022   4.021  15.112  0.6082 -0.0629 -0.5446
  186DOPC  H16X22960   7.048   3.916  15.084  0.1394 -0.6285  1.0324
  186DOPC  H16Y22961   7.114   4.074  15.146  1.4636 -1.7335 -0.1336
  186DOPC  C31722962   6.922   4.028  15.230 -0.0939  0.5896  0.8753
  186DOPC  H17X22963   6.914   4.135  15.261  0.5483  1.4795 -1.7551
  186DOPC  H17Y22964   6.830   3.984  15.186 -0.5896  1.4099  1.0668
  186DOPC  C31822965   6.956   3.933  15.339 -0.1235  0.1159  0.6182
  186DOPC  H18X22966   6.897   3.947  15.432  1.4712 -0.0181  1.6847
  186DOPC  H18Y22967   6.948   3.827  15.305  0.0864  0.3081 -0.0369
  186DOPC  H18Z22968   7.058   3.951  15.379 -0.5075  1.9548  0.8446
  187DOPC     N22969   5.890   2.006  13.107 -0.6084  0.5179 -0.5998
  187DOPC   C1222970   5.778   2.033  13.204  0.5538  0.2315 -0.2262
  187DOPC  H12A22971   5.691   1.984  13.162  1.2804 -0.1413 -1.3269
  187DOPC  H12B22972   5.760   2.140  13.201 -0.9144 -0.0212 -2.9597
  187DOPC   C1322973   5.923   1.858  13.101 -0.4193  0.5905  0.0104
  187DOPC  H13A22974   6.008   1.836  13.038 -0.9198  2.3775 -1.3517
  187DOPC  H13B22975   5.948   1.825  13.201  2.5244  0.4847 -0.6584
  187DOPC  H13C22976   5.833   1.806  13.075  0.5397 -0.6210 -1.0156
  187DOPC   C1422977   6.007   2.083  13.157 -0.3484  0.2051 -0.4381
  187DOPC  H14A22978   5.991   2.188  13.176  0.5928 -0.1014  2.5246
  187DOPC  H14B22979   6.038   2.051  13.255  3.1326  1.6088 -0.9188
  187DOPC  H14C22980   6.091   2.084  13.089 -0.8482 -1.7290 -1.1357
  187DOPC   C1522981   5.845   2.053  12.969 -0.2950  0.2322 -0.1036
  187DOPC  H15A22982   5.933   2.048  12.907 -0.2662 -0.9648  0.0137
  187DOPC  H15B22983   5.803   2.153  12.963 -2.6330 -0.7596 -1.5265
  187DOPC  H15C22984   5.764   1.986  12.946  0.6667 -0.7501 -0.6772
  187DOPC   C1122985   5.794   2.000  13.359 -0.6441  0.3156  0.3929
  187DOPC  H11A22986   5.692   2.018  13.400 -1.6776 -1.3898 -1.2834
  187DOPC  H11B22987   5.806   1.890  13.366  0.1835  0.1364 -2.5992
  187DOPC     P22988   5.885   2.186  13.512 -0.0101 -0.6410  0.0104
  187DOPC   O1322989   5.779   2.272  13.459  0.1343 -0.5678 -0.2573
  187DOPC   O1422990   6.010   2.250  13.542 -0.1695  0.1813  0.2708
  187DOPC   O1222991   5.909   2.072  13.421  0.5313 -0.0602 -0.2149
  187DOPC   O1122992   5.829   2.116  13.643  0.0320  0.1791  0.1155
  187DOPC    C122993   5.854   1.976  13.673  0.0426 -0.2891 -0.0518
  187DOPC    HA22994   5.956   1.940  13.648  0.0175  0.4484 -1.2660
  187DOPC    HB22995   5.771   1.914  13.633 -1.3011  0.2369  1.7621
  187DOPC    C222996   5.851   1.973  13.834  0.2076  0.0403 -0.4653
  187DOPC    HS22997   5.895   1.876  13.868  0.9146  0.0526 -1.3193
  187DOPC   O2122998   5.720   1.980  13.892 -0.3648 -0.1522  0.0370
  187DOPC   C2122999   5.636   1.884  13.860 -0.2059  0.1504  0.8096
  187DOPC   O2223000   5.662   1.785  13.795 -0.2741  0.4387 -0.0340
  187DOPC   C2223001   5.499   1.912  13.915  0.1155 -0.8102  0.0972
  187DOPC   H2R23002   5.445   1.815  13.916  0.8601 -1.2447  2.2977
  187DOPC   H2S23003   5.433   1.968  13.845  0.8160  0.6474  0.5705
  187DOPC    C323004   5.952   2.078  13.893  0.5177 -0.2528 -0.3302
  187DOPC    HX23005   5.897   2.174  13.882 -1.4189 -1.2219  0.2953
  187DOPC    HY23006   6.043   2.080  13.830  1.9200 -1.8530  1.5167
  187DOPC   O3123007   5.991   2.066  14.032 -0.1001  0.6225 -0.2490
  187DOPC   C3123008   6.086   1.975  14.056  0.0807  0.6946 -0.4590
  187DOPC   O3223009   6.133   1.903  13.966  0.4090 -0.3640 -0.1191
  187DOPC   C3223010   6.118   1.969  14.204 -0.2193  0.0797 -0.1756
  187DOPC   H2X23011   6.153   1.865  14.218 -0.1999 -0.0557 -1.1165
  187DOPC   H2Y23012   6.200   2.040  14.225  0.5543 -0.0322 -2.5275
  187DOPC   C2323013   5.500   1.972  14.058  0.1406  0.3711 -0.7258
  187DOPC   H3R23014   5.412   2.037  14.075  0.4414  0.9437 -1.3214
  187DOPC   H3S23015   5.593   2.030  14.075  0.6853 -0.8565  0.7701
  187DOPC   C2423016   5.521   1.867  14.171  0.6129 -0.4379  0.2329
  187DOPC   H4R23017   5.609   1.808  14.139 -0.0067 -2.1712  1.5600
  187DOPC   H4S23018   5.437   1.795  14.175  1.8048 -1.8457  0.6863
  187DOPC   C2523019   5.552   1.939  14.311  0.6093 -0.4165 -0.1801
  187DOPC   H5R23020   5.468   2.008  14.335  1.5642  0.9860 -0.7563
  187DOPC   H5S23021   5.650   1.990  14.306  0.5541 -0.4188 -1.8232
  187DOPC   C2623022   5.565   1.838  14.424 -0.3423  0.7106 -0.3008
  187DOPC   H6R23023   5.658   1.780  14.412 -3.0958 -4.0161 -1.1011
  187DOPC   H6S23024   5.477   1.770  14.429  1.2514 -1.4361 -0.4453
  187DOPC   C2723025   5.585   1.899  14.563  0.1131 -0.2555  0.0627
  187DOPC   H7R23026   5.649   1.986  14.537  0.5276 -0.9659 -1.4606
  187DOPC   H7S23027   5.637   1.829  14.631  0.1027 -0.8543 -0.5380
  187DOPC   C2823028   5.462   1.943  14.632  0.0255 -0.2697  0.4879
  187DOPC   H8R23029   5.399   1.855  14.659 -0.4445  0.1497  0.7859
  187DOPC   H8S23030   5.393   2.007  14.574  1.3943 -0.3586 -1.3177
  187DOPC   C2923031   5.495   2.018  14.753  0.0365  0.5442 -1.0509
  187DOPC   H9R23032   5.570   2.096  14.735  1.1111  0.0112  0.8828
  187DOPC  C21023033   5.448   2.000  14.875  0.4254  0.6456 -0.3515
  187DOPC  H10R23034   5.467   2.070  14.958 -1.1782 -0.8842  1.3996
  187DOPC  C21123035   5.337   1.903  14.915 -0.8592 -0.3574  0.3307
  187DOPC  H11R23036   5.370   1.834  14.996  0.2981  1.1714  1.2055
  187DOPC  H11S23037   5.304   1.836  14.832  0.5811 -2.7438  1.5881
  187DOPC  C21223038   5.206   1.967  14.970 -0.5770 -0.0502  0.0717
  187DOPC  H12R23039   5.217   2.018  15.068 -0.7340  0.1345 -0.0059
  187DOPC  H12S23040   5.132   1.887  14.990 -0.9348  0.6409  1.6239
  187DOPC  C21323041   5.148   2.061  14.865 -0.5091 -0.4206 -1.2887
  187DOPC  H13R23042   5.153   2.013  14.765  0.5426 -1.6554 -0.6817
  187DOPC  H13S23043   5.208   2.154  14.872  2.6042 -2.3669  3.6045
  187DOPC  C21423044   5.003   2.098  14.905 -0.0125  0.1862 -0.0187
  187DOPC  H14R23045   4.937   2.010  14.921  0.8979 -0.7520 -1.1564
  187DOPC  H14S23046   4.965   2.163  14.824  0.2322  2.3008  1.4774
  187DOPC  C21523047   5.009   2.196  15.028  0.3030  0.0298  0.6681
  187DOPC  H15R23048   5.102   2.257  15.023  1.5839 -1.6751  2.3218
  187DOPC  H15S23049   5.005   2.138  15.123  2.1452 -0.2804  0.5992
  187DOPC  C21623050   4.893   2.298  15.026  0.1373 -0.0944 -0.6501
  187DOPC  H16R23051   4.802   2.237  15.038 -0.2871  0.8589  1.3935
  187DOPC  H16S23052   4.879   2.347  14.927  1.2463  0.7345 -0.4315
  187DOPC  C21723053   4.880   2.402  15.138  0.4232 -0.4479 -0.5109
  187DOPC  H17R23054   4.777   2.443  15.127  0.3324 -0.3544  0.5311
  187DOPC  H17S23055   4.945   2.492  15.133  0.8385 -0.8346 -3.6503
  187DOPC  C21823056   4.877   2.349  15.287 -0.0856 -0.0872  0.2491
  187DOPC  H18R23057   4.979   2.321  15.318 -0.4912  1.5329  3.4021
  187DOPC  H18S23058   4.806   2.263  15.287 -0.7086  0.3858  1.9702
  187DOPC  H18T23059   4.837   2.428  15.354  1.9400 -0.3080  1.8206
  187DOPC   C3323060   5.987   1.985  14.287 -0.4737  0.3075 -0.0103
  187DOPC   H3X23061   5.901   1.936  14.237 -1.0867 -0.5137  1.7575
  187DOPC   H3Y23062   5.965   2.093  14.285 -1.4123  0.1294  0.3000
  187DOPC   C3423063   6.005   1.930  14.433 -0.0825  0.0196  0.4072
  187DOPC   H4X23064   6.029   1.822  14.423 -1.1466 -0.4163  2.2049
  187DOPC   H4Y23065   5.904   1.939  14.477 -0.3052 -0.1578 -0.0639
  187DOPC   C3523066   6.107   1.997  14.536  0.6088  0.3285  0.3907
  187DOPC   H5X23067   6.211   1.977  14.504  0.0913 -3.2813  0.5938
  187DOPC   H5Y23068   6.103   1.948  14.635 -0.3341  2.1766  1.3093
  187DOPC   C3623069   6.085   2.147  14.556  0.1000  0.3578  0.7665
  187DOPC   H6X23070   6.184   2.196  14.569 -0.1907  0.8062  1.3440
  187DOPC   H6Y23071   6.032   2.187  14.467  0.1127  1.1483  1.1051
  187DOPC   C3723072   5.997   2.189  14.676  0.2120  0.5139 -0.0556
  187DOPC   H7X23073   5.912   2.118  14.681  0.5014  0.1452 -0.3224
  187DOPC   H7Y23074   6.055   2.153  14.765  0.7883  1.1580 -0.1664
  187DOPC   C3823075   5.946   2.331  14.674 -0.5928 -0.1039 -1.1402
  187DOPC   H8X23076   5.859   2.339  14.742 -1.3876 -0.7099 -2.0577
  187DOPC   H8Y23077   5.906   2.351  14.572 -2.7023 -2.3689 -0.8502
  187DOPC   C3923078   6.053   2.425  14.717 -0.1592  0.1487  0.2568
  187DOPC   H9X23079   6.121   2.384  14.793  0.2131  2.3529  1.1925
  187DOPC  C31023080   6.063   2.558  14.698 -0.3130  0.5937 -0.6975
  187DOPC  H10X23081   6.160   2.603  14.721  0.5684  0.4977 -3.8702
  187DOPC  C31123082   5.980   2.638  14.604  0.3506  0.0342 -0.2010
  187DOPC  H11X23083   5.968   2.739  14.650  1.0345 -1.0547  2.6190
  187DOPC  H11Y23084   5.877   2.601  14.590 -0.3988  1.7904  0.4047
  187DOPC  C31223085   6.039   2.660  14.464  0.1621  0.2355 -0.2509
  187DOPC  H12X23086   6.131   2.721  14.475  1.9084 -2.3304  0.2391
  187DOPC  H12Y23087   5.963   2.705  14.397 -0.7058  1.2410  1.3428
  187DOPC  C31323088   6.090   2.532  14.396  0.5106 -0.6820  0.5220
  187DOPC  H13X23089   6.192   2.511  14.435  1.9252  2.5578 -1.0570
  187DOPC  H13Y23090   6.013   2.452  14.404  0.2582 -0.5547 -0.5672
  187DOPC  C31423091   6.116   2.547  14.243 -0.2208 -0.3082 -0.4459
  187DOPC  H14X23092   6.020   2.573  14.194 -0.7248 -1.8023 -0.3092
  187DOPC  H14Y23093   6.187   2.629  14.219 -1.1496  0.8734  0.7089
  187DOPC  C31523094   6.167   2.416  14.174  0.3694  0.0634 -0.0010
  187DOPC  H15X23095   6.090   2.336  14.179  0.9117 -0.4335  0.5691
  187DOPC  H15Y23096   6.254   2.373  14.228  0.9253 -1.5989 -2.0720
  187DOPC  C31623097   6.208   2.434  14.031 -0.0267 -0.7716 -0.1927
  187DOPC  H16X23098   6.212   2.336  13.980  0.7491 -1.0686  0.4337
  187DOPC  H16Y23099   6.119   2.485  13.986  1.1829 -0.6629 -2.6058
  187DOPC  C31723100   6.331   2.522  13.999 -0.1731  0.1775  0.3051
  187DOPC  H17X23101   6.316   2.627  14.035  1.6402 -0.6273  3.9565
  187DOPC  H17Y23102   6.424   2.481  14.046 -0.8097 -0.8560  0.6952
  187DOPC  C31823103   6.349   2.527  13.844 -0.2362 -0.0360 -0.2371
  187DOPC  H18X23104   6.251   2.573  13.819 -0.2349  0.2574  0.2900
  187DOPC  H18Y23105   6.436   2.584  13.805 -0.3195 -0.3847 -0.9579
  187DOPC  H18Z23106   6.344   2.423  13.805 -3.5866  0.0214 -0.2784
  188DOPC     N23107   0.496   1.463  13.441 -0.3237  0.2647 -0.1302
  188DOPC   C1223108   0.544   1.601  13.406  0.6794 -0.5542  0.1263
  188DOPC  H12A23109   0.461   1.666  13.432  1.2437 -0.8016  2.8293
  188DOPC  H12B23110   0.560   1.617  13.300 -0.4240  0.1744  0.0523
  188DOPC   C1323111   0.472   1.446  13.590  0.0931  0.5433 -0.0546
  188DOPC  H13A23112   0.392   1.510  13.625 -1.0118  0.7851 -2.7581
  188DOPC  H13B23113   0.448   1.344  13.614  0.6300  0.2111 -0.8604
  188DOPC  H13C23114   0.564   1.464  13.643  0.1729  0.4617 -0.1641
  188DOPC   C1423115   0.601   1.357  13.402  0.6031  0.2950 -0.4091
  188DOPC  H14A23116   0.577   1.258  13.437  2.5486  0.0690  0.4325
  188DOPC  H14B23117   0.615   1.354  13.295 -0.1203  0.1600 -0.5005
  188DOPC  H14C23118   0.698   1.380  13.444  0.6519 -0.1079 -0.2957
  188DOPC   C1523119   0.368   1.440  13.364 -0.4389 -0.5816  0.3449
  188DOPC  H15A23120   0.312   1.353  13.392  0.4521 -1.5231 -0.7041
  188DOPC  H15B23121   0.394   1.420  13.261 -0.1612 -0.1087  0.3171
  188DOPC  H15C23122   0.305   1.528  13.366  0.4409  0.0812  3.0393
  188DOPC   C1123123   0.674   1.643  13.473 -0.1349 -0.5877 -0.4170
  188DOPC  H11A23124   0.678   1.753  13.456 -0.0633 -0.7432 -1.4455
  188DOPC  H11B23125   0.663   1.619  13.581 -0.1697 -0.5767 -0.4180
  188DOPC     P23126   0.923   1.579  13.490 -0.3480 -0.3461 -0.3016
  188DOPC   O1323127   1.023   1.589  13.386 -0.0045 -0.1570 -0.1361
  188DOPC   O1423128   0.911   1.457  13.570 -0.4016  0.2797 -0.2404
  188DOPC   O1223129   0.786   1.576  13.419 -0.3517 -0.0579  0.3747
  188DOPC   O1123130   0.917   1.711  13.577 -0.0656 -0.0167 -0.1494
  188DOPC    C123131   1.027   1.761  13.658  0.5494  0.0511 -0.6420
  188DOPC    HA23132   1.048   1.864  13.622  1.6858 -0.2061 -0.7499
  188DOPC    HB23133   1.127   1.716  13.639  0.9777 -0.2753  2.0246
  188DOPC    C223134   0.987   1.775  13.806  0.3013  0.1166 -0.1936
  188DOPC    HS23135   1.060   1.841  13.856  1.8522 -0.8373 -1.1164
  188DOPC   O2123136   0.980   1.647  13.874 -0.2857 -0.4954 -0.0741
  188DOPC   C2123137   1.092   1.583  13.898 -0.0104 -0.4848 -0.0350
  188DOPC   O2223138   1.205   1.624  13.873 -0.3150 -0.4092  0.1861
  188DOPC   C2223139   1.048   1.448  13.960  0.2858  0.3593 -0.6790
  188DOPC   H2R23140   1.007   1.394  13.872  1.5768 -0.3107 -0.8942
  188DOPC   H2S23141   0.974   1.468  14.040 -0.7258 -2.9087 -0.6690
  188DOPC    C323142   0.841   1.837  13.824 -0.2244 -0.1739  0.0477
  188DOPC    HX23143   0.766   1.763  13.789 -0.6891  0.9123 -1.3334
  188DOPC    HY23144   0.836   1.919  13.750  1.0894  1.0401  1.2413
  188DOPC   O3123145   0.815   1.879  13.960 -0.4211 -0.0054 -0.1842
  188DOPC   C3123146   0.809   2.011  13.983  1.0269  0.3447 -0.2203
  188DOPC   O3223147   0.842   2.093  13.894 -0.2265 -0.1767 -0.5703
  188DOPC   C3223148   0.761   2.037  14.129 -0.4252  0.4140  0.5186
  188DOPC   H2X23149   0.661   1.989  14.135 -1.1812  1.3998 -2.4286
  188DOPC   H2Y23150   0.824   1.978  14.199  0.1849  1.0082  0.4873
  188DOPC   C2323151   1.172   1.382  14.030  0.5956 -0.2224  0.7050
  188DOPC   H3R23152   1.226   1.455  14.094 -1.3537  1.3943  0.5880
  188DOPC   H3S23153   1.236   1.337  13.951 -0.0071 -1.3664  0.8590
  188DOPC   C2423154   1.127   1.264  14.116  0.1354  0.2761 -0.3721
  188DOPC   H4R23155   1.091   1.317  14.206 -0.5014 -0.4303 -0.1962
  188DOPC   H4S23156   1.213   1.204  14.154 -0.3697 -0.5057 -0.4441
  188DOPC   C2523157   1.012   1.173  14.072 -0.2686 -0.6217  0.2337
  188DOPC   H5R23158   1.056   1.114  13.988 -0.2346 -0.9078  0.4505
  188DOPC   H5S23159   0.923   1.228  14.037 -1.3970 -1.8718  1.0432
  188DOPC   C2623160   0.962   1.072  14.176 -0.2551  0.6343  0.6538
  188DOPC   H6R23161   1.042   0.995  14.186 -0.2407  0.7565  1.5638
  188DOPC   H6S23162   0.865   1.025  14.148  0.7559 -2.0941  1.3841
  188DOPC   C2723163   0.935   1.121  14.314  0.0141 -0.0332 -0.0883
  188DOPC   H7R23164   0.868   1.210  14.312 -0.9228 -0.7251 -1.6356
  188DOPC   H7S23165   1.032   1.149  14.360  0.7469  0.9782 -2.1816
  188DOPC   C2823166   0.871   1.026  14.405  0.0879  0.0684 -0.1384
  188DOPC   H8R23167   0.932   0.933  14.396  2.7865  1.8776 -1.9439
  188DOPC   H8S23168   0.765   1.003  14.385 -1.2799  1.2567  4.4594
  188DOPC   C2923169   0.868   1.073  14.547 -0.2907  0.9892  0.4105
  188DOPC   H9R23170   0.779   1.135  14.567 -1.0086 -0.5310  2.1338
  188DOPC  C21023171   0.972   1.055  14.634  0.6668  0.3629 -0.2052
  188DOPC  H10R23172   0.956   1.096  14.735 -0.4310  0.3111 -0.3477
  188DOPC  C21123173   1.096   0.978  14.600 -0.2195 -0.0546  0.3875
  188DOPC  H11R23174   1.152   1.025  14.517 -1.4195  2.2470  0.8186
  188DOPC  H11S23175   1.082   0.876  14.557  1.7555  0.0267 -0.5480
  188DOPC  C21223176   1.197   0.960  14.715  0.3051  0.6606 -0.4698
  188DOPC  H12R23177   1.226   1.057  14.761 -0.4081  0.3898  0.6056
  188DOPC  H12S23178   1.293   0.910  14.689 -0.7146 -1.2665 -0.7511
  188DOPC  C21323179   1.148   0.870  14.827  0.4470 -0.0827  0.1432
  188DOPC  H13R23180   1.121   0.773  14.780 -1.4806  0.3265  0.3114
  188DOPC  H13S23181   1.063   0.921  14.877  0.6472 -0.7047  1.1476
  188DOPC  C21423182   1.257   0.850  14.929  0.1036  0.2947  0.3003
  188DOPC  H14R23183   1.303   0.947  14.956  1.6979 -0.3756  0.1039
  188DOPC  H14S23184   1.334   0.795  14.871 -1.3039 -0.0802 -1.2804
  188DOPC  C21523185   1.208   0.781  15.060 -0.2787 -0.4332  0.2960
  188DOPC  H15R23186   1.153   0.688  15.034 -0.9660  0.4576 -1.6824
  188DOPC  H15S23187   1.132   0.846  15.109 -0.8011 -1.2385  0.5727
  188DOPC  C21623188   1.309   0.743  15.161  0.6836 -0.5967  0.0672
  188DOPC  H16R23189   1.380   0.665  15.126 -0.5324 -0.2427 -3.5471
  188DOPC  H16S23190   1.256   0.707  15.252 -2.6605  3.3039 -0.0530
  188DOPC  C21723191   1.395   0.861  15.213  0.3224 -0.7241  0.0477
  188DOPC  H17R23192   1.332   0.942  15.256  0.8790 -0.7477  0.9333
  188DOPC  H17S23193   1.449   0.908  15.128  0.1834  0.5546  0.6432
  188DOPC  C21823194   1.493   0.818  15.325 -0.7857 -0.2670 -0.5542
  188DOPC  H18R23195   1.567   0.747  15.282  1.2766  0.3537  1.6966
  188DOPC  H18S23196   1.445   0.777  15.417 -1.9844  2.6828  0.2675
  188DOPC  H18T23197   1.557   0.905  15.354 -2.3319  0.3595  1.1597
  188DOPC   C3323198   0.757   2.188  14.169  0.3593 -0.0897 -0.7905
  188DOPC   H3X23199   0.843   2.252  14.140 -0.4025  1.7569  0.8294
  188DOPC   H3Y23200   0.745   2.194  14.279 -0.3500 -1.5044 -0.7692
  188DOPC   C3423201   0.625   2.253  14.112 -0.3572 -0.6847  0.1132
  188DOPC   H4X23202   0.536   2.196  14.146 -1.2895 -0.1705 -1.3905
  188DOPC   H4Y23203   0.622   2.234  14.003  0.8579  0.5798 -0.1728
  188DOPC   C3523204   0.606   2.402  14.142 -0.4365  0.6607 -0.4019
  188DOPC   H5X23205   0.496   2.418  14.139 -0.8871 -1.9679  0.2207
  188DOPC   H5Y23206   0.666   2.459  14.067 -1.0429  0.8709 -0.7360
  188DOPC   C3623207   0.655   2.453  14.281  0.4970  0.9122  0.3670
  188DOPC   H6X23208   0.607   2.389  14.357  0.4749  0.5533  0.0498
  188DOPC   H6Y23209   0.763   2.431  14.292  0.8703  1.8144 -1.1633
  188DOPC   C3723210   0.622   2.602  14.313 -0.4400  0.8247  0.0994
  188DOPC   H7X23211   0.647   2.662  14.223  3.0823 -0.5267 -0.0140
  188DOPC   H7Y23212   0.513   2.612  14.327 -0.5326 -0.7119  0.6590
  188DOPC   C3823213   0.697   2.652  14.435 -0.1718  0.4112  0.1393
  188DOPC   H8X23214   0.669   2.592  14.524 -1.1914  2.5439  1.3422
  188DOPC   H8Y23215   0.661   2.756  14.449  0.4283  1.3471 -3.8834
  188DOPC   C3923216   0.847   2.667  14.412 -0.4350 -0.0782 -0.7788
  188DOPC   H9X23217   0.870   2.758  14.356  0.0179 -0.0258 -0.5090
  188DOPC  C31023218   0.949   2.579  14.436 -0.4165 -0.5299 -0.1189
  188DOPC  H10X23219   1.053   2.609  14.414 -0.2461 -0.6294  0.5477
  188DOPC  C31123220   0.942   2.440  14.507  0.1609  0.4669  0.3176
  188DOPC  H11X23221   0.838   2.401  14.503  0.0238  0.8869 -0.5973
  188DOPC  H11Y23222   0.969   2.467  14.611 -0.3335 -1.7917  1.0786
  188DOPC  C31223223   1.041   2.344  14.438 -0.1894  0.0261 -0.6164
  188DOPC  H12X23224   1.143   2.380  14.464 -0.4273  0.7479 -0.6780
  188DOPC  H12Y23225   1.028   2.359  14.329 -0.6595 -1.0508 -0.7215
  188DOPC  C31323226   1.036   2.197  14.483  0.1064 -0.8448 -0.1362
  188DOPC  H13X23227   1.018   2.202  14.593  0.3112 -0.4987 -0.1169
  188DOPC  H13Y23228   0.949   2.150  14.432 -0.8453 -0.2353  0.8720
  188DOPC  C31423229   1.164   2.120  14.453  0.0803 -0.2788 -0.2832
  188DOPC  H14X23230   1.250   2.168  14.504  0.2296  0.9960 -1.6574
  188DOPC  H14Y23231   1.150   2.020  14.499 -0.1138 -0.9118 -1.6555
  188DOPC  C31523232   1.186   2.112  14.297 -0.3165 -0.3260  0.5657
  188DOPC  H15X23233   1.223   2.205  14.250 -0.8292 -1.3126 -1.9237
  188DOPC  H15Y23234   1.081   2.109  14.263 -0.0665  2.4494 -0.7400
  188DOPC  C31623235   1.256   1.982  14.260 -0.2540  0.6105  0.2280
  188DOPC  H16X23236   1.358   1.983  14.305  0.3532  0.9285 -1.0953
  188DOPC  H16Y23237   1.214   1.889  14.305  2.2825 -0.7129  0.0544
  188DOPC  C31723238   1.275   1.980  14.107 -0.7761  0.0502  0.4581
  188DOPC  H17X23239   1.292   1.873  14.087 -0.3658  0.7424 -3.8556
  188DOPC  H17Y23240   1.187   2.022  14.054 -1.6722 -0.3593  1.5850
  188DOPC  C31823241   1.404   2.055  14.057  0.0959 -0.2965 -0.3092
  188DOPC  H18X23242   1.395   2.165  14.067  1.0806 -0.1848 -0.5423
  188DOPC  H18Y23243   1.494   2.023  14.114  0.4584  1.2099  0.0050
  188DOPC  H18Z23244   1.424   2.044  13.948 -1.4680  0.3334 -0.6933
  189DOPC     N23245   1.631   7.289  13.219 -0.7144  0.3200 -0.2259
  189DOPC   C1223246   1.682   7.328  13.355 -0.2631  0.5876  0.2569
  189DOPC  H12A23247   1.788   7.346  13.347  0.0512 -1.4271 -0.6167
  189DOPC  H12B23248   1.674   7.243  13.422  2.8327  1.4200  1.8897
  189DOPC   C1323249   1.676   7.397  13.128 -1.1302  0.3804 -0.2304
  189DOPC  H13A23250   1.782   7.399  13.106 -0.7134 -0.3246  1.5666
  189DOPC  H13B23251   1.646   7.383  13.025 -0.4437 -2.0933 -0.1483
  189DOPC  H13C23252   1.643   7.495  13.159  2.4087  2.1112 -1.3981
  189DOPC   C1423253   1.484   7.285  13.212 -0.3440 -0.8614 -1.1674
  189DOPC  H14A23254   1.456   7.278  13.108 -0.0283  2.3454 -1.5499
  189DOPC  H14B23255   1.453   7.196  13.266  1.9359 -1.3076 -0.4997
  189DOPC  H14C23256   1.437   7.370  13.258  0.8171  1.2026 -3.5705
  189DOPC   C1523257   1.689   7.159  13.171 -0.4103 -0.4471 -0.0285
  189DOPC  H15A23258   1.674   7.145  13.065  1.4874 -2.1079 -0.1316
  189DOPC  H15B23259   1.659   7.066  13.218  1.4210 -1.2092 -0.2939
  189DOPC  H15C23260   1.797   7.152  13.181 -0.4068  0.1702  0.5168
  189DOPC   C1123261   1.611   7.453  13.424 -0.1228 -0.0192  0.3488
  189DOPC  H11A23262   1.500   7.454  13.417 -0.1852 -2.6004  0.3230
  189DOPC  H11B23263   1.644   7.449  13.530 -0.4193 -0.9508  0.4096
  189DOPC     P23264   1.784   7.653  13.412  0.4864  0.0463 -0.1890
  189DOPC   O1323265   1.802   7.770  13.326  0.2235  0.5975 -0.0678
  189DOPC   O1423266   1.899   7.560  13.428  0.1978 -0.5667  0.5641
  189DOPC   O1223267   1.654   7.573  13.354  0.2405  0.3264  0.1245
  189DOPC   O1123268   1.746   7.698  13.568 -0.1524  0.9431  0.4419
  189DOPC    C123269   1.640   7.797  13.584  0.0362 -0.0049 -0.4919
  189DOPC    HA23270   1.540   7.755  13.556 -1.1032  2.3914 -0.2545
  189DOPC    HB23271   1.661   7.880  13.514  1.3015  0.1249  0.0216
  189DOPC    C223272   1.626   7.831  13.735  0.7324 -0.1555 -0.0055
  189DOPC    HS23273   1.531   7.887  13.740 -0.2814 -1.9285  1.7277
  189DOPC   O2123274   1.729   7.912  13.792  0.3084 -0.8271 -0.3484
  189DOPC   C2123275   1.721   8.035  13.747 -0.0614  0.1321  0.2222
  189DOPC   O2223276   1.637   8.080  13.671  0.2350 -0.3219 -0.6080
  189DOPC   C2223277   1.834   8.128  13.811  0.3116 -0.5064 -0.3785
  189DOPC   H2R23278   1.871   8.197  13.733  0.0563  0.7200  0.5503
  189DOPC   H2S23279   1.919   8.067  13.849  1.2296  1.6293  1.2245
  189DOPC    C323280   1.605   7.701  13.823  0.4748 -0.6284 -0.0710
  189DOPC    HX23281   1.699   7.642  13.820 -0.5775 -2.3609 -0.7932
  189DOPC    HY23282   1.523   7.634  13.789  1.8041 -1.0562 -2.6854
  189DOPC   O3123283   1.585   7.739  13.963  0.3887  0.1929 -0.5753
  189DOPC   C3123284   1.466   7.767  14.000  0.1981  0.5839  0.1732
  189DOPC   O3223285   1.365   7.781  13.929 -0.2593 -0.3281 -0.2044
  189DOPC   C3223286   1.473   7.796  14.153 -0.4184  0.2761 -0.2483
  189DOPC   H2X23287   1.547   7.727  14.200 -0.6711  0.6733  0.7512
  189DOPC   H2Y23288   1.502   7.903  14.161  2.1336 -0.4160  0.8564
  189DOPC   C2323289   1.785   8.215  13.928 -0.4103 -0.0358 -0.3072
  189DOPC   H3R23290   1.705   8.288  13.904 -1.4370 -0.2112  2.2780
  189DOPC   H3S23291   1.873   8.277  13.955  0.6912 -1.0807 -1.3431
  189DOPC   C2423292   1.734   8.129  14.054 -0.5210 -0.1457 -0.5647
  189DOPC   H4R23293   1.822   8.075  14.093  0.6030  1.9641 -0.0435
  189DOPC   H4S23294   1.660   8.050  14.028  1.1779 -1.0436 -3.1503
  189DOPC   C2523295   1.680   8.225  14.164 -0.0804 -0.1306 -0.4474
  189DOPC   H5R23296   1.586   8.275  14.133  0.6250  0.8105 -1.1511
  189DOPC   H5S23297   1.745   8.313  14.184 -3.3305  1.8690  2.3883
  189DOPC   C2623298   1.649   8.154  14.299  0.0535  0.1224  0.3478
  189DOPC   H6R23299   1.741   8.118  14.349 -0.5879 -3.3582 -0.7437
  189DOPC   H6S23300   1.582   8.067  14.284  0.0538 -0.2414  2.2500
  189DOPC   C2723301   1.571   8.250  14.388  0.0439  0.7794 -0.4237
  189DOPC   H7R23302   1.465   8.274  14.361  0.0739  2.4976  0.8391
  189DOPC   H7S23303   1.634   8.342  14.385  0.4890  0.4575 -1.7133
  189DOPC   C2823304   1.553   8.193  14.525 -0.0042  0.4441 -0.4316
  189DOPC   H8R23305   1.647   8.155  14.572  0.4591  2.3087  0.2463
  189DOPC   H8S23306   1.495   8.099  14.519  1.0238 -0.1499 -1.5150
  189DOPC   C2923307   1.476   8.278  14.629  0.3509 -0.1895 -0.4032
  189DOPC   H9R23308   1.368   8.260  14.638  0.7358 -1.3768  3.6861
  189DOPC  C21023309   1.528   8.387  14.690 -0.1544  0.1723  0.3018
  189DOPC  H10R23310   1.458   8.443  14.754 -1.7411  0.8373 -1.9031
  189DOPC  C21123311   1.665   8.446  14.673 -0.4290  0.4373  0.1745
  189DOPC  H11R23312   1.721   8.384  14.599  1.6771  1.2562  1.0336
  189DOPC  H11S23313   1.713   8.423  14.770  0.9654  1.2966 -0.2866
  189DOPC  C21223314   1.664   8.598  14.635 -0.0766  0.2963 -0.3522
  189DOPC  H12R23315   1.589   8.634  14.709  0.4560  1.3517 -0.2984
  189DOPC  H12S23316   1.621   8.596  14.532 -0.3338 -2.4396 -0.2575
  189DOPC  C21323317   1.807   8.667  14.632 -0.1375  0.0843 -0.4880
  189DOPC  H13R23318   1.857   8.609  14.551  0.3614  0.3165 -0.3541
  189DOPC  H13S23319   1.863   8.649  14.727  1.5555  0.9533 -1.2843
  189DOPC  C21423320   1.802   8.811  14.586 -0.6698  0.6960  0.1032
  189DOPC  H14R23321   1.738   8.860  14.662 -2.6088 -1.6377  0.0835
  189DOPC  H14S23322   1.748   8.817  14.489  1.5157  1.1696 -1.1459
  189DOPC  C21523323   1.942   8.881  14.578 -0.0145 -0.3988 -0.2122
  189DOPC  H15R23324   2.004   8.818  14.510  1.3101  3.0931 -2.5219
  189DOPC  H15S23325   1.996   8.859  14.673 -2.9069 -2.5070  1.0845
  189DOPC  C21623326   1.949   9.030  14.535  0.0168 -0.2726  0.0100
  189DOPC  H16R23327   2.051   9.074  14.535 -0.7144  1.5141 -0.2191
  189DOPC  H16S23328   1.882   9.088  14.603  0.8830  1.6965 -0.7232
  189DOPC  C21723329   1.897   9.043  14.392  0.0244 -0.0405 -0.7796
  189DOPC  H17R23330   1.789   9.016  14.383  0.7091 -2.5123 -2.5137
  189DOPC  H17S23331   1.942   8.970  14.322 -0.0803 -0.3891 -0.4887
  189DOPC  C21823332   1.924   9.180  14.343  0.4598 -0.1609  0.5540
  189DOPC  H18R23333   2.029   9.218  14.340  0.5089 -0.1722  1.6187
  189DOPC  H18S23334   1.865   9.257  14.397 -0.8533 -2.5898  2.7902
  189DOPC  H18T23335   1.887   9.175  14.238  0.1668 -0.0799  0.6517
  189DOPC   C3323336   1.330   7.767  14.215 -0.5974  0.0810  0.3455
  189DOPC   H3X23337   1.308   7.658  14.209  0.6631 -0.1112 -1.6523
  189DOPC   H3Y23338   1.253   7.817  14.152  2.1856  0.1555 -3.3882
  189DOPC   C3423339   1.323   7.807  14.357  0.2916  0.5080 -0.4888
  189DOPC   H4X23340   1.324   7.918  14.361 -1.7098  0.5392  0.6874
  189DOPC   H4Y23341   1.401   7.770  14.426  0.7608 -0.5478 -1.5725
  189DOPC   C3523342   1.198   7.760  14.435  0.5477 -0.9332 -0.8752
  189DOPC   H5X23343   1.119   7.770  14.358 -0.2548 -0.4903 -0.0088
  189DOPC   H5Y23344   1.181   7.824  14.524  0.2621 -1.1557 -0.7663
  189DOPC   C3623345   1.212   7.612  14.474 -0.4841  0.0734  0.8051
  189DOPC   H6X23346   1.225   7.565  14.374  0.7434  1.4266  0.2961
  189DOPC   H6Y23347   1.304   7.591  14.532 -0.4734 -0.1400  0.7118
  189DOPC   C3723348   1.084   7.552  14.530 -0.5168 -0.1944  0.1597
  189DOPC   H7X23349   1.065   7.616  14.619  3.0285  1.3633 -0.0380
  189DOPC   H7Y23350   1.002   7.568  14.456  0.3007  0.2947 -0.6658
  189DOPC   C3823351   1.096   7.403  14.563 -0.0364  0.1437 -0.6508
  189DOPC   H8X23352   1.133   7.361  14.467  2.0256 -0.4463  0.3518
  189DOPC   H8Y23353   0.994   7.365  14.583 -0.0907  1.5165  2.1644
  189DOPC   C3923354   1.185   7.365  14.676 -0.2603  0.4186 -0.5325
  189DOPC   H9X23355   1.215   7.447  14.743 -1.0359 -1.0878  1.7759
  189DOPC  C31023356   1.219   7.239  14.709  0.3828 -0.0429  0.3841
  189DOPC  H10X23357   1.288   7.213  14.791  0.5398 -1.5762 -0.1912
  189DOPC  C31123358   1.182   7.119  14.618 -0.1242  0.7315 -0.1113
  189DOPC  H11X23359   1.112   7.144  14.535 -0.8463 -0.3053  0.1625
  189DOPC  H11Y23360   1.140   7.039  14.682 -1.7563  1.9393  0.4028
  189DOPC  C31223361   1.299   7.062  14.539 -0.6418  0.1754 -0.6833
  189DOPC  H12X23362   1.382   7.052  14.613 -1.5493  0.1955  0.3708
  189DOPC  H12Y23363   1.343   7.144  14.478 -0.4117  0.1621 -0.5389
  189DOPC  C31323364   1.289   6.928  14.471  0.4398  0.0723 -0.1926
  189DOPC  H13X23365   1.255   6.855  14.547 -1.1341  1.6534  0.6944
  189DOPC  H13Y23366   1.204   6.942  14.400  0.4412 -1.8379 -0.6185
  189DOPC  C31423367   1.415   6.887  14.404  0.0866 -0.3858 -0.1191
  189DOPC  H14X23368   1.455   6.963  14.334  0.7990 -0.9218 -0.3038
  189DOPC  H14Y23369   1.486   6.888  14.490  0.2001  0.0146 -0.2174
  189DOPC  C31523370   1.421   6.752  14.339  0.1306  0.5137 -0.1274
  189DOPC  H15X23371   1.402   6.671  14.412  0.1905  3.1827  3.0316
  189DOPC  H15Y23372   1.526   6.732  14.307  0.8602  1.3624  1.6397
  189DOPC  C31623373   1.310   6.742  14.223 -0.1654  0.2042  0.1510
  189DOPC  H16X23374   1.218   6.728  14.284  0.5199  0.6602  1.3169
  189DOPC  H16Y23375   1.292   6.843  14.181 -2.4010  0.8648  2.4721
  189DOPC  C31723376   1.329   6.640  14.111 -0.0583  0.4250  1.0693
  189DOPC  H17X23377   1.256   6.665  14.031  0.7327  1.4264  0.6443
  189DOPC  H17Y23378   1.436   6.637  14.082 -0.2261 -0.7697  0.5133
  189DOPC  C31823379   1.300   6.495  14.156  0.0159 -0.1864  0.2718
  189DOPC  H18X23380   1.356   6.481  14.251  1.3527  1.6943 -0.1755
  189DOPC  H18Y23381   1.191   6.476  14.168  0.4942 -1.7522  2.9169
  189DOPC  H18Z23382   1.344   6.429  14.077  1.7773 -0.5764  1.5099
  190DOPC     N23383   2.542   0.760  13.211 -0.5543 -0.0944 -0.5974
  190DOPC   C1223384   2.490   0.816  13.341  0.1874 -0.8404  0.1423
  190DOPC  H12A23385   2.404   0.762  13.379  0.2824 -0.4682  0.9107
  190DOPC  H12B23386   2.450   0.915  13.329 -0.1087 -0.6437  2.3199
  190DOPC   C1323387   2.672   0.813  13.156  0.5214 -0.3205  0.0156
  190DOPC  H13A23388   2.671   0.921  13.159 -0.5879 -0.3164  0.0418
  190DOPC  H13B23389   2.755   0.776  13.214  0.5058 -2.0097 -0.9876
  190DOPC  H13C23390   2.692   0.778  13.056 -0.7443 -0.9451 -0.0425
  190DOPC   C1423391   2.446   0.780  13.097  0.3513  0.0405 -0.0107
  190DOPC  H14A23392   2.431   0.887  13.086 -1.7620  0.0561  2.2259
  190DOPC  H14B23393   2.477   0.728  13.009 -2.4324  0.7263 -1.5114
  190DOPC  H14C23394   2.354   0.736  13.131 -1.2193  2.9666 -0.0894
  190DOPC   C1523395   2.544   0.608  13.227  0.0359  0.2753 -0.7360
  190DOPC  H15A23396   2.610   0.573  13.306  0.2742  3.8086  0.8082
  190DOPC  H15B23397   2.572   0.555  13.138  1.2942  0.8886 -0.7338
  190DOPC  H15C23398   2.446   0.578  13.262  0.1218  2.2983  1.4472
  190DOPC   C1123399   2.580   0.823  13.462  1.1546 -0.5552  0.6361
  190DOPC  H11A23400   2.523   0.846  13.554  0.6487  1.7938 -0.1844
  190DOPC  H11B23401   2.609   0.723  13.499  0.6995 -0.6379  0.7693
  190DOPC     P23402   2.692   1.063  13.448 -0.3169  0.0341 -0.4486
  190DOPC   O1323403   2.551   1.098  13.482 -0.4838 -0.4490  0.3519
  190DOPC   O1423404   2.756   1.121  13.327  0.3699 -0.2360  0.1198
  190DOPC   O1223405   2.697   0.906  13.440  0.0241 -0.1591  0.1259
  190DOPC   O1123406   2.783   1.092  13.572  0.7640 -0.2502 -0.5916
  190DOPC    C123407   2.790   1.000  13.688 -0.4761  0.1359  1.2286
  190DOPC    HA23408   2.873   1.023  13.758 -1.0206  0.7216  1.6984
  190DOPC    HB23409   2.773   0.893  13.667 -0.9323  0.6796 -1.6877
  190DOPC    C223410   2.679   1.033  13.790 -0.2924 -0.2887  0.8257
  190DOPC    HS23411   2.586   0.994  13.743 -1.1194  1.0766  1.2651
  190DOPC   O2123412   2.671   1.177  13.808 -0.4151  0.9582  0.5438
  190DOPC   C2123413   2.549   1.230  13.787 -0.3394  0.2941 -0.2220
  190DOPC   O2223414   2.449   1.169  13.773 -0.0360  0.4370 -0.2950
  190DOPC   C2223415   2.557   1.378  13.760 -0.6530  0.0497  0.3255
  190DOPC   H2R23416   2.536   1.404  13.655 -1.7279  2.0376  0.9937
  190DOPC   H2S23417   2.658   1.419  13.783 -1.6630  2.4869  0.6556
  190DOPC    C323418   2.700   0.962  13.925 -0.2341  0.3178  0.1798
  190DOPC    HX23419   2.797   0.998  13.964  0.8467  0.1806 -2.2003
  190DOPC    HY23420   2.713   0.855  13.898 -0.4850  0.4499 -0.4893
  190DOPC   O3123421   2.588   0.993  14.014 -0.0096  0.0333 -0.4994
  190DOPC   C3123422   2.472   0.943  13.981  0.1837  0.6507 -0.3791
  190DOPC   O3223423   2.450   0.850  13.902  0.3294 -0.3328  0.4390
  190DOPC   C3223424   2.364   1.001  14.070 -0.2446  0.0345  0.9904
  190DOPC   H2X23425   2.409   1.073  14.142  0.8466  1.4109 -0.9872
  190DOPC   H2Y23426   2.297   1.071  14.016  1.2740  1.2984  0.6876
  190DOPC   C2323427   2.466   1.457  13.856 -0.2253 -0.5445  0.0736
  190DOPC   H3R23428   2.356   1.448  13.841 -0.0831 -3.4090  0.2477
  190DOPC   H3S23429   2.493   1.562  13.831 -2.3398 -0.4263 -2.1218
  190DOPC   C2423430   2.492   1.414  14.001 -0.1646  0.2643 -0.4336
  190DOPC   H4R23431   2.602   1.426  14.012 -0.3041  0.4937  0.9147
  190DOPC   H4S23432   2.461   1.312  14.030 -2.1819  0.6153 -1.1891
  190DOPC   C2523433   2.420   1.499  14.107 -0.2938  0.4271  0.2480
  190DOPC   H5R23434   2.443   1.601  14.070 -0.4739  0.2337 -0.4122
  190DOPC   H5S23435   2.455   1.481  14.211 -0.5719 -1.8739 -0.0042
  190DOPC   C2623436   2.266   1.488  14.097 -0.2789  0.3989  0.0146
  190DOPC   H6R23437   2.222   1.517  14.000 -0.6722  0.7029  0.2797
  190DOPC   H6S23438   2.229   1.550  14.181 -0.2334 -1.7446  1.7285
  190DOPC   C2723439   2.221   1.345  14.121  0.2776 -0.5277 -1.0101
  190DOPC   H7R23440   2.287   1.293  14.193  2.4799 -0.1294 -2.6436
  190DOPC   H7S23441   2.232   1.304  14.018 -0.6255  0.2995 -1.4555
  190DOPC   C2823442   2.075   1.326  14.150  0.1201 -0.2019  0.2288
  190DOPC   H8R23443   2.055   1.217  14.148 -0.0131 -0.3676 -5.2293
  190DOPC   H8S23444   2.020   1.375  14.066  3.3075  0.7023 -1.4896
  190DOPC   C2923445   2.024   1.394  14.274 -0.2357  0.9416  0.3190
  190DOPC   H9R23446   1.979   1.494  14.263 -0.8672  0.5096 -1.3738
  190DOPC  C21023447   2.049   1.350  14.396 -0.4604 -0.0921 -0.5685
  190DOPC  H10R23448   1.993   1.403  14.475  0.9393  2.4245 -1.1358
  190DOPC  C21123449   2.142   1.232  14.437  0.5727  0.2451 -0.0764
  190DOPC  H11R23450   2.239   1.275  14.467  0.9896 -1.0175  0.4745
  190DOPC  H11S23451   2.154   1.159  14.354  0.7191 -0.3995  0.4995
  190DOPC  C21223452   2.080   1.156  14.558  0.1896  0.4277 -0.3460
  190DOPC  H12R23453   2.051   1.233  14.632 -0.5362  0.2323 -0.4211
  190DOPC  H12S23454   2.147   1.079  14.603  0.8076 -0.7296 -3.0317
  190DOPC  C21323455   1.963   1.066  14.522  0.1437  0.1780  0.5937
  190DOPC  H13R23456   1.985   1.020  14.423 -0.4926 -0.0445  0.5511
  190DOPC  H13S23457   1.869   1.124  14.507 -0.7176 -1.1554  0.7023
  190DOPC  C21423458   1.926   0.971  14.636 -0.8986 -0.2227  1.1518
  190DOPC  H14R23459   2.008   0.896  14.647  0.1547  0.5193 -1.0804
  190DOPC  H14S23460   1.835   0.921  14.597 -0.1682 -0.1054 -0.8374
  190DOPC  C21523461   1.891   1.043  14.764  0.2652  0.2300  0.5758
  190DOPC  H15R23462   1.833   1.137  14.754 -3.0461 -1.5432  1.4724
  190DOPC  H15S23463   1.989   1.069  14.808 -0.0229  0.5784  1.0090
  190DOPC  C21623464   1.818   0.946  14.854  0.4456 -0.4238 -0.4774
  190DOPC  H16R23465   1.874   0.850  14.849 -0.8638 -1.2775  0.8032
  190DOPC  H16S23466   1.720   0.922  14.808  0.0102 -1.2333  0.8326
  190DOPC  C21723467   1.801   0.981  15.002 -0.0535 -0.0843  0.3484
  190DOPC  H17R23468   1.733   1.069  15.006  0.8775  0.7091 -0.7341
  190DOPC  H17S23469   1.899   1.018  15.039  0.5166 -1.5298  0.3619
  190DOPC  C21823470   1.754   0.858  15.086 -0.0449 -0.6332 -0.0923
  190DOPC  H18R23471   1.754   0.875  15.196  0.4101 -0.2853 -0.1443
  190DOPC  H18S23472   1.820   0.772  15.062 -0.1237 -0.3200 -1.4673
  190DOPC  H18T23473   1.650   0.826  15.067 -0.7971  0.1855  2.2450
  190DOPC   C3323474   2.271   0.895  14.137 -0.2423 -0.3068  0.6386
  190DOPC   H3X23475   2.259   0.815  14.060 -3.3450  0.2939  0.3570
  190DOPC   H3Y23476   2.172   0.938  14.162  0.4042  1.1654  0.7855
  190DOPC   C3423477   2.327   0.819  14.263  0.2888 -0.3215 -0.0544
  190DOPC   H4X23478   2.242   0.788  14.327  0.3221  0.9225  0.6379
  190DOPC   H4Y23479   2.396   0.897  14.304 -0.4702  0.3371 -0.0062
  190DOPC   C3523480   2.425   0.704  14.240 -0.0364 -0.4821  0.2469
  190DOPC   H5X23481   2.503   0.746  14.173 -0.8843  2.1120  0.7656
  190DOPC   H5Y23482   2.376   0.626  14.176 -0.7902 -0.0093  0.2361
  190DOPC   C3623483   2.479   0.626  14.361 -0.0132  1.0858  0.9473
  190DOPC   H6X23484   2.540   0.546  14.315 -0.5805  0.3914  1.3911
  190DOPC   H6Y23485   2.549   0.695  14.413  0.4788  0.0832  1.6386
  190DOPC   C3723486   2.369   0.576  14.450  0.2193 -0.2046  0.1380
  190DOPC   H7X23487   2.328   0.669  14.496  1.9844  0.1685  1.0520
  190DOPC   H7Y23488   2.285   0.535  14.391 -0.2258  0.2875  0.4243
  190DOPC   C3823489   2.419   0.468  14.559  0.3399  0.5408 -0.1325
  190DOPC   H8X23490   2.485   0.404  14.497  0.1434  1.9976 -1.9262
  190DOPC   H8Y23491   2.335   0.402  14.592  1.3048 -1.0750 -0.7886
  190DOPC   C3923492   2.492   0.525  14.675 -0.4420  0.3845 -0.0644
  190DOPC   H9X23493   2.522   0.630  14.658  1.4692 -0.3925 -1.8337
  190DOPC  C31023494   2.516   0.466  14.796 -0.0569 -0.0272 -0.2050
  190DOPC  H10X23495   2.566   0.522  14.877  0.2193  0.5683 -0.7763
  190DOPC  C31123496   2.484   0.321  14.820  0.4659  0.4566  0.1815
  190DOPC  H11X23497   2.465   0.260  14.729 -0.9321 -0.2207  0.9118
  190DOPC  H11Y23498   2.389   0.310  14.876  1.4161  0.0112  1.7757
  190DOPC  C31223499   2.593   0.248  14.907 -0.3803  0.3067 -0.3402
  190DOPC  H12X23500   2.695   0.250  14.863 -0.2687 -1.2447 -0.2069
  190DOPC  H12Y23501   2.558   0.143  14.907 -1.4507  0.6497  0.2849
  190DOPC  C31323502   2.599   0.284  15.058 -0.1835 -0.0637 -0.2597
  190DOPC  H13X23503   2.680   0.226  15.107 -1.6326 -1.6206  0.4170
  190DOPC  H13Y23504   2.610   0.392  15.081 -0.0569  0.2842 -1.8475
  190DOPC  C31423505   2.463   0.246  15.138  0.2412 -0.6715 -0.1080
  190DOPC  H14X23506   2.388   0.309  15.086 -0.2811  0.2986  1.7431
  190DOPC  H14Y23507   2.449   0.137  15.119  1.2062 -0.4512 -2.4052
  190DOPC  C31523508   2.458   0.281  15.286 -0.4940 -0.2745 -0.7434
  190DOPC  H15X23509   2.443   0.390  15.295 -1.7694 -0.5680  1.0428
  190DOPC  H15Y23510   2.552   0.247  15.335 -1.5124 -1.5758  0.3941
  190DOPC  C31623511   2.333   0.212  15.354 -0.9231  0.1390  0.0383
  190DOPC  H16X23512   2.341   0.102  15.352 -2.3498  0.0207 -0.2616
  190DOPC  H16Y23513   2.348   0.253  15.456  2.3795  0.8083 -0.5863
  190DOPC  C31723514   2.195   0.248  15.307  0.1245 -0.9415  0.1455
  190DOPC  H17X23515   2.180   0.358  15.296  1.8920 -0.4623  1.8994
  190DOPC  H17Y23516   2.163   0.208  15.209  0.2209 -0.6574 -0.0007
  190DOPC  C31823517   2.093   0.190  15.404 -0.3669 -0.4062 -0.2769
  190DOPC  H18X23518   1.989   0.194  15.365 -0.6174 -0.2255  0.4079
  190DOPC  H18Y23519   2.123   0.089  15.438 -1.0290 -1.1010 -1.6667
  190DOPC  H18Z23520   2.099   0.253  15.495 -0.9464 -0.1154 -0.4306
  191DOPC     N23521   4.094   0.182  13.477  0.2838 -0.2185  0.0874
  191DOPC   C1223522   4.000   0.193  13.595  0.1435 -0.1377 -0.2630
  191DOPC  H12A23523   3.906   0.240  13.570 -0.7302 -1.5644  0.2128
  191DOPC  H12B23524   4.048   0.262  13.663 -1.1271  0.8745 -0.3448
  191DOPC   C1323525   4.235   0.157  13.518 -0.5645  0.3954 -0.8167
  191DOPC  H13A23526   4.281   0.230  13.583  1.0077 -1.8490  0.7476
  191DOPC  H13B23527   4.253   0.061  13.565  1.5828  0.0267 -2.2387
  191DOPC  H13C23528   4.298   0.147  13.431  3.6236  1.2464  1.8521
  191DOPC   C1423529   4.083   0.313  13.408 -0.3594 -0.1426 -0.5633
  191DOPC  H14A23530   3.982   0.335  13.376 -0.8500  0.6310  1.3953
  191DOPC  H14B23531   4.089   0.387  13.486 -1.8102 -0.8525  0.2715
  191DOPC  H14C23532   4.150   0.310  13.323 -0.3193 -2.9455 -0.5480
  191DOPC   C1523533   4.050   0.068  13.384  0.5557  0.2883  0.6954
  191DOPC  H15A23534   4.061  -0.016  13.451  0.3477  1.4052  2.1923
  191DOPC  H15B23535   4.093   0.074  13.285 -1.2186  1.1431 -0.0711
  191DOPC  H15C23536   3.943   0.056  13.379  0.6257 -0.4613  0.8600
  191DOPC   C1123537   3.964   0.058  13.669  0.9734 -0.0740 -0.6582
  191DOPC  H11A23538   4.057   0.005  13.699 -0.3784 -0.6603  2.9376
  191DOPC  H11B23539   3.909   0.084  13.762  0.2674 -0.8046 -0.8579
  191DOPC     P23540   3.723  -0.034  13.607 -0.1654  0.0045  0.0259
  191DOPC   O1323541   3.673  -0.134  13.509  0.1876  1.1281  0.0956
  191DOPC   O1423542   3.666   0.100  13.607 -0.3317 -0.8882 -0.0313
  191DOPC   O1223543   3.888  -0.031  13.589 -0.2021 -0.8012 -0.8907
  191DOPC   O1123544   3.700  -0.106  13.748  0.4014  0.1087  0.0071
  191DOPC    C123545   3.568  -0.074  13.800  0.3887 -0.0798 -0.2328
  191DOPC    HA23546   3.493  -0.102  13.722  1.5401 -0.8373 -1.1035
  191DOPC    HB23547   3.560   0.034  13.825 -1.0358 -0.3360  0.5616
  191DOPC    C223548   3.546  -0.161  13.931  0.4887 -0.1072  0.0285
  191DOPC    HS23549   3.442  -0.130  13.954 -0.5900 -1.2249 -2.8819
  191DOPC   O2123550   3.649  -0.133  14.029 -0.5196 -0.4195  0.2287
  191DOPC   C2123551   3.631  -0.019  14.091  0.0729 -0.0071 -0.6205
  191DOPC   O2223552   3.530   0.057  14.078  0.5397  0.7491  0.2634
  191DOPC   C2223553   3.754   0.010  14.171 -0.1492  0.3063 -0.2164
  191DOPC   H2R23554   3.813   0.074  14.102 -0.1674  0.4337 -0.1135
  191DOPC   H2S23555   3.811  -0.082  14.196  1.5148  1.4125  0.2505
  191DOPC    C323556   3.539  -0.308  13.881 -0.5892 -0.0233 -0.0545
  191DOPC    HX23557   3.537  -0.363  13.978  0.0647  1.5515  0.8942
  191DOPC    HY23558   3.635  -0.314  13.826 -0.3688  0.7628  0.2286
  191DOPC   O3123559   3.416  -0.330  13.807 -0.0713  0.0057 -0.4667
  191DOPC   C3123560   3.408  -0.465  13.773 -0.2108 -0.5346 -0.1651
  191DOPC   O3223561   3.503  -0.537  13.768  0.1929  0.4623 -0.3878
  191DOPC   C3223562   3.262  -0.490  13.753  0.3578 -0.7019 -0.2234
  191DOPC   H2X23563   3.202  -0.431  13.825  1.8182  0.5193  0.0640
  191DOPC   H2Y23564   3.234  -0.453  13.652  1.3187  1.7106  0.3074
  191DOPC   C2323565   3.730   0.083  14.312 -0.0373 -0.3497 -0.1604
  191DOPC   H3R23566   3.666   0.172  14.299  0.9008  0.6253  1.5032
  191DOPC   H3S23567   3.825   0.135  14.338  0.7677 -0.9600 -1.7144
  191DOPC   C2423568   3.717  -0.021  14.431  0.3300 -0.2438 -0.0768
  191DOPC   H4R23569   3.798  -0.096  14.428 -1.0852 -1.8885  0.6868
  191DOPC   H4S23570   3.622  -0.077  14.416 -1.2534  2.0088  0.9996
  191DOPC   C2523571   3.701   0.044  14.573  0.1018  0.2207 -0.6487
  191DOPC   H5R23572   3.706  -0.042  14.642  0.4160  0.8261  0.1017
  191DOPC   H5S23573   3.600   0.087  14.586  0.4723  0.6638  0.9426
  191DOPC   C2623574   3.817   0.138  14.614  0.0268  0.5049 -1.0013
  191DOPC   H6R23575   3.802   0.229  14.554 -2.1718 -0.2751 -1.7514
  191DOPC   H6S23576   3.919   0.098  14.596  0.7936  1.8569  0.1495
  191DOPC   C2723577   3.801   0.165  14.771  0.1806  0.1372  0.3082
  191DOPC   H7R23578   3.806   0.070  14.827  0.2648 -0.3450 -0.5030
  191DOPC   H7S23579   3.695   0.197  14.782 -0.2447 -1.2802  0.4563
  191DOPC   C2823580   3.898   0.258  14.832 -0.2494  0.3347 -0.7143
  191DOPC   H8R23581   4.001   0.216  14.843  0.3990  1.6659 -1.4023
  191DOPC   H8S23582   3.863   0.286  14.934 -1.1388 -2.3743 -0.1919
  191DOPC   C2923583   3.920   0.394  14.770  0.1926  0.1934 -0.5801
  191DOPC   H9R23584   3.953   0.381  14.666  0.5839 -2.5906 -0.1791
  191DOPC  C21023585   3.925   0.516  14.825 -0.1150  0.0790  0.3640
  191DOPC  H10R23586   3.939   0.599  14.754  1.8377 -2.1539 -2.0440
  191DOPC  C21123587   3.889   0.548  14.967  0.5017 -0.3450 -0.0350
  191DOPC  H11R23588   3.974   0.608  15.008  0.0327  0.9801 -0.9235
  191DOPC  H11S23589   3.879   0.461  15.035  1.2297  0.1106  0.6797
  191DOPC  C21223590   3.765   0.639  14.981  0.4656  0.4108 -0.0849
  191DOPC  H12R23591   3.754   0.719  14.904  2.2160  0.9879  0.2341
  191DOPC  H12S23592   3.784   0.695  15.075 -1.2321  1.0255 -0.0691
  191DOPC  C21323593   3.632   0.556  14.994 -0.1786 -0.6839 -0.0603
  191DOPC  H13R23594   3.651   0.490  15.081  3.4967  0.1720 -0.0567
  191DOPC  H13S23595   3.630   0.482  14.911 -0.7220 -0.6430 -0.0910
  191DOPC  C21423596   3.507   0.644  15.016 -0.1654 -0.2463 -0.0451
  191DOPC  H14R23597   3.430   0.564  15.026 -1.8164  1.4223  1.1631
  191DOPC  H14S23598   3.487   0.710  14.929  0.8303  0.7695  0.4757
  191DOPC  C21523599   3.502   0.724  15.143 -1.0039  0.3552  0.4039
  191DOPC  H15R23600   3.581   0.803  15.139  0.7310 -1.3233 -0.4325
  191DOPC  H15S23601   3.542   0.667  15.229  0.1704  1.2588  0.4851
  191DOPC  C21623602   3.371   0.787  15.182 -0.5173  0.2409 -0.0585
  191DOPC  H16R23603   3.394   0.825  15.284 -1.1370  1.6455 -0.4199
  191DOPC  H16S23604   3.298   0.703  15.189  2.0347 -2.2241 -1.3029
  191DOPC  C21723605   3.314   0.899  15.089  1.2122 -0.7495 -0.7455
  191DOPC  H17R23606   3.266   0.846  15.004 -0.0410  0.3589 -0.7513
  191DOPC  H17S23607   3.402   0.949  15.044  1.0021 -0.1754 -0.5238
  191DOPC  C21823608   3.215   0.995  15.158 -1.0117  0.2943  0.0911
  191DOPC  H18R23609   3.181   1.071  15.084 -1.4660  0.4552  0.4633
  191DOPC  H18S23610   3.269   1.050  15.238  2.1655 -2.0472 -0.2418
  191DOPC  H18T23611   3.145   0.927  15.211  0.0242  0.3125  1.5343
  191DOPC   C3323612   3.212  -0.636  13.766 -0.3110 -0.2165 -0.2616
  191DOPC   H3X23613   3.248  -0.676  13.863  2.1303  2.8642  0.2697
  191DOPC   H3Y23614   3.258  -0.698  13.687 -1.3099 -0.8896 -0.3368
  191DOPC   C3423615   3.068  -0.654  13.758  0.4502 -0.3544  0.5189
  191DOPC   H4X23616   3.044  -0.622  13.655  1.9044  0.2933  0.3585
  191DOPC   H4Y23617   3.014  -0.590  13.832 -1.5629 -1.3709  0.0012
  191DOPC   C3523618   3.031  -0.804  13.766  0.4271 -0.5379 -0.4505
  191DOPC   H5X23619   3.063  -0.856  13.859  0.2658 -0.6679 -0.4659
  191DOPC   H5Y23620   3.094  -0.852  13.688  0.5214 -0.6084 -0.3306
  191DOPC   C3623621   2.882  -0.835  13.737 -0.1830  0.1043 -1.0606
  191DOPC   H6X23622   2.815  -0.822  13.825 -0.1324 -1.4877 -0.7523
  191DOPC   H6Y23623   2.851  -0.765  13.657  0.7627  2.1554  0.2654
  191DOPC   C3723624   2.867  -0.985  13.714  0.0867  0.0232 -0.3769
  191DOPC   H7X23625   2.966  -1.008  13.670 -0.1276  0.4151 -1.0754
  191DOPC   H7Y23626   2.875  -1.042  13.809 -2.5620  0.0795 -0.0537
  191DOPC   C3823627   2.742  -1.025  13.628 -0.5664 -0.6435 -0.2885
  191DOPC   H8X23628   2.755  -1.127  13.584  0.6006 -0.9538  0.7181
  191DOPC   H8Y23629   2.732  -0.952  13.546 -0.7714  1.1118  1.2372
  191DOPC   C3923630   2.616  -1.017  13.707  0.7319  0.4093  0.0145
  191DOPC   H9X23631   2.616  -0.930  13.774  3.4815  0.2100  0.3949
  191DOPC  C31023632   2.508  -1.100  13.719 -0.4057  0.0067  0.0059
  191DOPC  H10X23633   2.425  -1.070  13.785 -0.2293 -0.3881  0.4077
  191DOPC  C31123634   2.493  -1.231  13.647 -0.0382  0.5989 -0.0992
  191DOPC  H11X23635   2.570  -1.247  13.568  0.2607  3.9502 -0.6153
  191DOPC  H11Y23636   2.397  -1.223  13.591 -0.0197  1.7272  0.0107
  191DOPC  C31223637   2.493  -1.352  13.746 -0.1035 -0.0951  0.0343
  191DOPC  H12X23638   2.446  -1.437  13.691  1.2846 -2.1455  1.8316
  191DOPC  H12Y23639   2.426  -1.334  13.834  0.2520 -0.7711  0.4563
  191DOPC  C31323640   2.627  -1.394  13.809 -0.0694 -0.1114  0.5495
  191DOPC  H13X23641   2.675  -1.443  13.722  0.3112  0.4722  0.4214
  191DOPC  H13Y23642   2.671  -1.295  13.834 -0.0503 -0.2863  1.2220
  191DOPC  C31423643   2.611  -1.484  13.928  0.3359 -0.3474  0.6952
  191DOPC  H14X23644   2.560  -1.446  14.019 -1.6312  0.0272 -0.5014
  191DOPC  H14Y23645   2.553  -1.573  13.895 -0.0721 -0.0872  0.7009
  191DOPC  C31523646   2.748  -1.543  13.959  0.2205 -0.1016 -0.1261
  191DOPC  H15X23647   2.820  -1.459  13.967 -1.4517  1.2803  0.9442
  191DOPC  H15Y23648   2.784  -1.605  13.874  0.2561 -0.6905  0.3068
  191DOPC  C31623649   2.735  -1.626  14.086 -0.0578  0.4570 -0.6346
  191DOPC  H16X23650   2.679  -1.578  14.169  0.1819  1.0037 -0.7829
  191DOPC  H16Y23651   2.679  -1.717  14.056  1.7729 -0.9180 -0.0660
  191DOPC  C31723652   2.884  -1.658  14.129  0.5702  0.0986 -0.0575
  191DOPC  H17X23653   2.917  -1.726  14.048 -0.5939  0.4047 -0.8160
  191DOPC  H17Y23654   2.948  -1.567  14.117  1.5248 -0.3402  1.4792
  191DOPC  C31823655   2.893  -1.721  14.270  0.5467 -0.0718 -0.2053
  191DOPC  H18X23656   2.881  -1.645  14.350 -0.3669  0.5716 -0.9309
  191DOPC  H18Y23657   2.819  -1.803  14.282  0.9890 -0.5084 -0.4123
  191DOPC  H18Z23658   2.992  -1.768  14.287 -0.0008 -1.0287  0.4002
  192DOPC     N23659   7.741   7.492  13.697  0.0173 -0.5945  0.4393
  192DOPC   C1223660   7.727   7.534  13.549  0.2939  0.4442 -0.5872
  192DOPC  H12A23661   7.793   7.470  13.493  1.2951  0.5111  0.4723
  192DOPC  H12B23662   7.758   7.637  13.558 -2.5144  1.3241  0.0617
  192DOPC   C1323663   7.663   7.380  13.730  0.6013  0.0847  0.1444
  192DOPC  H13A23664   7.654   7.310  13.648 -1.5387  0.6657 -0.2058
  192DOPC  H13B23665   7.697   7.333  13.820 -1.3233 -0.4691  0.6392
  192DOPC  H13C23666   7.563   7.414  13.755  0.9333  0.0751  1.5273
  192DOPC   C1423667   7.696   7.605  13.789 -0.1946  0.4958 -0.3049
  192DOPC  H14A23668   7.678   7.567  13.888  0.7266 -0.4929 -0.5023
  192DOPC  H14B23669   7.754   7.696  13.788  0.2045  0.2813  1.0384
  192DOPC  H14C23670   7.595   7.628  13.759 -0.3991  0.8278  0.6290
  192DOPC   C1523671   7.884   7.468  13.727  0.7705  0.8905  0.6973
  192DOPC  H15A23672   7.901   7.440  13.830  1.4742 -1.5620 -0.0068
  192DOPC  H15B23673   7.940   7.554  13.695 -0.0482  1.8250  1.7138
  192DOPC  H15C23674   7.928   7.382  13.680  0.5678  0.4248  1.3375
  192DOPC   C1123675   7.584   7.534  13.484 -0.0698 -0.7641 -0.2135
  192DOPC  H11A23676   7.603   7.565  13.380 -1.4798  1.7925  0.1966
  192DOPC  H11B23677   7.546   7.430  13.495  1.3176 -1.1479  1.4649
  192DOPC     P23678   7.348   7.624  13.584 -0.1748  0.5056  0.1482
  192DOPC   O1323679   7.272   7.548  13.480  0.1425  0.0106 -0.2221
  192DOPC   O1423680   7.294   7.755  13.625  0.0044  0.5549 -0.2815
  192DOPC   O1223681   7.500   7.645  13.531  0.4152 -0.1475  0.1078
  192DOPC   O1123682   7.373   7.537  13.710 -0.2777 -0.0361  0.0853
  192DOPC    C123683   7.314   7.408  13.739 -0.3684 -0.1569  0.4582
  192DOPC    HA23684   7.368   7.357  13.821 -0.3834  0.5019  0.8795
  192DOPC    HB23685   7.318   7.350  13.644  1.4131 -1.7324  1.4302
  192DOPC    C223686   7.166   7.426  13.784 -0.2691 -0.9862  0.5639
  192DOPC    HS23687   7.106   7.489  13.715  0.0039  1.9750  2.8135
  192DOPC   O2123688   7.171   7.482  13.922  0.4116 -0.4209 -0.5204
  192DOPC   C2123689   7.052   7.526  13.958  0.0230  0.8869 -0.2287
  192DOPC   O2223690   6.955   7.539  13.886  0.0884 -0.6385 -0.0733
  192DOPC   C2223691   7.046   7.540  14.110 -0.0297  0.3882 -0.1555
  192DOPC   H2R23692   7.105   7.459  14.158 -1.1478 -1.7976 -2.2147
  192DOPC   H2S23693   6.940   7.513  14.128 -0.1917  0.4329 -0.9775
  192DOPC    C323694   7.095   7.281  13.787 -0.3846  0.1515  0.7112
  192DOPC    HX23695   7.100   7.231  13.688 -1.7689  1.5579 -0.1304
  192DOPC    HY23696   6.987   7.300  13.807 -0.0857  0.8133  1.7975
  192DOPC   O3123697   7.153   7.187  13.881  0.5324  0.0705  0.5369
  192DOPC   C3123698   7.084   7.174  13.994  0.0427 -0.0046  0.2803
  192DOPC   O3223699   6.966   7.210  14.014 -0.2732 -0.0558  0.2720
  192DOPC   C3223700   7.169   7.108  14.107  0.2452  0.0339 -0.0803
  192DOPC   H2X23701   7.109   7.116  14.200  0.0092  3.6007 -0.3998
  192DOPC   H2Y23702   7.203   7.006  14.081 -0.9850 -0.7923  1.4082
  192DOPC   C2323703   7.080   7.672  14.161  0.0812  0.5623  0.1454
  192DOPC   H3R23704   7.027   7.756  14.111  2.4579  2.0677  0.0345
  192DOPC   H3S23705   7.188   7.697  14.152 -0.4338  2.3514 -2.2949
  192DOPC   C2423706   7.059   7.686  14.312 -0.1988  0.4635  0.1067
  192DOPC   H4R23707   7.107   7.593  14.350 -2.2711 -0.4191  0.7438
  192DOPC   H4S23708   6.951   7.675  14.338 -0.1349 -0.1926  0.1308
  192DOPC   C2523709   7.109   7.817  14.374  0.3640 -0.6245 -0.1101
  192DOPC   H5R23710   7.059   7.897  14.314 -0.5235  1.6974  3.4182
  192DOPC   H5S23711   7.219   7.813  14.354  0.8972  0.5449  2.2038
  192DOPC   C2623712   7.081   7.828  14.515 -0.4956  0.4122  0.8849
  192DOPC   H6R23713   7.122   7.738  14.565 -1.1817  0.0823  0.8627
  192DOPC   H6S23714   6.971   7.834  14.528 -1.0050 -2.9624 -0.7142
  192DOPC   C2723715   7.133   7.960  14.578 -0.3950  0.5360 -0.6918
  192DOPC   H7R23716   7.089   8.053  14.534 -0.7420  0.0276 -1.4315
  192DOPC   H7S23717   7.241   7.958  14.552 -0.3394 -3.5237 -0.6463
  192DOPC   C2823718   7.133   7.962  14.728  0.1459  0.1019  0.4883
  192DOPC   H8R23719   7.220   8.030  14.742 -0.3765  0.8868 -0.0165
  192DOPC   H8S23720   7.147   7.859  14.768 -3.1988 -0.0712  1.5366
  192DOPC   C2923721   6.998   8.016  14.767  0.0899 -0.1220 -0.4520
  192DOPC   H9R23722   6.972   8.123  14.760  0.3122 -0.1284 -1.6723
  192DOPC  C21023723   6.900   7.942  14.817 -0.0668  0.0012  0.2242
  192DOPC  H10R23724   6.803   7.987  14.842 -0.5063  0.0758 -1.4802
  192DOPC  C21123725   6.891   7.787  14.831  0.0701 -0.7276  0.0283
  192DOPC  H11R23726   6.964   7.732  14.767  0.0916 -1.1566  0.4181
  192DOPC  H11S23727   6.789   7.756  14.799 -0.0834  0.6210 -0.8545
  192DOPC  C21223728   6.897   7.734  14.974 -0.5034  0.6066 -0.7746
  192DOPC  H12R23729   6.900   7.623  14.982 -1.5791  0.6435  0.3694
  192DOPC  H12S23730   6.800   7.753  15.023 -0.7307  0.5391 -1.1988
  192DOPC  C21323731   7.007   7.806  15.059 -0.2424 -0.0261  0.0133
  192DOPC  H13R23732   6.984   7.914  15.067 -1.2676 -0.1310 -1.1729
  192DOPC  H13S23733   7.106   7.790  15.010  0.1144 -0.1604  0.7622
  192DOPC  C21423734   7.019   7.764  15.210 -0.2352 -0.2582  0.5691
  192DOPC  H14R23735   7.104   7.824  15.249  0.9268 -1.0271 -0.6714
  192DOPC  H14S23736   7.058   7.660  15.218  1.4103  0.1581 -1.3258
  192DOPC  C21523737   6.891   7.778  15.288 -0.5787  0.4464 -0.4776
  192DOPC  H15R23738   6.827   7.687  15.275  1.4049 -1.0149 -0.4443
  192DOPC  H15S23739   6.827   7.861  15.251  0.1870  1.6800  0.8603
  192DOPC  C21623740   6.904   7.793  15.440 -0.9052  0.9319 -0.4534
  192DOPC  H16R23741   6.964   7.886  15.449 -0.9696  0.9823 -0.5515
  192DOPC  H16S23742   6.955   7.699  15.471 -2.6017 -0.9568 -2.9479
  192DOPC  C21723743   6.766   7.795  15.512  0.2939  0.5025  0.5674
  192DOPC  H17R23744   6.715   7.700  15.486 -1.7855  0.4080  4.2422
  192DOPC  H17S23745   6.706   7.880  15.472  2.2201  2.2907  1.2818
  192DOPC  C21823746   6.769   7.813  15.664  0.1665 -0.1966  0.3142
  192DOPC  H18R23747   6.668   7.814  15.710  1.0007  0.8145  2.2052
  192DOPC  H18S23748   6.814   7.913  15.680 -0.8141  0.3884 -0.4294
  192DOPC  H18T23749   6.829   7.729  15.705  0.0038 -1.2755 -1.5442
  192DOPC   C3323750   7.293   7.190  14.139  0.1305  0.6264 -0.6126
  192DOPC   H3X23751   7.281   7.301  14.137  1.9048  0.8501 -0.4611
  192DOPC   H3Y23752   7.382   7.172  14.075  2.0372  4.5397  0.5601
  192DOPC   C3423753   7.341   7.164  14.284  0.3365 -1.0262  0.4770
  192DOPC   H4X23754   7.452   7.161  14.276  0.4649  1.2641  0.7171
  192DOPC   H4Y23755   7.299   7.065  14.309 -1.2578 -0.2531  1.0099
  192DOPC   C3523756   7.304   7.257  14.399 -0.1581 -0.3117  0.0504
  192DOPC   H5X23757   7.292   7.188  14.486 -0.6644 -1.4030 -0.8612
  192DOPC   H5Y23758   7.201   7.298  14.390 -1.8073 -3.6997  1.7108
  192DOPC   C3623759   7.397   7.376  14.430 -0.3826 -0.4472  0.4880
  192DOPC   H6X23760   7.346   7.447  14.499 -0.2204  0.8689 -0.7150
  192DOPC   H6Y23761   7.486   7.341  14.487  0.2373 -0.2474 -0.3507
  192DOPC   C3723762   7.439   7.458  14.308  0.4508 -0.1607 -0.3886
  192DOPC   H7X23763   7.495   7.393  14.237  0.2924  0.1619 -0.8121
  192DOPC   H7Y23764   7.353   7.501  14.253  0.5240 -1.7621 -1.8226
  192DOPC   C3823765   7.527   7.581  14.367  0.3612  0.2353  0.1382
  192DOPC   H8X23766   7.471   7.632  14.449  0.4211  0.1549  0.2298
  192DOPC   H8Y23767   7.547   7.661  14.293  1.3998 -0.6596 -0.5746
  192DOPC   C3923768   7.655   7.523  14.409  0.2390 -0.2396 -0.1803
  192DOPC   H9X23769   7.688   7.436  14.350 -1.3052 -0.8279 -0.2287
  192DOPC  C31023770   7.712   7.542  14.526 -0.1027  0.0696  0.3873
  192DOPC  H10X23771   7.811   7.499  14.547  0.6723  2.3822  1.8281
  192DOPC  C31123772   7.657   7.645  14.623 -0.0759 -0.2444 -0.0517
  192DOPC  H11X23773   7.617   7.734  14.570 -1.2911  1.2650  3.1405
  192DOPC  H11Y23774   7.746   7.681  14.678 -0.4639  1.6140 -0.5836
  192DOPC  C31223775   7.558   7.590  14.733  0.2511  0.8051 -0.4158
  192DOPC  H12X23776   7.616   7.512  14.785  0.6842  0.5206 -1.3002
  192DOPC  H12Y23777   7.471   7.546  14.680  0.7850 -0.3078 -0.4031
  192DOPC  C31323778   7.513   7.693  14.829  0.2005 -0.1397 -0.4205
  192DOPC  H13X23779   7.599   7.755  14.862 -0.3929 -0.5591  2.1088
  192DOPC  H13Y23780   7.444   7.755  14.768 -0.4126 -0.3498  0.0431
  192DOPC  C31423781   7.423   7.645  14.947  0.3209 -0.0736 -0.2544
  192DOPC  H14X23782   7.348   7.568  14.918 -0.4465  1.5350 -2.8282
  192DOPC  H14Y23783   7.489   7.593  15.020 -0.3746  0.6410  0.9302
  192DOPC  C31523784   7.368   7.768  15.019 -0.4396  0.3066 -0.2980
  192DOPC  H15X23785   7.302   7.714  15.090 -1.0332  0.6914 -0.5520
  192DOPC  H15Y23786   7.324   7.826  14.934  0.5103 -2.5541 -2.9372
  192DOPC  C31623787   7.472   7.847  15.094 -0.1982  0.3525  0.1245
  192DOPC  H16X23788   7.544   7.781  15.148  0.7870  2.5013  1.5751
  192DOPC  H16Y23789   7.526   7.911  15.021  1.6488 -1.4691 -0.2081
  192DOPC  C31723790   7.414   7.942  15.195  0.6342  0.0705 -0.8848
  192DOPC  H17X23791   7.348   7.887  15.266  0.3030  0.0937 -1.1740
  192DOPC  H17Y23792   7.499   7.976  15.258 -0.0650  0.9803 -0.4025
  192DOPC  C31823793   7.348   8.070  15.138  0.0396  0.0762  0.2034
  192DOPC  H18X23794   7.291   8.125  15.216  0.8833 -0.9481  1.5934
  192DOPC  H18Y23795   7.425   8.135  15.092 -0.7998 -0.0710 -1.4946
  192DOPC  H18Z23796   7.281   8.045  15.053  3.3314 -1.7618 -2.0578
  193DOPC     N23797   7.484   2.464  12.894 -0.3307 -0.1031  0.0597
  193DOPC   C1223798   7.406   2.335  12.862  0.4755 -0.1349  0.4495
  193DOPC  H12A23799   7.377   2.337  12.758  0.7873 -3.0494  0.2274
  193DOPC  H12B23800   7.310   2.337  12.911  0.3168 -0.6813  0.1715
  193DOPC   C1323801   7.408   2.581  12.838  0.4139  0.5272 -0.2390
  193DOPC  H13A23802   7.463   2.671  12.858  1.4446 -0.2448  0.5107
  193DOPC  H13B23803   7.402   2.575  12.730 -0.4821  0.0210 -0.1770
  193DOPC  H13C23804   7.302   2.583  12.860  0.3035 -2.8666  0.0890
  193DOPC   C1423805   7.618   2.460  12.821 -0.0118 -0.9232 -0.2618
  193DOPC  H14A23806   7.648   2.357  12.812  2.6730 -0.2857  0.5170
  193DOPC  H14B23807   7.616   2.491  12.717  0.1563  0.1375  0.0368
  193DOPC  H14C23808   7.680   2.525  12.880 -0.9753  1.3365 -1.5934
  193DOPC   C1523809   7.491   2.475  13.042 -0.9808 -0.1345 -0.6853
  193DOPC  H15A23810   7.394   2.463  13.089 -0.5573  1.7260  0.7772
  193DOPC  H15B23811   7.526   2.571  13.077 -0.7068  0.0038 -1.3263
  193DOPC  H15C23812   7.544   2.391  13.084 -1.1478  0.5209  0.9022
  193DOPC   C1123813   7.444   2.187  12.895 -0.2205  0.3369  0.3062
  193DOPC  H11A23814   7.363   2.113  12.881  0.6535 -0.5974  0.0720
  193DOPC  H11B23815   7.515   2.148  12.819 -2.7329 -1.5890 -1.2130
  193DOPC     P23816   7.519   2.039  13.099  0.3475  0.1585 -0.2376
  193DOPC   O1323817   7.592   2.071  13.221 -0.6214 -0.1750  0.2819
  193DOPC   O1423818   7.580   1.944  13.008 -0.0402  0.3348 -0.1218
  193DOPC   O1223819   7.493   2.177  13.023  0.1290 -0.0065 -0.0289
  193DOPC   O1123820   7.372   1.981  13.131  0.0441 -0.4766  0.0845
  193DOPC    C123821   7.258   2.061  13.154 -0.4266 -0.7845 -0.1843
  193DOPC    HA23822   7.172   1.990  13.154 -0.9933 -0.1036 -0.0749
  193DOPC    HB23823   7.240   2.129  13.068  3.5898  1.5999  0.6161
  193DOPC    C223824   7.251   2.121  13.302  0.0826 -0.1401  0.1691
  193DOPC    HS23825   7.335   2.192  13.319 -0.9929  1.0489  0.6232
  193DOPC   O2123826   7.254   2.015  13.399 -0.7543 -0.0374 -0.4911
  193DOPC   C2123827   7.334   2.026  13.509  0.0237 -0.1719  0.0664
  193DOPC   O2223828   7.407   2.118  13.538 -0.1598 -0.1866 -0.1107
  193DOPC   C2223829   7.298   1.917  13.604  0.1959 -0.5985 -0.9094
  193DOPC   H2R23830   7.397   1.904  13.652 -0.0341  0.6146 -0.0463
  193DOPC   H2S23831   7.274   1.839  13.529  2.4777 -1.6905 -0.6042
  193DOPC    C323832   7.124   2.208  13.326 -0.2790  0.6628  0.6700
  193DOPC    HX23833   7.048   2.127  13.316  0.8150 -0.4247  0.9973
  193DOPC    HY23834   7.117   2.284  13.245  0.6695 -1.0390 -1.1155
  193DOPC   O3123835   7.112   2.267  13.460 -0.1177  0.2023 -0.3318
  193DOPC   C3123836   7.200   2.372  13.486  0.0441 -0.1251  0.1958
  193DOPC   O3223837   7.281   2.418  13.409 -0.6144 -0.5979 -0.0683
  193DOPC   C3223838   7.174   2.413  13.631  0.3343  0.0532  0.2994
  193DOPC   H2X23839   7.154   2.325  13.696 -0.8365  0.3711  0.3950
  193DOPC   H2Y23840   7.269   2.459  13.667 -1.0221  2.3619  1.1849
  193DOPC   C2323841   7.181   1.969  13.693  0.0891  0.4784 -0.0539
  193DOPC   H3R23842   7.092   1.954  13.630  1.2069  0.2817 -1.6438
  193DOPC   H3S23843   7.191   2.076  13.722  1.9809  0.2946  0.1268
  193DOPC   C2423844   7.168   1.887  13.828 -0.0969 -0.1745  0.4339
  193DOPC   H4R23845   7.107   1.933  13.909  0.0747  0.1344  0.3873
  193DOPC   H4S23846   7.272   1.874  13.863 -0.1896  0.8574  1.1501
  193DOPC   C2523847   7.098   1.747  13.812 -0.8230 -0.7783  0.3984
  193DOPC   H5R23848   7.075   1.727  13.706  0.4406  1.5292 -0.3793
  193DOPC   H5S23849   7.002   1.743  13.868 -0.7666  1.0990  0.6908
  193DOPC   C2623850   7.173   1.624  13.870 -0.6206  0.0347 -0.0045
  193DOPC   H6R23851   7.205   1.645  13.975 -0.1260 -0.3440 -0.0739
  193DOPC   H6S23852   7.268   1.616  13.812 -0.3676 -2.0461  0.6194
  193DOPC   C2723853   7.102   1.496  13.843  0.2516 -0.5983  0.4053
  193DOPC   H7R23854   7.064   1.507  13.739  1.0104 -0.3150  0.1536
  193DOPC   H7S23855   7.009   1.493  13.905  0.9650  1.0434  1.6309
  193DOPC   C2823856   7.179   1.360  13.840 -0.0089 -0.5601 -0.4065
  193DOPC   H8R23857   7.261   1.373  13.767  2.2515 -0.7799  1.9351
  193DOPC   H8S23858   7.114   1.275  13.810  1.5109 -1.0086 -2.6664
  193DOPC   C2923859   7.244   1.331  13.974  0.0746  0.3065 -0.0632
  193DOPC   H9R23860   7.354   1.341  13.977  0.7390 -4.3185 -1.3205
  193DOPC  C21023861   7.181   1.294  14.083  0.1253 -0.4790 -0.5320
  193DOPC  H10R23862   7.241   1.275  14.173 -0.0248 -0.1346 -0.3615
  193DOPC  C21123863   7.033   1.280  14.107 -0.7577 -0.0145  0.5035
  193DOPC  H11R23864   7.009   1.191  14.170 -0.7544 -0.0631  0.4359
  193DOPC  H11S23865   6.978   1.264  14.011  2.4406 -1.3545 -1.2446
  193DOPC  C21223866   6.969   1.405  14.182  0.1941  0.0522  0.6447
  193DOPC  H12R23867   6.977   1.497  14.120 -0.9363 -0.2906 -0.0389
  193DOPC  H12S23868   7.027   1.427  14.274 -0.1722  0.4811  0.7751
  193DOPC  C21323869   6.813   1.384  14.197 -0.9818  0.3141  0.3351
  193DOPC  H13R23870   6.782   1.456  14.276 -1.7121  1.8374 -1.2446
  193DOPC  H13S23871   6.794   1.281  14.232  1.5197  0.0659  1.1338
  193DOPC  C21423872   6.739   1.409  14.060 -0.7757 -0.4718  0.4453
  193DOPC  H14R23873   6.771   1.324  13.995 -0.8324 -0.2882  0.1741
  193DOPC  H14S23874   6.764   1.509  14.018 -1.9183 -0.2241  0.3109
  193DOPC  C21523875   6.586   1.397  14.066 -0.4172 -0.9974  0.0463
  193DOPC  H15R23876   6.553   1.303  14.115  1.3114 -0.9698  1.3738
  193DOPC  H15S23877   6.539   1.394  13.966 -1.9557 -0.7213  0.7421
  193DOPC  C21623878   6.514   1.509  14.150 -0.2928 -0.1556 -0.0798
  193DOPC  H16R23879   6.525   1.490  14.259 -3.7311  1.1892  0.6136
  193DOPC  H16S23880   6.406   1.507  14.124 -0.1613  2.0557 -1.0318
  193DOPC  C21723881   6.564   1.650  14.126 -0.6994 -0.7964  0.0999
  193DOPC  H17R23882   6.582   1.658  14.017  0.7301 -1.4204  0.2664
  193DOPC  H17S23883   6.657   1.669  14.183 -1.1160 -1.5148  1.0737
  193DOPC  C21823884   6.460   1.758  14.153  0.1793 -0.3178  0.0890
  193DOPC  H18R23885   6.432   1.753  14.260  3.4022 -0.9052  1.0291
  193DOPC  H18S23886   6.369   1.751  14.090  1.5559 -2.0394 -1.8693
  193DOPC  H18T23887   6.498   1.861  14.138 -0.7867  0.5065  2.8875
  193DOPC   C3323888   7.067   2.522  13.655  0.8718 -0.7341  0.5220
  193DOPC   H3X23889   7.025   2.511  13.757 -2.0946  1.5307 -0.2900
  193DOPC   H3Y23890   6.974   2.514  13.595  0.5550  2.2331  0.4755
  193DOPC   C3423891   7.115   2.667  13.631 -0.2208 -0.2716 -0.2571
  193DOPC   H4X23892   7.161   2.669  13.530  1.5494 -5.2544  0.1669
  193DOPC   H4Y23893   7.194   2.693  13.705 -1.5582  1.9280  0.5278
  193DOPC   C3523894   7.017   2.782  13.625  0.0051  0.1209  0.1693
  193DOPC   H5X23895   6.949   2.767  13.539 -1.6432 -1.0381  1.6171
  193DOPC   H5Y23896   7.094   2.861  13.610 -0.9098  1.1239  0.6436
  193DOPC   C3623897   6.941   2.801  13.758  1.1131 -0.6916 -0.2372
  193DOPC   H6X23898   6.863   2.722  13.761  0.2244  0.1916  0.9571
  193DOPC   H6Y23899   7.015   2.782  13.838  1.1466 -1.9515 -0.5428
  193DOPC   C3723900   6.867   2.936  13.750  0.4628 -0.0582  0.5186
  193DOPC   H7X23901   6.943   3.018  13.743  1.8475 -1.2838  0.6312
  193DOPC   H7Y23902   6.809   2.936  13.656 -0.5974  0.2498  1.1573
  193DOPC   C3823903   6.776   2.960  13.865  0.3003 -0.5843 -0.4746
  193DOPC   H8X23904   6.703   2.878  13.885 -1.4805  0.5387 -2.0286
  193DOPC   H8Y23905   6.719   3.052  13.839  2.1286  0.7789  0.0942
  193DOPC   C3923906   6.858   3.003  13.984 -0.0690  0.2922 -0.1347
  193DOPC   H9X23907   6.947   3.064  13.961  0.8820 -0.5023  1.2590
  193DOPC  C31023908   6.840   2.949  14.111  0.2876 -0.0130  0.4719
  193DOPC  H10X23909   6.905   2.992  14.188  0.0316  0.6031  0.3484
  193DOPC  C31123910   6.725   2.867  14.168  0.0723 -0.1132  0.5117
  193DOPC  H11X23911   6.642   2.859  14.094 -0.5162 -1.9369  1.3249
  193DOPC  H11Y23912   6.689   2.927  14.255  1.5691 -1.1093  1.8644
  193DOPC  C31223913   6.778   2.728  14.216  0.6776  0.4371 -0.0116
  193DOPC  H12X23914   6.694   2.678  14.270  0.9460  2.0974  2.0723
  193DOPC  H12Y23915   6.853   2.754  14.294  2.9141 -0.3413 -1.8124
  193DOPC  C31323916   6.840   2.636  14.116 -0.1340 -0.4380  1.0442
  193DOPC  H13X23917   6.919   2.698  14.068 -0.7475  1.0406  1.8808
  193DOPC  H13Y23918   6.891   2.554  14.171 -1.5115 -2.6071 -0.7011
  193DOPC  C31423919   6.734   2.570  14.018 -0.1821  0.0613 -0.5210
  193DOPC  H14X23920   6.659   2.513  14.077 -0.7469 -1.3203 -2.4517
  193DOPC  H14Y23921   6.677   2.640  13.953 -1.7629  0.9232  1.6745
  193DOPC  C31523922   6.794   2.454  13.934 -0.3422  0.9011 -0.0533
  193DOPC  H15X23923   6.843   2.381  14.002 -1.9804 -0.6720 -0.4756
  193DOPC  H15Y23924   6.876   2.492  13.870  0.6242 -1.8873 -0.5885
  193DOPC  C31623925   6.687   2.380  13.853  0.4785 -0.2994  0.2051
  193DOPC  H16X23926   6.620   2.324  13.921 -1.0658  1.3558  0.1095
  193DOPC  H16Y23927   6.628   2.454  13.795 -1.2381 -1.2714  0.6602
  193DOPC  C31723928   6.746   2.280  13.758  0.0153 -0.2691  0.3526
  193DOPC  H17X23929   6.659   2.253  13.694 -0.7670  2.2790  0.2492
  193DOPC  H17Y23930   6.809   2.341  13.689  1.0614 -0.0542  1.4698
  193DOPC  C31823931   6.828   2.163  13.815  0.7268 -0.3234  0.1118
  193DOPC  H18X23932   6.850   2.091  13.734 -3.2187 -0.4736 -1.0603
  193DOPC  H18Y23933   6.907   2.202  13.882 -1.7662  2.2984  1.7368
  193DOPC  H18Z23934   6.757   2.100  13.874 -2.7792 -0.0282 -3.3615
  194DOPC     N23935   1.854   1.177  13.410 -0.4526  0.8383  0.4455
  194DOPC   C1223936   1.849   1.032  13.371 -0.5716 -0.1801  0.4038
  194DOPC  H12A23937   1.921   0.985  13.437  1.3817  2.3302  0.1949
  194DOPC  H12B23938   1.902   1.023  13.278  0.0305 -2.0781  0.8704
  194DOPC   C1323939   1.798   1.257  13.299 -0.2464 -0.3468  0.0625
  194DOPC  H13A23940   1.864   1.254  13.213  0.5347  0.5265  0.6126
  194DOPC  H13B23941   1.699   1.221  13.275 -0.7653  1.2627 -0.3363
  194DOPC  H13C23942   1.799   1.359  13.335  0.1263 -0.3255 -0.0048
  194DOPC   C1423943   1.999   1.222  13.418 -0.2085  0.0673 -0.0058
  194DOPC  H14A23944   2.042   1.202  13.516  0.9236  0.5855 -0.3759
  194DOPC  H14B23945   2.059   1.181  13.338  2.2814  1.3596  1.0782
  194DOPC  H14C23946   1.996   1.330  13.417  0.2364  0.1015  0.9538
  194DOPC   C1523947   1.782   1.200  13.538 -0.8283 -0.6376 -0.2735
  194DOPC  H15A23948   1.675   1.185  13.538 -0.9956  0.4760 -0.5621
  194DOPC  H15B23949   1.791   1.306  13.553 -0.7654 -0.8162  1.1883
  194DOPC  H15C23950   1.832   1.156  13.624  1.4378 -0.8094 -1.6011
  194DOPC   C1123951   1.712   0.963  13.381 -0.7408  0.4077  0.0731
  194DOPC  H11A23952   1.728   0.860  13.342 -3.5564 -0.1661  0.2340
  194DOPC  H11B23953   1.698   0.948  13.490  1.4267 -0.2321  0.3220
  194DOPC     P23954   1.467   0.990  13.324  0.0491 -0.3013  0.3282
  194DOPC   O1323955   1.462   0.859  13.258  0.3000  0.6451 -0.5427
  194DOPC   O1423956   1.376   1.088  13.275 -0.1654  0.2065 -0.3603
  194DOPC   O1223957   1.612   1.038  13.308  0.0569  0.2616  0.9442
  194DOPC   O1123958   1.450   0.980  13.480  0.1244  0.6458  0.0088
  194DOPC    C123959   1.383   1.079  13.562  0.1416 -0.5324 -0.0686
  194DOPC    HA23960   1.289   1.114  13.515  0.3705  0.3762  0.1110
  194DOPC    HB23961   1.458   1.160  13.577  0.7780 -1.5438  2.8825
  194DOPC    C223962   1.354   1.018  13.702 -0.0037  0.1658 -0.4990
  194DOPC    HS23963   1.289   1.096  13.748 -1.0383 -0.6385 -0.5558
  194DOPC   O2123964   1.476   0.987  13.777  0.1261 -1.1856  0.7414
  194DOPC   C2123965   1.537   1.091  13.840  0.5135  0.2641 -0.1792
  194DOPC   O2223966   1.500   1.206  13.840  0.0678  0.2508  0.4369
  194DOPC   C2223967   1.654   1.035  13.912 -0.5405 -0.3001 -0.5588
  194DOPC   H2R23968   1.705   0.972  13.836 -0.3077 -0.6758 -0.0907
  194DOPC   H2S23969   1.616   0.968  13.992 -1.3174  0.8966  0.1151
  194DOPC    C323970   1.272   0.893  13.689  0.5839  0.2913 -0.1393
  194DOPC    HX23971   1.334   0.804  13.663  0.7781  0.1465  0.8024
  194DOPC    HY23972   1.194   0.911  13.612 -0.2270  0.5756  0.7314
  194DOPC   O3123973   1.195   0.866  13.810 -0.1049  0.5490  0.3239
  194DOPC   C3123974   1.082   0.787  13.788  0.4050 -0.7622  0.3805
  194DOPC   O3223975   1.051   0.743  13.683 -0.3135 -0.4133 -0.0243
  194DOPC   C3223976   1.011   0.755  13.921 -0.8721  0.5442 -0.6104
  194DOPC   H2X23977   1.053   0.656  13.949 -0.8138  0.6211 -0.4237
  194DOPC   H2Y23978   1.044   0.833  13.992 -0.0837 -0.3371  0.0138
  194DOPC   C2323979   1.744   1.137  13.981 -0.4340 -0.2906 -0.7766
  194DOPC   H3R23980   1.786   1.220  13.919 -0.2195  1.8473  2.0279
  194DOPC   H3S23981   1.825   1.074  14.024 -0.4959  0.4451  0.4832
  194DOPC   C2423982   1.691   1.208  14.107  0.1470  0.3414  0.0227
  194DOPC   H4R23983   1.605   1.267  14.069 -0.8557 -1.9024 -1.4237
  194DOPC   H4S23984   1.767   1.274  14.153 -1.0859  1.2865  0.7786
  194DOPC   C2523985   1.640   1.124  14.223  0.1462  0.2330 -0.4608
  194DOPC   H5R23986   1.708   1.042  14.252  0.2473 -0.1260 -1.6577
  194DOPC   H5S23987   1.552   1.067  14.187  0.7106 -1.3981  0.6184
  194DOPC   C2623988   1.605   1.216  14.346 -0.3534 -1.2005 -0.6294
  194DOPC   H6R23989   1.514   1.272  14.314 -0.8171 -2.4993 -1.7129
  194DOPC   H6S23990   1.694   1.280  14.362 -0.2410 -1.2443 -1.0553
  194DOPC   C2723991   1.578   1.138  14.474  0.9139 -0.0121 -0.0556
  194DOPC   H7R23992   1.652   1.057  14.491 -0.5778 -1.1716  1.2854
  194DOPC   H7S23993   1.483   1.083  14.459  1.0380  0.4646 -3.2375
  194DOPC   C2823994   1.571   1.241  14.594  0.0295  0.0357  0.3645
  194DOPC   H8R23995   1.488   1.309  14.564 -0.2853 -0.5045  0.0045
  194DOPC   H8S23996   1.671   1.289  14.597  0.6835 -1.3248  1.6268
  194DOPC   C2923997   1.532   1.183  14.728 -0.0904  0.5023 -0.2698
  194DOPC   H9R23998   1.478   1.087  14.726  0.5470  0.1419 -0.4328
  194DOPC  C21023999   1.549   1.244  14.847 -0.2458  0.1704  0.4405
  194DOPC  H10R24000   1.510   1.195  14.937  2.9740 -0.1154  1.7844
  194DOPC  C21124001   1.606   1.379  14.882  0.0005  0.1303  0.2456
  194DOPC  H11R24002   1.678   1.415  14.805 -0.8503  2.0123  0.2582
  194DOPC  H11S24003   1.659   1.369  14.979  0.9015 -1.4744 -0.3841
  194DOPC  C21224004   1.497   1.492  14.886 -0.5037  0.0866  0.1193
  194DOPC  H12R24005   1.448   1.473  14.984  0.0133 -1.2957  0.1308
  194DOPC  H12S24006   1.438   1.472  14.795  0.9791 -1.3565 -0.5877
  194DOPC  C21324007   1.557   1.638  14.885  0.1479 -0.1787 -0.2084
  194DOPC  H13R24008   1.482   1.709  14.844 -1.3303 -2.4414 -1.6184
  194DOPC  H13S24009   1.637   1.638  14.808 -1.2440  0.1666 -1.7102
  194DOPC  C21424010   1.606   1.687  15.018 -0.2892  0.8465  0.0612
  194DOPC  H14R24011   1.655   1.784  14.993 -0.2543  0.3098 -2.1522
  194DOPC  H14S24012   1.688   1.624  15.061  0.0595  0.6876 -0.8075
  194DOPC  C21524013   1.487   1.726  15.105 -0.4583 -0.5747 -0.1243
  194DOPC  H15R24014   1.433   1.630  15.124 -0.8874 -1.0520 -3.3023
  194DOPC  H15S24015   1.420   1.789  15.042  2.7170  1.2156 -1.9283
  194DOPC  C21624016   1.522   1.790  15.235  0.2555  0.4269  0.1422
  194DOPC  H16R24017   1.607   1.732  15.278  0.5667 -1.0687 -2.3241
  194DOPC  H16S24018   1.432   1.779  15.298 -0.9071  1.8057 -1.2134
  194DOPC  C21724019   1.563   1.938  15.223  0.1838  0.6483 -0.3939
  194DOPC  H17R24020   1.618   1.956  15.128 -1.0403  3.6027 -0.6582
  194DOPC  H17S24021   1.631   1.962  15.308  2.5642 -0.3509 -1.9123
  194DOPC  C21824022   1.443   2.027  15.217 -0.0858  0.0847 -0.0759
  194DOPC  H18R24023   1.371   2.004  15.136  0.1864  0.6957 -0.5002
  194DOPC  H18S24024   1.477   2.131  15.194 -1.3735  0.5851  0.2052
  194DOPC  H18T24025   1.395   2.020  15.317  0.3428  0.0956  0.1351
  194DOPC   C3324026   0.858   0.742  13.919 -0.3498 -0.1793  0.5717
  194DOPC   H3X24027   0.831   0.692  14.015 -1.8163 -0.5701 -0.0101
  194DOPC   H3Y24028   0.841   0.668  13.838  0.0783 -0.8968  1.1172
  194DOPC   C3424029   0.772   0.862  13.897 -0.1457  0.1578 -0.1091
  194DOPC   H4X24030   0.815   0.901  13.803  1.0168  0.1156  0.3942
  194DOPC   H4Y24031   0.794   0.948  13.964 -0.2241 -0.7737  1.1316
  194DOPC   C3524032   0.621   0.825  13.888  0.3286 -0.4953  0.3994
  194DOPC   H5X24033   0.614   0.721  13.848  1.1866  0.0477 -1.2893
  194DOPC   H5Y24034   0.579   0.896  13.813 -1.7022 -2.4894 -0.4638
  194DOPC   C3624035   0.540   0.844  14.012  0.4511 -0.0729 -0.9786
  194DOPC   H6X24036   0.442   0.793  14.003  0.1657  0.1482  0.5555
  194DOPC   H6Y24037   0.607   0.800  14.089 -0.9942  0.5636  0.7343
  194DOPC   C3724038   0.524   0.993  14.060  0.6169  0.1195 -0.5807
  194DOPC   H7X24039   0.609   1.048  14.014  0.6348  2.1421  1.7233
  194DOPC   H7Y24040   0.430   1.033  14.018 -0.1006 -0.3455  0.5505
  194DOPC   C3824041   0.523   0.995  14.214 -0.0526  0.3701 -0.6908
  194DOPC   H8X24042   0.604   0.932  14.257  0.3073 -0.5508 -2.5871
  194DOPC   H8Y24043   0.421   0.962  14.243 -0.1804  1.4804  0.1972
  194DOPC   C3924044   0.538   1.136  14.259  0.1122  0.7097  0.0749
  194DOPC   H9X24045   0.599   1.200  14.193  0.4933 -0.3077 -0.5802
  194DOPC  C31024046   0.476   1.201  14.361  0.2735  0.3975 -0.5846
  194DOPC  H10X24047   0.498   1.308  14.377 -2.6758  0.9743  0.0888
  194DOPC  C31124048   0.396   1.136  14.475  0.2717  0.1061 -0.6402
  194DOPC  H11X24049   0.461   1.064  14.528 -0.0927  0.1319 -0.1533
  194DOPC  H11Y24050   0.300   1.093  14.438 -1.4419  2.5701  0.6298
  194DOPC  C31224051   0.347   1.244  14.571  0.4553 -0.0725 -0.3034
  194DOPC  H12X24052   0.290   1.192  14.651  1.1195  1.3377  1.1557
  194DOPC  H12Y24053   0.281   1.308  14.509 -0.3138 -0.5980 -0.0447
  194DOPC  C31324054   0.453   1.317  14.645 -0.5347  0.0049  0.0218
  194DOPC  H13X24055   0.530   1.249  14.687  0.0345 -0.6598 -1.9661
  194DOPC  H13Y24056   0.509   1.384  14.576 -1.5621  3.0895  2.0057
  194DOPC  C31424057   0.398   1.411  14.750 -0.3892 -0.6454 -1.1614
  194DOPC  H14X24058   0.357   1.497  14.693 -0.7668  1.2527  1.7542
  194DOPC  H14Y24059   0.321   1.364  14.814  0.0038 -0.9611 -0.9146
  194DOPC  C31524060   0.508   1.448  14.852  0.4423 -0.3996 -0.4457
  194DOPC  H15X24061   0.597   1.470  14.788  1.2246  0.0602  0.7673
  194DOPC  H15Y24062   0.517   1.361  14.920  0.0741  0.0555  0.1947
  194DOPC  C31624063   0.488   1.577  14.931 -0.9356  0.1522  0.0239
  194DOPC  H16X24064   0.450   1.654  14.860  1.5971  0.1364 -1.4961
  194DOPC  H16Y24065   0.409   1.548  15.003 -2.1270 -0.7151 -1.5667
  194DOPC  C31724066   0.616   1.624  15.003 -0.6226 -0.4286  0.4836
  194DOPC  H17X24067   0.668   1.531  15.035  2.7245  0.1010 -2.7875
  194DOPC  H17Y24068   0.679   1.675  14.927 -1.8624  1.8379  0.8964
  194DOPC  C31824069   0.606   1.720  15.120 -0.2091 -0.4262 -0.1802
  194DOPC  H18X24070   0.533   1.801  15.099  1.0221  0.8915  0.4107
  194DOPC  H18Y24071   0.575   1.669  15.214  0.5013  1.6143  1.2309
  194DOPC  H18Z24072   0.712   1.747  15.139 -0.2152 -1.3116  1.3245
  195DOPC     N24073   4.456   6.372  13.434 -0.3642  0.4503 -0.2802
  195DOPC   C1224074   4.488   6.510  13.396 -0.5744  0.2079  0.4491
  195DOPC  H12A24075   4.438   6.523  13.301 -2.0912  2.8512  1.5251
  195DOPC  H12B24076   4.590   6.517  13.361 -0.1136  2.1054  2.0414
  195DOPC   C1324077   4.519   6.338  13.566  0.3210 -0.8868 -0.6720
  195DOPC  H13A24078   4.626   6.349  13.556 -0.0095  0.6652 -3.5734
  195DOPC  H13B24079   4.478   6.406  13.639 -3.2724 -0.6253 -2.6945
  195DOPC  H13C24080   4.498   6.236  13.597 -0.3609 -0.0626  1.7354
  195DOPC   C1424081   4.501   6.266  13.335  0.8265  0.2873  0.4674
  195DOPC  H14A24082   4.459   6.271  13.236  0.2675 -0.4564  0.6567
  195DOPC  H14B24083   4.608   6.261  13.327  1.0756  0.7976  2.7600
  195DOPC  H14C24084   4.472   6.164  13.357  0.8328  0.0912 -0.3940
  195DOPC   C1524085   4.307   6.364  13.450 -0.5418  0.0239  0.4826
  195DOPC  H15A24086   4.272   6.374  13.349  1.4355 -0.5532 -0.2868
  195DOPC  H15B24087   4.262   6.440  13.512 -0.3891 -0.4100  1.1426
  195DOPC  H15C24088   4.270   6.269  13.486  0.4148 -0.7157 -0.4207
  195DOPC   C1124089   4.453   6.622  13.496 -0.4752  0.4385 -0.1481
  195DOPC  H11A24090   4.507   6.602  13.591 -0.3264 -0.3628 -0.3941
  195DOPC  H11B24091   4.513   6.703  13.449  3.8505 -2.7333 -0.6469
  195DOPC     P24092   4.232   6.741  13.409 -0.0135  0.3211 -0.4699
  195DOPC   O1324093   4.101   6.673  13.382 -0.1574  0.3207 -0.1323
  195DOPC   O1424094   4.313   6.770  13.283 -0.1489  0.6478 -0.1406
  195DOPC   O1224095   4.317   6.653  13.507 -0.1463  0.0029 -0.6464
  195DOPC   O1124096   4.201   6.879  13.487  0.2112 -0.0306 -0.2204
  195DOPC    C124097   4.281   6.910  13.599 -0.4729 -0.4578 -0.5647
  195DOPC    HA24098   4.384   6.938  13.568 -0.7234 -0.7306 -1.6782
  195DOPC    HB24099   4.301   6.823  13.665  0.3088  0.1496  0.0223
  195DOPC    C224100   4.222   7.019  13.683  0.2524  1.0063 -0.2895
  195DOPC    HS24101   4.298   7.052  13.757 -0.0551  1.0561  0.0082
  195DOPC   O2124102   4.090   6.983  13.726 -0.2353 -0.0961  0.3353
  195DOPC   C2124103   4.102   6.937  13.852 -0.2029  0.3100 -0.2123
  195DOPC   O2224104   4.207   6.903  13.902 -0.4815 -0.1404  0.2366
  195DOPC   C2224105   3.965   6.919  13.907 -0.7132 -0.0640  0.4006
  195DOPC   H2R24106   3.903   6.853  13.842 -1.4808 -1.3811  2.3825
  195DOPC   H2S24107   3.925   7.023  13.915  0.7808  0.4641  1.3167
  195DOPC    C324108   4.203   7.139  13.588 -0.5705  0.4912  0.0399
  195DOPC    HX24109   4.133   7.119  13.505 -0.9260  0.9318  0.2292
  195DOPC    HY24110   4.305   7.158  13.547 -0.4241  0.4463  0.3812
  195DOPC   O3124111   4.156   7.251  13.661  0.2995  0.3955 -0.1546
  195DOPC   C3124112   4.153   7.364  13.594  0.3425  0.8078  0.3784
  195DOPC   O3224113   4.186   7.373  13.473  0.4742 -0.9160  0.0302
  195DOPC   C3224114   4.087   7.467  13.680 -0.6725  0.0528  0.7381
  195DOPC   H2X24115   3.993   7.428  13.724 -1.0621  0.5083  0.3299
  195DOPC   H2Y24116   4.164   7.496  13.755  1.7211 -0.4899 -1.3941
  195DOPC   C2324117   3.959   6.876  14.060 -0.3062  0.1276  0.0783
  195DOPC   H3R24118   4.038   6.931  14.114  1.3040 -2.5046  0.5618
  195DOPC   H3S24119   3.980   6.769  14.081 -1.0019 -0.2146 -0.8834
  195DOPC   C2424120   3.808   6.903  14.113 -0.6245  0.5608  0.4340
  195DOPC   H4R24121   3.766   7.005  14.102 -2.5602 -0.0966  1.4640
  195DOPC   H4S24122   3.811   6.878  14.221  1.6135 -0.7931  0.1436
  195DOPC   C2524123   3.703   6.822  14.041  0.7112  0.0586  0.1063
  195DOPC   H5R24124   3.727   6.714  14.029 -1.5476 -0.5020  0.1699
  195DOPC   H5S24125   3.711   6.863  13.938  0.8780 -0.7148 -0.1955
  195DOPC   C2624126   3.557   6.837  14.085 -0.8000 -0.2646 -0.2954
  195DOPC   H6R24127   3.533   6.945  14.079 -2.5379 -0.6708 -1.1557
  195DOPC   H6S24128   3.550   6.797  14.189  3.2578  0.4645  0.4379
  195DOPC   C2724129   3.457   6.759  14.009 -0.5752  0.1954 -0.0853
  195DOPC   H7R24130   3.495   6.665  13.963  0.7664  1.0636 -0.8283
  195DOPC   H7S24131   3.414   6.819  13.927  1.0947  1.6717  0.0632
  195DOPC   C2824132   3.337   6.722  14.111  0.4392  0.7459  0.1306
  195DOPC   H8R24133   3.300   6.819  14.151 -0.6838 -0.4719  2.1650
  195DOPC   H8S24134   3.389   6.663  14.189  0.2181  0.0416 -0.2474
  195DOPC   C2924135   3.232   6.635  14.052 -0.1181  0.0041 -0.9108
  195DOPC   H9R24136   3.177   6.690  13.974  0.2145  0.9183 -0.5174
  195DOPC  C21024137   3.191   6.517  14.093 -0.2179 -0.2213  0.0450
  195DOPC  H10R24138   3.108   6.471  14.038 -1.8087  0.2855  1.8777
  195DOPC  C21124139   3.239   6.434  14.205 -0.0628  0.4027  0.0236
  195DOPC  H11R24140   3.347   6.452  14.224 -0.1054  1.3178 -0.5718
  195DOPC  H11S24141   3.231   6.325  14.185 -0.1980 -0.1755  2.7972
  195DOPC  C21224142   3.150   6.443  14.326  0.7033 -0.2769  0.3951
  195DOPC  H12R24143   3.045   6.423  14.295  1.2319 -0.0544 -1.6873
  195DOPC  H12S24144   3.157   6.550  14.353 -1.3184 -0.1775  0.6715
  195DOPC  C21324145   3.200   6.357  14.449 -0.0741  0.2115  0.2564
  195DOPC  H13R24146   3.306   6.383  14.468  0.0207  0.5159 -0.6467
  195DOPC  H13S24147   3.206   6.250  14.420 -0.7450  0.4259 -0.7258
  195DOPC  C21424148   3.120   6.377  14.579 -0.0573  0.0650  0.3776
  195DOPC  H14R24149   3.176   6.321  14.656  3.8416  0.1879 -2.0967
  195DOPC  H14S24150   3.015   6.346  14.559  0.0438  0.3348 -0.6111
  195DOPC  C21524151   3.126   6.529  14.604 -0.2046  0.0270  0.0585
  195DOPC  H15R24152   3.085   6.601  14.531 -1.3053  1.0226  1.6183
  195DOPC  H15S24153   3.233   6.559  14.601 -0.5537  1.2642 -0.3841
  195DOPC  C21624154   3.060   6.564  14.738 -0.1087 -0.4839  0.0589
  195DOPC  H16R24155   3.075   6.494  14.823 -0.7733  1.0924  1.5354
  195DOPC  H16S24156   2.951   6.567  14.713  0.1938  1.7329 -1.2620
  195DOPC  C21724157   3.100   6.705  14.785 -0.2573  0.9260 -0.3111
  195DOPC  H17R24158   3.108   6.769  14.694  0.8529  2.5252  0.8359
  195DOPC  H17S24159   3.201   6.699  14.831 -0.4158  3.1860  0.4870
  195DOPC  C21824160   2.997   6.757  14.884  0.3308  0.9667 -0.2387
  195DOPC  H18R24161   2.894   6.746  14.844  0.8117 -1.0299 -1.0678
  195DOPC  H18S24162   3.005   6.865  14.906 -0.6113  0.8506  0.6907
  195DOPC  H18T24163   2.996   6.699  14.978  1.7631 -0.2850 -0.9456
  195DOPC   C3324164   4.052   7.594  13.603  0.2725 -0.4007 -0.0355
  195DOPC   H3X24165   3.963   7.570  13.540 -1.3397 -1.6741  2.5373
  195DOPC   H3Y24166   4.143   7.631  13.551  0.9141 -3.6176 -1.4872
  195DOPC   C3424167   4.009   7.694  13.710  0.6676 -0.4401  0.2253
  195DOPC   H4X24168   4.093   7.703  13.782 -0.2819  1.3839  1.1654
  195DOPC   H4Y24169   3.920   7.659  13.766 -0.8599  0.3569 -1.6226
  195DOPC   C3524170   3.952   7.821  13.648 -0.3538 -0.4228  0.5343
  195DOPC   H5X24171   3.862   7.800  13.587 -0.2667  0.1221  0.2053
  195DOPC   H5Y24172   4.019   7.879  13.580 -0.2423 -0.6727  0.4328
  195DOPC   C3624173   3.909   7.916  13.755  0.1523  0.3489  0.4356
  195DOPC   H6X24174   3.874   8.013  13.713 -0.6655  0.2585  0.8754
  195DOPC   H6Y24175   3.821   7.867  13.804  1.2055 -2.4062 -0.2087
  195DOPC   C3724176   4.015   7.945  13.863 -0.0192  0.5659  0.0073
  195DOPC   H7X24177   4.056   7.853  13.910  0.9963  0.8402 -0.3074
  195DOPC   H7Y24178   4.107   7.985  13.814 -0.1694  1.7635  0.6618
  195DOPC   C3824179   3.969   8.036  13.973 -0.5804 -0.0470 -0.4764
  195DOPC   H8X24180   4.041   8.030  14.057 -1.9672  1.7080  0.9133
  195DOPC   H8Y24181   3.879   7.993  14.021 -0.0347 -1.8165 -0.9695
  195DOPC   C3924182   3.943   8.173  13.933  0.1906  0.0888 -0.4277
  195DOPC   H9X24183   3.855   8.193  13.871 -0.7104 -2.8294 -0.2208
  195DOPC  C31024184   4.014   8.278  13.966 -0.4247  0.4304 -0.2279
  195DOPC  H10X24185   3.980   8.375  13.925  0.1905  0.9633  0.5033
  195DOPC  C31124186   4.141   8.299  14.051 -0.0619  0.1038 -0.3800
  195DOPC  H11X24187   4.230   8.323  13.988  1.2721 -2.0510  0.5692
  195DOPC  H11Y24188   4.174   8.205  14.101 -1.3224  0.4186  1.0985
  195DOPC  C31224189   4.129   8.414  14.153  0.2632 -0.1197  0.2270
  195DOPC  H12X24190   4.211   8.406  14.227  2.8187  3.5620 -1.9125
  195DOPC  H12Y24191   4.028   8.407  14.200  0.4472  1.9595  1.0474
  195DOPC  C31324192   4.126   8.565  14.100  0.2466  0.3892  0.0919
  195DOPC  H13X24193   4.228   8.594  14.064  0.9317 -0.8524  0.9708
  195DOPC  H13Y24194   4.055   8.575  14.015 -0.2402  1.1204  0.5800
  195DOPC  C31424195   4.092   8.671  14.201 -0.2145 -1.0632 -0.0987
  195DOPC  H14X24196   4.127   8.769  14.161 -0.0694 -1.4719 -0.9792
  195DOPC  H14Y24197   3.981   8.676  14.210 -0.1650 -1.4889  0.9378
  195DOPC  C31524198   4.144   8.641  14.336  0.1699 -0.4090 -0.9218
  195DOPC  H15X24199   4.252   8.617  14.340 -0.1105 -1.6313 -0.2592
  195DOPC  H15Y24200   4.092   8.552  14.377 -0.6532  0.4287 -0.0981
  195DOPC  C31624201   4.129   8.755  14.437  0.4527 -0.7301 -0.2413
  195DOPC  H16X24202   4.159   8.844  14.379  0.3904  1.6542  3.1154
  195DOPC  H16Y24203   4.020   8.756  14.463 -0.1707 -1.8952 -2.5656
  195DOPC  C31724204   4.222   8.759  14.555  0.2338  0.1094  0.1733
  195DOPC  H17X24205   4.326   8.778  14.519  0.2118  0.9130  0.5103
  195DOPC  H17Y24206   4.186   8.834  14.628  1.3203 -1.0672  1.9751
  195DOPC  C31824207   4.229   8.627  14.630  1.0373  0.4182  0.5785
  195DOPC  H18X24208   4.253   8.547  14.557  2.7987  0.2272  1.3150
  195DOPC  H18Y24209   4.312   8.615  14.703  2.1963  0.1531 -0.7245
  195DOPC  H18Z24210   4.137   8.616  14.691  0.8175 -1.7523 -0.0659
  196DOPC     N24211   8.130   2.378  13.233 -0.1637 -0.3175  0.1221
  196DOPC   C1224212   8.258   2.332  13.175  0.3803  0.3951 -0.5520
  196DOPC  H12A24213   8.331   2.406  13.204  0.4940  0.8601 -1.9428
  196DOPC  H12B24214   8.251   2.341  13.068  0.7605  0.1329 -0.6041
  196DOPC   C1324215   8.152   2.371  13.382 -0.8271 -0.5247 -0.5924
  196DOPC  H13A24216   8.075   2.407  13.448  0.9330 -0.9549  1.8740
  196DOPC  H13B24217   8.184   2.269  13.401 -0.4559 -0.6529 -1.8325
  196DOPC  H13C24218   8.230   2.442  13.405 -4.2588  3.1332  0.9058
  196DOPC   C1424219   8.017   2.282  13.198 -1.0003  0.2724 -0.0504
  196DOPC  H14A24220   7.931   2.308  13.259 -0.1125  1.4265  0.7371
  196DOPC  H14B24221   7.996   2.301  13.093  0.1394 -0.4175 -0.4186
  196DOPC  H14C24222   8.037   2.180  13.228 -1.3554  1.1700  3.7273
  196DOPC   C1524223   8.097   2.517  13.191  0.5717 -0.1454  0.8309
  196DOPC  H15A24224   8.002   2.543  13.237  1.3019  2.2912  1.1397
  196DOPC  H15B24225   8.076   2.522  13.085 -5.3660 -2.8343  1.4750
  196DOPC  H15C24226   8.167   2.594  13.219 -0.9340  1.9049 -0.6159
  196DOPC   C1124227   8.295   2.182  13.202 -0.4714  0.1888  0.2849
  196DOPC  H11A24228   8.207   2.117  13.184 -0.8280  0.7692 -0.1071
  196DOPC  H11B24229   8.368   2.174  13.118  1.6427 -0.8174  2.1213
  196DOPC     P24230   8.427   2.005  13.328  0.3266 -0.0266  0.0624
  196DOPC   O1324231   8.567   2.005  13.277  0.1057  0.1344  0.2356
  196DOPC   O1424232   8.341   1.906  13.265  0.3292  0.3325 -0.1651
  196DOPC   O1224233   8.361   2.153  13.325 -0.7035  0.5424 -0.3289
  196DOPC   O1124234   8.430   1.967  13.478  0.1800 -0.3165  0.5593
  196DOPC    C124235   8.519   2.026  13.574  0.1723 -0.1211  0.5147
  196DOPC    HA24236   8.571   2.113  13.528  0.1729 -0.8969 -1.0066
  196DOPC    HB24237   8.592   1.943  13.587 -0.6678 -1.2313 -1.4778
  196DOPC    C224238   8.464   2.066  13.718  0.1424 -0.7748  0.1420
  196DOPC    HS24239   8.550   2.064  13.788  2.3929  2.0736 -2.2366
  196DOPC   O2124240   8.347   1.988  13.746  0.3579 -0.5234 -0.0129
  196DOPC   C2124241   8.377   1.871  13.780  0.6614  0.4131 -0.4957
  196DOPC   O2224242   8.492   1.829  13.792 -0.0658  0.0942  0.3824
  196DOPC   C2224243   8.252   1.795  13.817 -0.2451 -0.0833 -0.3892
  196DOPC   H2R24244   8.187   1.781  13.729 -1.9646 -0.0132  0.8173
  196DOPC   H2S24245   8.198   1.859  13.890 -0.0297  0.1505 -0.4317
  196DOPC    C324246   8.410   2.217  13.715 -0.1524 -0.3015  0.2226
  196DOPC    HX24247   8.349   2.224  13.623  1.3887 -1.8326 -0.9812
  196DOPC    HY24248   8.494   2.289  13.716 -0.9208  0.6154  1.4431
  196DOPC   O3124249   8.332   2.245  13.836 -0.1943 -0.1908  0.2742
  196DOPC   C3124250   8.252   2.350  13.834 -0.1303 -0.1892 -0.1978
  196DOPC   O3224251   8.258   2.447  13.762 -0.5248 -0.0665 -0.0278
  196DOPC   C3224252   8.150   2.338  13.948  0.3184 -0.4292  0.0453
  196DOPC   H2X24253   8.187   2.370  14.048  1.2124  0.9729 -0.7057
  196DOPC   H2Y24254   8.065   2.403  13.916  1.0275 -0.8455 -2.9619
  196DOPC   C2324255   8.277   1.656  13.895  0.0065 -0.1874  0.2483
  196DOPC   H3R24256   8.362   1.609  13.841 -0.2286  0.8129 -1.0333
  196DOPC   H3S24257   8.185   1.595  13.886  0.1102 -0.0343 -3.1763
  196DOPC   C2424258   8.323   1.670  14.042 -0.0444  0.2386  0.3387
  196DOPC   H4R24259   8.258   1.723  14.114  0.2252  0.0993  0.6881
  196DOPC   H4S24260   8.418   1.726  14.030 -0.5441  0.8522 -1.0336
  196DOPC   C2524261   8.356   1.529  14.087 -0.0883  0.7013 -0.0934
  196DOPC   H5R24262   8.422   1.476  14.015  1.6496  1.6092  0.7505
  196DOPC   H5S24263   8.263   1.469  14.095  1.2491 -1.4113  0.7062
  196DOPC   C2624264   8.420   1.535  14.226 -0.2723  0.3729 -0.5040
  196DOPC   H6R24265   8.387   1.623  14.285 -0.7820 -0.5425  0.6030
  196DOPC   H6S24266   8.528   1.559  14.216 -0.4404  1.5941  0.3860
  196DOPC   C2724267   8.430   1.408  14.317 -0.0367 -0.0260 -0.3447
  196DOPC   H7R24268   8.486   1.334  14.256 -0.8025 -0.1243 -0.9417
  196DOPC   H7S24269   8.327   1.371  14.335 -0.4396  0.1242 -2.1362
  196DOPC   C2824270   8.486   1.447  14.450  0.2341 -0.2485 -0.0948
  196DOPC   H8R24271   8.578   1.505  14.426 -0.5414  1.1116  0.1264
  196DOPC   H8S24272   8.513   1.352  14.501  0.3867 -0.6068 -0.8311
  196DOPC   C2924273   8.408   1.533  14.542  0.4043 -0.7086 -0.3150
  196DOPC   H9R24274   8.299   1.517  14.541  0.5580 -2.0712  0.9469
  196DOPC  C21024275   8.458   1.639  14.614  0.0199  0.0987  0.4167
  196DOPC  H10R24276   8.401   1.704  14.682 -2.2778 -2.5146  1.1432
  196DOPC  C21124277   8.600   1.687  14.615  0.5754  0.6306  0.1941
  196DOPC  H11R24278   8.673   1.620  14.563 -0.6981 -0.4697 -0.2430
  196DOPC  H11S24279   8.641   1.701  14.717  1.9282  1.0331 -0.3799
  196DOPC  C21224280   8.604   1.829  14.542 -0.7185 -0.1694  0.0279
  196DOPC  H12R24281   8.559   1.906  14.608 -1.3134 -0.8796  0.4666
  196DOPC  H12S24282   8.539   1.824  14.451 -1.4038 -2.8358  0.5764
  196DOPC  C21324283   8.750   1.859  14.518 -0.4881 -0.9144 -0.2142
  196DOPC  H13R24284   8.795   1.792  14.441  2.7401  0.3343  0.4633
  196DOPC  H13S24285   8.794   1.848  14.619 -2.0404  0.0341  0.5957
  196DOPC  C21424286   8.772   1.997  14.457 -0.3082  0.7795 -0.3591
  196DOPC  H14R24287   8.736   2.011  14.353  0.3642  2.8729 -0.3596
  196DOPC  H14S24288   8.881   2.009  14.445 -0.4180  1.1971 -0.9499
  196DOPC  C21524289   8.725   2.112  14.549  0.8192 -0.7570  0.2951
  196DOPC  H15R24290   8.774   2.111  14.649  0.4761 -2.8397  0.4790
  196DOPC  H15S24291   8.615   2.102  14.564  0.7694 -1.9607 -0.7866
  196DOPC  C21624292   8.749   2.250  14.484 -0.0913  0.1580 -0.0682
  196DOPC  H16R24293   8.683   2.260  14.395  1.1093  0.9359 -0.9032
  196DOPC  H16S24294   8.852   2.250  14.443 -0.2650  1.7790 -0.5961
  196DOPC  C21724295   8.727   2.365  14.582 -0.1827 -0.2071  0.4830
  196DOPC  H17R24296   8.811   2.359  14.655 -1.7406  0.7662  2.4590
  196DOPC  H17S24297   8.632   2.351  14.637 -1.4975  0.0053 -1.6483
  196DOPC  C21824298   8.727   2.501  14.515  0.6158  0.4085  0.5429
  196DOPC  H18R24299   8.630   2.536  14.473  0.9626  3.4290  2.0361
  196DOPC  H18S24300   8.807   2.503  14.439  0.8029 -1.3860  0.6548
  196DOPC  H18T24301   8.753   2.575  14.593 -2.2814  1.7158  0.4141
  196DOPC   C3324302   8.092   2.195  13.959  0.5182 -0.1717 -1.1261
  196DOPC   H3X24303   8.178   2.129  13.983  1.5221  1.5305  0.2043
  196DOPC   H3Y24304   8.060   2.154  13.861 -2.1128 -0.0979 -0.3846
  196DOPC   C3424305   7.960   2.191  14.046  0.0137  0.1635  0.9082
  196DOPC   H4X24306   7.885   2.254  13.994 -0.8332 -2.2992 -1.1219
  196DOPC   H4Y24307   7.979   2.220  14.151  0.7159 -1.4518  1.2639
  196DOPC   C3524308   7.904   2.038  14.049  0.2611  0.4321 -0.1428
  196DOPC   H5X24309   7.982   1.977  14.099 -0.2037  0.5623  0.7566
  196DOPC   H5Y24310   7.892   2.010  13.943  0.5678 -2.2489  0.4704
  196DOPC   C3624311   7.769   2.021  14.117  0.3703 -0.1087  0.2675
  196DOPC   H6X24312   7.790   2.011  14.226  2.9747  0.8032 -0.0874
  196DOPC   H6Y24313   7.700   2.108  14.111 -0.7729 -0.9225  1.1527
  196DOPC   C3724314   7.701   1.893  14.074 -0.0604  0.2222  0.0305
  196DOPC   H7X24315   7.640   1.903  13.981 -0.2422 -0.4730  0.0764
  196DOPC   H7Y24316   7.783   1.820  14.055  1.1845  1.1165  1.7078
  196DOPC   C3824317   7.608   1.835  14.182 -0.6151  0.0457 -0.7840
  196DOPC   H8X24318   7.540   1.914  14.221 -1.7284 -1.5698  0.7022
  196DOPC   H8Y24319   7.663   1.791  14.267 -1.6046 -0.3260 -0.3186
  196DOPC   C3924320   7.519   1.732  14.119  0.3752 -0.5435  0.4727
  196DOPC   H9X24321   7.504   1.746  14.011 -0.4245 -1.1447  0.4916
  196DOPC  C31024322   7.471   1.617  14.169 -0.0497  0.2960  0.0289
  196DOPC  H10X24323   7.398   1.557  14.113  0.1692 -1.7105  1.7517
  196DOPC  C31124324   7.481   1.566  14.311 -0.5280 -0.3942 -0.2400
  196DOPC  H11X24325   7.584   1.572  14.352 -0.6208  1.4806 -0.1895
  196DOPC  H11Y24326   7.456   1.458  14.313 -2.2193 -0.0239  0.2935
  196DOPC  C31224327   7.387   1.633  14.408  0.3712  0.5356  0.3220
  196DOPC  H12X24328   7.407   1.742  14.413 -1.1364  0.8392  0.1320
  196DOPC  H12Y24329   7.400   1.594  14.512 -5.2531  0.7005  1.4034
  196DOPC  C31324330   7.238   1.601  14.372 -0.0171 -0.4288 -0.4973
  196DOPC  H13X24331   7.213   1.634  14.269 -0.0450 -2.0956 -1.0506
  196DOPC  H13Y24332   7.235   1.491  14.387 -0.0384 -0.2901  0.5577
  196DOPC  C31424333   7.142   1.671  14.473  0.2299  0.6601  0.2212
  196DOPC  H14X24334   7.038   1.658  14.435 -0.1398 -0.8182  1.5899
  196DOPC  H14Y24335   7.149   1.624  14.574 -3.8355 -1.8738 -0.4361
  196DOPC  C31524336   7.165   1.821  14.486  0.2196 -0.4618  0.8552
  196DOPC  H15X24337   7.147   1.852  14.381  0.3471  0.7500  1.1698
  196DOPC  H15Y24338   7.268   1.858  14.509  0.9214 -1.1888 -0.9858
  196DOPC  C31624339   7.062   1.908  14.574 -0.3357 -0.0409  0.2445
  196DOPC  H16X24340   7.047   2.013  14.540 -0.5727 -0.0813  0.2219
  196DOPC  H16Y24341   6.961   1.863  14.564  0.2908 -1.0876 -1.7988
  196DOPC  C31724342   7.090   1.894  14.728 -0.4774  0.3199  0.2309
  196DOPC  H17X24343   7.001   1.923  14.788 -1.4330 -2.0875  0.1122
  196DOPC  H17Y24344   7.112   1.792  14.767  0.0777  0.6400  0.7831
  196DOPC  C31824345   7.216   1.976  14.765 -0.2356  0.1695 -0.1969
  196DOPC  H18X24346   7.242   1.967  14.873 -1.1817 -0.0081  0.0282
  196DOPC  H18Y24347   7.298   1.929  14.708 -0.3825 -1.4294  0.8450
  196DOPC  H18Z24348   7.192   2.082  14.743  0.9964  0.1744 -1.6828
  197DOPC     N24349   1.604   8.153  13.332  0.1745  0.0989 -0.3953
  197DOPC   C1224350   1.597   8.264  13.425 -0.8965 -0.5846 -0.1040
  197DOPC  H12A24351   1.685   8.325  13.412 -0.1225 -1.5734  0.3018
  197DOPC  H12B24352   1.604   8.230  13.528  1.3640  0.2465  0.0845
  197DOPC   C1324353   1.737   8.097  13.352  0.3046 -0.5931  0.5376
  197DOPC  H13A24354   1.752   7.998  13.313  2.7715 -0.8915  2.0328
  197DOPC  H13B24355   1.815   8.159  13.310  2.6631 -3.6586  0.0241
  197DOPC  H13C24356   1.759   8.086  13.457  2.7694 -1.1883  0.0218
  197DOPC   C1424357   1.597   8.183  13.186 -0.7869  0.4454  0.0021
  197DOPC  H14A24358   1.496   8.211  13.159 -0.9828 -1.8115 -2.0208
  197DOPC  H14B24359   1.677   8.253  13.169  0.7503 -1.0219  0.9452
  197DOPC  H14C24360   1.626   8.102  13.120  0.0755 -0.1321  1.0671
  197DOPC   C1524361   1.499   8.053  13.362  0.0435  0.1426 -0.0022
  197DOPC  H15A24362   1.526   7.961  13.311  0.9428  0.9990 -1.1055
  197DOPC  H15B24363   1.400   8.090  13.342 -0.1457 -0.1028  0.4586
  197DOPC  H15C24364   1.514   8.037  13.468 -3.4346  2.3305  0.9843
  197DOPC   C1124365   1.475   8.351  13.407  0.6702 -0.0526  0.3914
  197DOPC  H11A24366   1.466   8.377  13.299 -0.7282  1.1776  0.7812
  197DOPC  H11B24367   1.382   8.300  13.439  0.9198  0.1392  1.4409
  197DOPC     P24368   1.569   8.594  13.444  0.1720 -0.0570  0.3943
  197DOPC   O1324369   1.472   8.705  13.426  0.2458  0.6335 -0.4802
  197DOPC   O1424370   1.657   8.564  13.332 -0.0451 -0.1033 -0.1135
  197DOPC   O1224371   1.499   8.462  13.491 -0.5595  0.2110 -0.4188
  197DOPC   O1124372   1.668   8.629  13.560  0.2215  0.0283 -0.3344
  197DOPC    C124373   1.650   8.576  13.689 -0.0217  0.2245  0.3225
  197DOPC    HA24374   1.736   8.597  13.755 -0.2420  0.6501  0.4759
  197DOPC    HB24375   1.640   8.465  13.690 -1.8173  0.3542  1.0200
  197DOPC    C224376   1.529   8.622  13.769 -0.0762 -0.3954 -0.1820
  197DOPC    HS24377   1.440   8.632  13.704 -0.6039  0.5947  0.6540
  197DOPC   O2124378   1.567   8.753  13.824  0.2255  0.2624  0.0382
  197DOPC   C2124379   1.461   8.833  13.851  0.6237  0.9374 -0.7090
  197DOPC   O2224380   1.346   8.804  13.831  0.7157 -0.4092  0.2588
  197DOPC   C2224381   1.510   8.965  13.896  0.0732  0.6905 -0.0884
  197DOPC   H2R24382   1.536   9.019  13.802 -0.4665  1.0749 -0.0216
  197DOPC   H2S24383   1.602   8.941  13.953  0.4258  2.1683  0.0099
  197DOPC    C324384   1.490   8.525  13.882 -0.6789  0.3160  0.2462
  197DOPC    HX24385   1.408   8.565  13.945  1.9227 -0.4401  4.5285
  197DOPC    HY24386   1.573   8.512  13.955 -1.5224  0.7931  1.3123
  197DOPC   O3124387   1.473   8.389  13.823 -0.0532  0.2416 -0.2777
  197DOPC   C3124388   1.342   8.365  13.796 -0.8804  0.0062 -0.6131
  197DOPC   O3224389   1.254   8.445  13.813  0.3072 -0.3699  0.3597
  197DOPC   C3224390   1.324   8.230  13.729  0.5851  0.0588 -0.3222
  197DOPC   H2X24391   1.219   8.228  13.692  0.1878 -3.3296  0.6843
  197DOPC   H2Y24392   1.388   8.221  13.638 -0.1326  2.0418 -1.0835
  197DOPC   C2324393   1.402   9.052  13.967 -0.0324  0.3503 -0.4594
  197DOPC   H3R24394   1.379   8.993  14.058 -0.3155  0.7126 -0.2958
  197DOPC   H3S24395   1.317   9.066  13.897 -0.3660 -0.6182 -0.2614
  197DOPC   C2424396   1.461   9.183  14.015  0.1724  0.3641  0.9902
  197DOPC   H4R24397   1.380   9.253  14.041 -1.2527 -0.8156 -0.0637
  197DOPC   H4S24398   1.526   9.221  13.933 -2.1709  1.3081 -0.5098
  197DOPC   C2524399   1.549   9.171  14.144 -0.1839 -0.0213 -1.1978
  197DOPC   H5R24400   1.617   9.260  14.146  0.2004 -0.2075  3.0448
  197DOPC   H5S24401   1.615   9.082  14.143  0.9727  0.7818  0.0108
  197DOPC   C2624402   1.459   9.175  14.277 -0.4143  0.3135 -0.2313
  197DOPC   H6R24403   1.385   9.094  14.257  0.5771 -0.2427 -1.8559
  197DOPC   H6S24404   1.389   9.261  14.284 -1.2829 -0.4868  2.0645
  197DOPC   C2724405   1.546   9.173  14.409  0.5408 -0.0230  0.3212
  197DOPC   H7R24406   1.610   9.264  14.410  1.4873 -0.6842  0.6383
  197DOPC   H7S24407   1.609   9.082  14.405  0.4794 -0.1035  0.9838
  197DOPC   C2824408   1.460   9.178  14.540 -0.6564  0.0354  0.0924
  197DOPC   H8R24409   1.362   9.128  14.522 -0.2968 -0.0083 -1.8909
  197DOPC   H8S24410   1.434   9.285  14.552 -0.7008 -0.0676  1.0201
  197DOPC   C2924411   1.531   9.145  14.672 -0.4072 -0.0368  0.3468
  197DOPC   H9R24412   1.594   9.225  14.714 -1.3286 -0.6706  3.1918
  197DOPC  C21024413   1.533   9.032  14.734 -0.1666  0.4202  0.1228
  197DOPC  H10R24414   1.571   9.018  14.836  3.3250 -1.6438 -1.2833
  197DOPC  C21124415   1.445   8.912  14.699  1.1562  0.5128 -0.2561
  197DOPC  H11R24416   1.504   8.818  14.702  2.2568  1.1891  2.3704
  197DOPC  H11S24417   1.417   8.925  14.592 -0.7537 -0.5153  0.0760
  197DOPC  C21224418   1.309   8.900  14.771  0.2844 -0.5331  0.2978
  197DOPC  H12R24419   1.262   9.000  14.787 -4.6626 -2.6162  0.7995
  197DOPC  H12S24420   1.316   8.869  14.877  0.8158  0.8954  0.7090
  197DOPC  C21324421   1.209   8.817  14.685  0.6951  0.2985  0.3657
  197DOPC  H13R24422   1.260   8.720  14.665 -0.6481  0.1921 -3.5096
  197DOPC  H13S24423   1.199   8.872  14.589 -1.7744  1.3523  1.1485
  197DOPC  C21424424   1.081   8.778  14.758  0.0898  0.3280 -0.4567
  197DOPC  H14R24425   1.104   8.708  14.842  0.3736  0.1042 -0.7174
  197DOPC  H14S24426   1.020   8.725  14.681 -0.5428  2.3744 -1.4204
  197DOPC  C21524427   0.994   8.894  14.808 -0.3357  0.0174  1.0798
  197DOPC  H15R24428   1.050   8.961  14.876  0.5485 -1.3140  1.7124
  197DOPC  H15S24429   0.910   8.847  14.863  1.3906 -0.7725  3.1896
  197DOPC  C21624430   0.920   8.979  14.696 -0.7515 -0.6290  0.6193
  197DOPC  H16R24431   0.917   8.920  14.602  1.2165 -0.7676  0.5933
  197DOPC  H16S24432   1.001   9.052  14.677  0.6327 -2.1081  0.6121
  197DOPC  C21724433   0.796   9.062  14.734 -0.0205 -0.0606 -0.2034
  197DOPC  H17R24434   0.821   9.122  14.824 -0.6610 -0.5482  0.3098
  197DOPC  H17S24435   0.712   8.995  14.765  1.1093 -1.2664  0.3655
  197DOPC  C21824436   0.744   9.154  14.622 -0.1259 -0.4503  0.1139
  197DOPC  H18R24437   0.815   9.236  14.599 -0.6386  0.4110  1.4812
  197DOPC  H18S24438   0.653   9.210  14.653 -0.7903 -1.6819  0.4564
  197DOPC  H18T24439   0.711   9.085  14.541 -1.4282 -2.4423  2.2084
  197DOPC   C3324440   1.344   8.113  13.822 -0.2711  0.0675 -0.0327
  197DOPC   H3X24441   1.441   8.119  13.876  0.0871  0.1077 -0.6634
  197DOPC   H3Y24442   1.349   8.021  13.761 -2.4500 -0.4251  0.4777
  197DOPC   C3424443   1.231   8.083  13.924 -0.0345 -0.0973 -0.1941
  197DOPC   H4X24444   1.242   7.980  13.964  1.2054 -0.7035 -1.9525
  197DOPC   H4Y24445   1.132   8.082  13.873  0.0530 -1.5410 -0.3987
  197DOPC   C3524446   1.235   8.168  14.054  1.0210  0.1492  0.0354
  197DOPC   H5X24447   1.186   8.263  14.024 -1.3885 -1.0677 -0.1352
  197DOPC   H5Y24448   1.336   8.200  14.088  1.0327  1.0681 -0.8196
  197DOPC   C3624449   1.161   8.117  14.182 -0.5708  0.1278  0.2730
  197DOPC   H6X24450   1.083   8.045  14.148 -1.3359  0.6676  0.8759
  197DOPC   H6Y24451   1.240   8.069  14.244  0.6021  3.0371  1.2229
  197DOPC   C3724452   1.092   8.229  14.261  0.3669 -0.1933 -1.2004
  197DOPC   H7X24453   1.030   8.287  14.189 -1.8315 -2.1341 -1.0020
  197DOPC   H7Y24454   1.022   8.183  14.333 -0.5634  0.0229 -1.9467
  197DOPC   C3824455   1.196   8.304  14.342 -0.0987 -0.1832  0.1309
  197DOPC   H8X24456   1.282   8.318  14.272 -0.1713 -1.8128 -0.3240
  197DOPC   H8Y24457   1.238   8.243  14.425  0.3737  0.1734  0.1591
  197DOPC   C3924458   1.134   8.430  14.398  0.8026  0.1268  0.3271
  197DOPC   H9X24459   1.090   8.420  14.498  1.1463  1.4540  0.6430
  197DOPC  C31024460   1.117   8.549  14.338  0.4297 -0.4672  0.0423
  197DOPC  H10X24461   1.070   8.635  14.387  0.0625  1.5508 -3.5082
  197DOPC  C31124462   1.178   8.584  14.203  0.4946  0.0783 -0.2726
  197DOPC  H11X24463   1.098   8.605  14.129  1.6401 -0.5041 -1.7462
  197DOPC  H11Y24464   1.220   8.495  14.151 -0.2937  0.5589 -1.8128
  197DOPC  C31224465   1.280   8.701  14.202 -0.7795 -0.7288 -0.2585
  197DOPC  H12X24466   1.228   8.794  14.235 -1.2236  0.4178 -3.7791
  197DOPC  H12Y24467   1.303   8.729  14.097 -0.7115  0.0126 -0.0553
  197DOPC  C31324468   1.402   8.671  14.290 -0.6819  0.1817  0.0621
  197DOPC  H13X24469   1.359   8.657  14.392 -1.1074  1.3670  0.0645
  197DOPC  H13Y24470   1.451   8.576  14.260 -1.5035 -0.5158  0.8558
  197DOPC  C31424471   1.516   8.769  14.300  0.0076 -0.4309  0.2634
  197DOPC  H14X24472   1.487   8.874  14.277  3.6150  0.3115 -1.5623
  197DOPC  H14Y24473   1.570   8.769  14.397 -1.6456 -0.3319  1.2213
  197DOPC  C31524474   1.625   8.763  14.195  0.4268  0.3375  0.2268
  197DOPC  H15X24475   1.690   8.852  14.208  2.7996 -1.3135  0.3275
  197DOPC  H15Y24476   1.575   8.778  14.097  0.4453 -0.1957  0.1322
  197DOPC  C31624477   1.698   8.634  14.199  0.0741  0.1631 -0.2633
  197DOPC  H16X24478   1.698   8.596  14.304 -2.7419  0.8438  0.0728
  197DOPC  H16Y24479   1.653   8.554  14.137  2.2310 -0.2024 -1.4651
  197DOPC  C31724480   1.841   8.647  14.144 -0.4962  0.2992  0.0965
  197DOPC  H17X24481   1.835   8.683  14.039  0.4889  2.3514  0.6852
  197DOPC  H17Y24482   1.897   8.729  14.195 -2.3163  2.6898 -1.4853
  197DOPC  C31824483   1.929   8.521  14.149  0.7357 -0.2602 -0.2567
  197DOPC  H18X24484   1.951   8.497  14.255  1.0657 -1.9681 -0.6806
  197DOPC  H18Y24485   1.876   8.435  14.101 -1.2757  0.9926 -0.3855
  197DOPC  H18Z24486   2.026   8.539  14.098 -0.1262  1.8338 -1.2767
  198DOPC     N24487   6.029   8.331  13.442  0.3264 -0.2751  0.0501
  198DOPC   C1224488   5.988   8.263  13.570  0.3284  0.2824 -0.0187
  198DOPC  H12A24489   6.023   8.161  13.568 -0.4371  0.0056  0.1318
  198DOPC  H12B24490   5.880   8.255  13.566  0.3542 -1.8297  1.7589
  198DOPC   C1324491   5.940   8.460  13.429 -0.4978 -0.2642  0.4251
  198DOPC  H13A24492   5.924   8.488  13.325  0.5539  0.8223  0.5242
  198DOPC  H13B24493   5.849   8.448  13.485 -0.0049 -0.9605  1.0797
  198DOPC  H13C24494   5.985   8.548  13.473 -0.5865  0.1876 -0.3485
  198DOPC   C1424495   5.995   8.252  13.316 -0.1673  0.1529 -0.1665
  198DOPC  H14A24496   6.072   8.178  13.299 -1.6492 -1.2196 -1.1852
  198DOPC  H14B24497   5.904   8.195  13.331  0.2216 -1.5067 -3.2720
  198DOPC  H14C24498   5.996   8.303  13.222 -0.3779  1.0382  0.3043
  198DOPC   C1524499   6.172   8.370  13.421  0.6472 -0.0186 -0.2556
  198DOPC  H15A24500   6.237   8.290  13.454 -0.4821 -0.1156  1.8597
  198DOPC  H15B24501   6.186   8.449  13.493 -0.4265  1.8920 -2.0289
  198DOPC  H15C24502   6.192   8.389  13.317 -1.2020 -1.9386 -1.0419
  198DOPC   C1124503   6.034   8.326  13.704  0.3477  0.0075 -0.4986
  198DOPC  H11A24504   5.987   8.426  13.715  0.8745  0.2345 -0.3384
  198DOPC  H11B24505   5.988   8.260  13.780 -0.6506  1.7429  0.4754
  198DOPC     P24506   6.264   8.204  13.728 -0.2752 -0.1997 -0.2213
  198DOPC   O1324507   6.351   8.177  13.610  0.0067 -0.2198 -0.0238
  198DOPC   O1424508   6.172   8.094  13.762 -0.5595  0.0920 -0.1154
  198DOPC   O1224509   6.182   8.339  13.707 -0.2104  0.6977  0.1932
  198DOPC   O1124510   6.352   8.233  13.852  0.4078  0.2089 -0.6862
  198DOPC    C124511   6.379   8.363  13.904  0.8247 -0.2111  0.0330
  198DOPC    HA24512   6.376   8.360  14.015 -0.8366  0.4917  0.0335
  198DOPC    HB24513   6.291   8.424  13.874  0.5674 -0.9731 -0.8210
  198DOPC    C224514   6.520   8.424  13.867 -0.0406 -0.1335  0.3822
  198DOPC    HS24515   6.529   8.452  13.760  1.1395  1.4951  0.8505
  198DOPC   O2124516   6.622   8.329  13.901  0.0238  0.6560 -0.2990
  198DOPC   C2124517   6.746   8.349  13.867  0.0184 -0.1088 -0.2652
  198DOPC   O2224518   6.776   8.437  13.788 -0.6240 -0.2268  0.4922
  198DOPC   C2224519   6.833   8.252  13.939  0.0149 -0.6122 -0.1997
  198DOPC   H2R24520   6.885   8.198  13.856  1.0483 -0.9423  0.6383
  198DOPC   H2S24521   6.772   8.173  13.988 -0.4428  0.0439  0.3070
  198DOPC    C324522   6.543   8.548  13.963  0.4964  0.5350  0.7451
  198DOPC    HX24523   6.462   8.617  13.931 -0.5381  1.3368  4.6309
  198DOPC    HY24524   6.637   8.604  13.946  0.3353  0.5374 -0.1842
  198DOPC   O3124525   6.531   8.511  14.103 -0.4157  0.0321 -0.2544
  198DOPC   C3124526   6.441   8.585  14.170  0.3547 -0.7932  0.2288
  198DOPC   O3224527   6.392   8.689  14.126 -0.4972  0.6885 -0.3410
  198DOPC   C3224528   6.417   8.521  14.304 -0.0088  0.1221  0.1779
  198DOPC   H2X24529   6.328   8.454  14.299  0.0473 -0.0871  1.6864
  198DOPC   H2Y24530   6.514   8.469  14.320 -0.5394 -1.0055 -0.1596
  198DOPC   C2324531   6.923   8.322  14.039  0.4755  0.0709  0.2625
  198DOPC   H3R24532   7.004   8.374  13.984 -0.3237 -0.4931 -1.5169
  198DOPC   H3S24533   6.986   8.250  14.096  2.0867  0.2811 -1.1676
  198DOPC   C2424534   6.859   8.407  14.150 -0.5776 -1.0559  0.2658
  198DOPC   H4R24535   6.821   8.500  14.103  1.1274 -0.1426  0.6121
  198DOPC   H4S24536   6.932   8.447  14.223 -2.0512  1.6467  0.3983
  198DOPC   C2524537   6.751   8.332  14.231 -0.4508 -0.0875 -0.3780
  198DOPC   H5R24538   6.671   8.305  14.160 -1.1879  0.9181  0.0551
  198DOPC   H5S24539   6.718   8.398  14.314 -0.8221 -0.7020 -0.0278
  198DOPC   C2624540   6.803   8.202  14.285 -0.0868  0.0456 -0.1867
  198DOPC   H6R24541   6.902   8.222  14.332 -0.1157  0.7187 -0.4108
  198DOPC   H6S24542   6.825   8.137  14.197  0.7278  1.9815 -1.4678
  198DOPC   C2724543   6.710   8.144  14.391  0.6107 -0.6133  0.0953
  198DOPC   H7R24544   6.610   8.131  14.344  0.6659 -1.6508  0.2476
  198DOPC   H7S24545   6.692   8.215  14.474 -0.3350 -0.3992 -0.2791
  198DOPC   C2824546   6.752   8.005  14.457  0.5191  0.0918  0.5258
  198DOPC   H8R24547   6.678   7.977  14.535  0.8228 -0.7457  0.5277
  198DOPC   H8S24548   6.850   8.026  14.504  1.8348  3.2522 -3.0895
  198DOPC   C2924549   6.743   7.899  14.354 -0.0773  0.6278 -0.2863
  198DOPC   H9R24550   6.775   7.927  14.252  0.4539 -0.3237 -0.3952
  198DOPC  C21024551   6.700   7.768  14.379 -0.5665 -0.0059 -0.3950
  198DOPC  H10R24552   6.702   7.692  14.300  3.4352 -0.6831  0.1536
  198DOPC  C21124553   6.650   7.719  14.514 -0.4581 -0.4727 -0.2435
  198DOPC  H11R24554   6.567   7.776  14.560 -1.2222 -3.3681  2.2909
  198DOPC  H11S24555   6.737   7.725  14.583  0.2363 -0.7224 -1.0792
  198DOPC  C21224556   6.593   7.579  14.510  1.0918 -0.5609  0.0944
  198DOPC  H12R24557   6.678   7.508  14.503 -0.0038 -1.9654  0.4515
  198DOPC  H12S24558   6.539   7.561  14.415 -1.0090 -0.2688  1.1590
  198DOPC  C21324559   6.492   7.527  14.620  0.4200  0.5727  0.3631
  198DOPC  H13R24560   6.532   7.547  14.722 -0.3621  0.9116  0.6065
  198DOPC  H13S24561   6.486   7.417  14.613 -1.7842  0.6544  0.3652
  198DOPC  C21424562   6.350   7.588  14.609 -0.4815  0.6120  0.3198
  198DOPC  H14R24563   6.302   7.540  14.521  2.9978 -0.6408 -1.0685
  198DOPC  H14S24564   6.352   7.699  14.610 -2.9223  0.7128  2.0413
  198DOPC  C21524565   6.270   7.572  14.735  0.7654 -0.4354  0.7633
  198DOPC  H15R24566   6.331   7.609  14.820  0.1303  0.4592  0.8423
  198DOPC  H15S24567   6.254   7.462  14.745 -3.4977  0.0344  0.9713
  198DOPC  C21624568   6.132   7.633  14.737 -0.5477 -0.1514 -0.5846
  198DOPC  H16R24569   6.081   7.621  14.639 -1.4522 -2.3817  0.0797
  198DOPC  H16S24570   6.135   7.742  14.759 -2.6703  0.6155 -3.5080
  198DOPC  C21724571   6.045   7.575  14.859  0.0074 -0.0942 -0.1016
  198DOPC  H17R24572   5.950   7.632  14.865  0.4335  0.5590  0.8067
  198DOPC  H17S24573   6.089   7.609  14.956 -0.7778 -1.0640  0.6119
  198DOPC  C21824574   6.030   7.421  14.874 -0.7928  0.1672  0.2701
  198DOPC  H18R24575   6.126   7.365  14.876 -1.2414 -0.6445 -0.5192
  198DOPC  H18S24576   5.966   7.382  14.792  0.2792  0.3322 -0.6746
  198DOPC  H18T24577   5.981   7.397  14.971 -0.2928 -0.7837  0.3017
  198DOPC   C3324578   6.391   8.620  14.418 -0.8622 -0.5040 -1.0897
  198DOPC   H3X24579   6.303   8.676  14.380 -1.9143 -1.6819 -0.4445
  198DOPC   H3Y24580   6.475   8.692  14.428 -1.3002  0.0382 -1.2664
  198DOPC   C3424581   6.380   8.542  14.555  0.9266 -0.1705 -0.4076
  198DOPC   H4X24582   6.389   8.616  14.638  2.5697  0.2169 -0.9059
  198DOPC   H4Y24583   6.465   8.471  14.563  0.9737 -0.1160 -0.4273
  198DOPC   C3524584   6.242   8.476  14.580  0.2777 -0.1418 -0.3084
  198DOPC   H5X24585   6.246   8.385  14.517 -0.7838 -0.3664 -0.0734
  198DOPC   H5Y24586   6.153   8.534  14.549  0.7452  0.8776  0.2142
  198DOPC   C3624587   6.213   8.422  14.721  0.1462 -0.6562  0.5611
  198DOPC   H6X24588   6.209   8.509  14.791  3.0319 -0.8234  1.0568
  198DOPC   H6Y24589   6.110   8.382  14.717  0.2454 -1.1566 -5.0013
  198DOPC   C3724590   6.308   8.326  14.786  0.6666 -0.1379  0.3755
  198DOPC   H7X24591   6.327   8.243  14.715  2.3219  0.5439 -0.0475
  198DOPC   H7Y24592   6.402   8.385  14.801 -0.2891  1.9562 -1.3468
  198DOPC   C3824593   6.254   8.259  14.908 -0.4491  0.0116 -0.0264
  198DOPC   H8X24594   6.334   8.190  14.942 -0.5582 -0.2046 -0.2065
  198DOPC   H8Y24595   6.168   8.194  14.881  0.4634 -1.0241 -0.5167
  198DOPC   C3924596   6.229   8.367  15.016 -0.0061 -0.5198  0.1559
  198DOPC   H9X24597   6.306   8.446  15.012  0.1615 -0.7371 -1.8276
  198DOPC  C31024598   6.139   8.373  15.115  0.5481  0.1395  0.0292
  198DOPC  H10X24599   6.142   8.456  15.186  0.2350  0.2432 -0.0775
  198DOPC  C31124600   6.020   8.274  15.141  0.1024  0.0807 -0.1292
  198DOPC  H11X24601   6.047   8.202  15.221 -0.3107  1.7409  1.5568
  198DOPC  H11Y24602   6.008   8.202  15.057 -0.3666  0.4636 -0.3940
  198DOPC  C31224603   5.888   8.348  15.159  0.5443  0.1500  0.1964
  198DOPC  H12X24604   5.907   8.414  15.246 -1.6277  0.5315  0.4347
  198DOPC  H12Y24605   5.808   8.276  15.185 -1.1698  0.6185 -3.2014
  198DOPC  C31324606   5.844   8.435  15.038 -0.1353 -0.3509 -0.6387
  198DOPC  H13X24607   5.756   8.497  15.067  0.7489 -0.3481  2.3241
  198DOPC  H13Y24608   5.921   8.509  15.010 -0.6643  0.4452 -0.0397
  198DOPC  C31424609   5.810   8.358  14.908  0.1983 -0.2851 -0.6454
  198DOPC  H14X24610   5.889   8.284  14.881 -0.2594 -0.7552 -0.7121
  198DOPC  H14Y24611   5.721   8.297  14.936 -1.0214  0.0851 -3.4082
  198DOPC  C31524612   5.780   8.444  14.790 -0.0117 -0.0166  0.1787
  198DOPC  H15X24613   5.883   8.483  14.776  1.2138 -2.7963  0.6984
  198DOPC  H15Y24614   5.711   8.524  14.823 -0.3258 -0.5927  0.9588
  198DOPC  C31624615   5.728   8.371  14.671  0.2594  0.3654 -0.0836
  198DOPC  H16X24616   5.808   8.301  14.639  0.2424 -0.2571  1.1693
  198DOPC  H16Y24617   5.652   8.297  14.705 -0.0196  1.0072  0.7456
  198DOPC  C31724618   5.676   8.448  14.550 -0.8026 -0.6584 -0.1648
  198DOPC  H17X24619   5.608   8.528  14.587 -1.6495 -2.1808  1.7295
  198DOPC  H17Y24620   5.760   8.494  14.492 -1.9252 -1.9431 -2.9851
  198DOPC  C31824621   5.593   8.362  14.450  0.0238  0.0140 -0.0400
  198DOPC  H18X24622   5.502   8.328  14.504  0.9422 -3.9964 -0.6831
  198DOPC  H18Y24623   5.566   8.427  14.364 -0.7585 -2.3382 -1.6675
  198DOPC  H18Z24624   5.644   8.272  14.409 -2.4940 -1.2340 -0.6048
  199DOPC     N24625   5.046   8.357  13.047  0.1084 -0.6661 -0.0431
  199DOPC   C1224626   5.098   8.343  13.188 -0.0404  0.4056 -0.0248
  199DOPC  H12A24627   5.166   8.424  13.207 -0.8138  0.9912  0.3537
  199DOPC  H12B24628   5.155   8.252  13.184 -1.2423 -0.4383  0.8935
  199DOPC   C1324629   4.917   8.280  13.017  0.1122 -0.2229  0.1887
  199DOPC  H13A24630   4.927   8.173  13.027  1.0434 -0.2529 -0.8283
  199DOPC  H13B24631   4.833   8.315  13.074 -0.8214 -0.7724 -0.8077
  199DOPC  H13C24632   4.906   8.296  12.910  3.0080 -0.0870 -0.1744
  199DOPC   C1424633   5.148   8.308  12.957 -0.2418  0.2466  0.0636
  199DOPC  H14A24634   5.113   8.322  12.855  1.0029  0.8350 -0.2963
  199DOPC  H14B24635   5.244   8.358  12.960  0.2853 -0.7868  1.0818
  199DOPC  H14C24636   5.166   8.202  12.959 -0.4598  0.1412 -1.6576
  199DOPC   C1524637   5.015   8.501  13.016 -0.3507  0.0708 -0.0076
  199DOPC  H15A24638   4.941   8.542  13.083 -2.2215 -1.2454 -1.1765
  199DOPC  H15B24639   4.981   8.512  12.915  0.4182  1.9978 -0.1152
  199DOPC  H15C24640   5.107   8.559  13.011 -0.5564  0.6159  1.7656
  199DOPC   C1124641   4.992   8.331  13.310 -0.2743  0.1340 -0.1103
  199DOPC  H11A24642   4.914   8.257  13.286 -0.9470  0.0930  1.9920
  199DOPC  H11B24643   5.037   8.277  13.396  2.2050  0.4407 -1.1135
  199DOPC     P24644   4.997   8.565  13.402 -0.2749  0.3308 -0.1034
  199DOPC   O1324645   4.928   8.693  13.363 -0.0465  0.1162 -0.4236
  199DOPC   O1424646   5.143   8.554  13.379 -0.0416 -0.0024 -1.0613
  199DOPC   O1224647   4.923   8.443  13.334  0.7521 -0.4054 -0.1154
  199DOPC   O1124648   4.965   8.539  13.553  0.1683 -0.3576 -0.1377
  199DOPC    C124649   4.825   8.552  13.592 -0.1322 -0.1143  0.2014
  199DOPC    HA24650   4.789   8.453  13.629  0.2657 -0.6606 -0.8339
  199DOPC    HB24651   4.759   8.578  13.507  2.4067  0.2657 -1.8059
  199DOPC    C224652   4.807   8.661  13.700  0.5220 -0.2059  0.2421
  199DOPC    HS24653   4.833   8.760  13.657 -0.2888 -0.2352 -0.3427
  199DOPC   O2124654   4.892   8.621  13.811 -0.3703  0.0580  0.0723
  199DOPC   C2124655   4.990   8.693  13.854  0.5267  0.0369  0.6396
  199DOPC   O2224656   5.030   8.796  13.800 -0.4855 -0.1125 -0.5053
  199DOPC   C2224657   5.039   8.618  13.978 -0.2199 -0.1208  0.3487
  199DOPC   H2R24658   5.145   8.598  13.952 -0.3593  0.2055 -0.5053
  199DOPC   H2S24659   4.991   8.518  13.991 -0.3125 -0.5009 -2.2953
  199DOPC    C324660   4.654   8.651  13.752 -0.5912  0.4436  0.4878
  199DOPC    HX24661   4.641   8.543  13.773 -0.3578  0.3722  0.2685
  199DOPC    HY24662   4.589   8.675  13.666 -0.7967  2.1425  1.0695
  199DOPC   O3124663   4.625   8.726  13.870  0.6264 -0.4904  0.0522
  199DOPC   C3124664   4.506   8.782  13.880 -0.3520 -0.0902  0.7931
  199DOPC   O3224665   4.421   8.772  13.792 -0.7877 -1.1833  0.0361
  199DOPC   C3224666   4.483   8.834  14.020 -0.0128 -0.2499  0.1723
  199DOPC   H2X24667   4.447   8.742  14.072  1.4327  0.0655  1.8134
  199DOPC   H2Y24668   4.582   8.854  14.066  1.1839 -0.4053 -2.1865
  199DOPC   C2324669   5.055   8.703  14.105  0.6139  0.1951  0.1462
  199DOPC   H3R24670   4.957   8.715  14.156 -0.0481  2.6588 -1.5333
  199DOPC   H3S24671   5.090   8.804  14.076 -1.5790  0.6748 -1.0118
  199DOPC   C2424672   5.144   8.627  14.210 -0.0879  0.0475 -0.3753
  199DOPC   H4R24673   5.246   8.636  14.167 -0.6317 -0.7128 -1.9058
  199DOPC   H4S24674   5.105   8.524  14.208  1.5282 -0.6030 -0.2421
  199DOPC   C2524675   5.140   8.678  14.357  0.0333 -0.1146  0.5774
  199DOPC   H5R24676   5.039   8.677  14.403 -0.9948  1.0475 -1.5074
  199DOPC   H5S24677   5.173   8.784  14.356  0.2540 -0.1866 -0.3702
  199DOPC   C2624678   5.238   8.599  14.445 -0.2304 -0.8658 -0.4879
  199DOPC   H6R24679   5.337   8.599  14.394 -0.3131 -2.5767 -0.7117
  199DOPC   H6S24680   5.202   8.495  14.462 -0.4660 -0.8472 -0.8612
  199DOPC   C2724681   5.274   8.665  14.577 -0.0196  0.4821  0.6681
  199DOPC   H7R24682   5.313   8.769  14.567  0.1222  0.2550 -1.9453
  199DOPC   H7S24683   5.352   8.600  14.622  1.5870  1.1523 -1.0464
  199DOPC   C2824684   5.154   8.681  14.669 -0.1716  0.1268 -0.5590
  199DOPC   H8R24685   5.073   8.739  14.618 -0.9319 -0.3476  0.0804
  199DOPC   H8S24686   5.191   8.739  14.756  0.1619  0.3063 -0.8194
  199DOPC   C2924687   5.105   8.551  14.716  0.0176 -0.1015 -0.4197
  199DOPC   H9R24688   5.028   8.497  14.659 -0.3201 -1.2658  1.0793
  199DOPC  C21024689   5.150   8.481  14.829  0.1104 -1.1732 -0.9576
  199DOPC  H10R24690   5.087   8.399  14.866 -1.2471  0.5879  0.8733
  199DOPC  C21124691   5.265   8.529  14.920  0.3968  0.2483  0.4909
  199DOPC  H11R24692   5.224   8.517  15.023 -1.0583 -0.4014 -0.1420
  199DOPC  H11S24693   5.285   8.638  14.908 -1.6776  0.5281 -0.8327
  199DOPC  C21224694   5.394   8.447  14.892 -0.2575 -0.3593 -0.0612
  199DOPC  H12R24695   5.481   8.491  14.945 -1.5394  0.6296  1.3208
  199DOPC  H12S24696   5.411   8.442  14.783 -0.1348  1.0985 -0.1217
  199DOPC  C21324697   5.386   8.299  14.945  0.5251  0.5989 -0.2798
  199DOPC  H13R24698   5.487   8.262  14.916 -0.4961  0.8269 -5.0061
  199DOPC  H13S24699   5.304   8.247  14.892 -0.2185 -0.8759  2.1544
  199DOPC  C21424700   5.357   8.301  15.100  0.3064 -0.2199  0.6758
  199DOPC  H14R24701   5.248   8.320  15.111 -0.0317 -0.9417 -1.1425
  199DOPC  H14S24702   5.417   8.385  15.141 -0.1261  0.5161 -0.1562
  199DOPC  C21524703   5.372   8.167  15.163 -0.2184  0.0801 -0.2537
  199DOPC  H15R24704   5.342   8.182  15.269 -0.5045 -2.9503  0.1960
  199DOPC  H15S24705   5.477   8.131  15.157 -0.8599 -2.1918  0.8810
  199DOPC  C21624706   5.286   8.053  15.100 -0.3405 -0.0450  0.5289
  199DOPC  H16R24707   5.306   8.051  14.991 -0.2959  0.4780  0.5248
  199DOPC  H16S24708   5.179   8.077  15.115 -0.4100 -0.5568  0.9043
  199DOPC  C21724709   5.322   7.911  15.155 -0.1963  0.1827  0.9233
  199DOPC  H17R24710   5.333   7.920  15.265 -0.8001  2.6721  0.8252
  199DOPC  H17S24711   5.417   7.872  15.112 -0.4483 -0.8427  1.2619
  199DOPC  C21824712   5.205   7.813  15.136 -0.0191 -0.2612  0.5407
  199DOPC  H18R24713   5.213   7.794  15.026 -1.5731  0.6030  0.2411
  199DOPC  H18S24714   5.111   7.866  15.160 -1.6950 -1.5109 -2.6072
  199DOPC  H18T24715   5.223   7.724  15.200 -2.2996 -1.7029 -0.6727
  199DOPC   C3324716   4.387   8.957  14.030 -0.3621  0.0193  0.1132
  199DOPC   H3X24717   4.287   8.941  13.984 -0.5198  0.5150  0.2826
  199DOPC   H3Y24718   4.431   9.043  13.976 -2.1909 -0.2661 -1.9559
  199DOPC   C3424719   4.364   8.988  14.181 -0.1414  0.1536 -0.0893
  199DOPC   H4X24720   4.331   8.891  14.227  0.6763 -0.8101 -1.4654
  199DOPC   H4Y24721   4.277   9.057  14.185  0.3821  1.1063 -2.9020
  199DOPC   C3524722   4.489   9.047  14.247  0.2006  0.4842  0.1763
  199DOPC   H5X24723   4.517   9.147  14.206  1.0544  0.1359 -0.1273
  199DOPC   H5Y24724   4.578   8.986  14.219 -0.5237 -0.6895  0.4195
  199DOPC   C3624725   4.463   9.068  14.397 -0.6568 -0.9194  0.2981
  199DOPC   H6X24726   4.376   9.135  14.409  1.4674  2.0259  0.3616
  199DOPC   H6Y24727   4.444   8.971  14.447  1.6990 -0.2929  2.6429
  199DOPC   C3724728   4.590   9.116  14.476 -0.3128 -0.3632  0.5021
  199DOPC   H7X24729   4.673   9.044  14.455  1.6123  1.1477  2.4437
  199DOPC   H7Y24730   4.630   9.213  14.439  4.9311 -1.1763  3.1094
  199DOPC   C3824731   4.578   9.107  14.626 -0.1453  0.5403 -0.3223
  199DOPC   H8X24732   4.519   9.016  14.652  0.8756  0.0749  0.4296
  199DOPC   H8Y24733   4.509   9.190  14.650 -2.1636 -0.8103 -1.1670
  199DOPC   C3924734   4.701   9.123  14.712 -0.2235  0.3913 -0.2193
  199DOPC   H9X24735   4.796   9.105  14.658 -0.2227 -1.9013  0.4356
  199DOPC  C31024736   4.715   9.180  14.836  0.6202 -0.0463  0.7604
  199DOPC  H10X24737   4.808   9.171  14.894  0.3613 -0.4705  1.1116
  199DOPC  C31124738   4.605   9.245  14.917  0.1587 -0.3621  0.0334
  199DOPC  H11X24739   4.505   9.212  14.881  1.1661 -3.0653 -0.4905
  199DOPC  H11Y24740   4.618   9.356  14.917  1.4834 -0.4906  1.6326
  199DOPC  C31224741   4.608   9.194  15.072  0.4886 -0.1363 -0.6793
  199DOPC  H12X24742   4.702   9.235  15.114 -1.5745  2.0530  2.2167
  199DOPC  H12Y24743   4.600   9.083  15.069 -1.5162 -0.0627  0.0155
  199DOPC  C31324744   4.500   9.252  15.162 -0.0188 -0.4662  0.3478
  199DOPC  H13X24745   4.403   9.211  15.127  0.0299 -0.7374  0.5308
  199DOPC  H13Y24746   4.512   9.227  15.269 -3.0458 -1.5275  0.5246
  199DOPC  C31424747   4.504   9.411  15.145 -0.7713 -0.2144  0.4181
  199DOPC  H14X24748   4.606   9.454  15.160 -0.0015 -2.6703  2.8576
  199DOPC  H14Y24749   4.466   9.432  15.042  1.3002 -1.0690 -0.5726
  199DOPC  C31524750   4.406   9.499  15.222  0.0323  0.3456  0.1064
  199DOPC  H15X24751   4.305   9.458  15.205  0.5341 -1.8979  1.9220
  199DOPC  H15Y24752   4.406   9.600  15.177 -1.1933  1.3399  2.1761
  199DOPC  C31624753   4.436   9.519  15.368 -0.4283  0.0111  0.0163
  199DOPC  H16X24754   4.483   9.427  15.410 -0.4525  0.1796  0.4127
  199DOPC  H16Y24755   4.518   9.594  15.366  1.3703 -1.7908  1.2084
  199DOPC  C31724756   4.338   9.571  15.462  0.1245  0.0630 -0.6451
  199DOPC  H17X24757   4.290   9.660  15.416 -2.9554 -0.2862  1.5673
  199DOPC  H17Y24758   4.255   9.499  15.475  1.2710 -1.1721  0.1774
  199DOPC  C31824759   4.383   9.614  15.608 -0.4142  0.0829  0.5565
  199DOPC  H18X24760   4.474   9.676  15.606  0.5771 -1.2847  1.4985
  199DOPC  H18Y24761   4.301   9.661  15.667 -1.8698  0.2010 -1.4505
  199DOPC  H18Z24762   4.419   9.519  15.653 -2.9039 -1.3246 -0.2202
  200DOPC     N24763   0.380   0.858  13.124  0.1152 -0.5737  0.3315
  200DOPC   C1224764   0.375   0.963  13.236 -0.6519 -0.1004 -0.6224
  200DOPC  H12A24765   0.470   0.951  13.286  0.7664  2.1474 -2.5400
  200DOPC  H12B24766   0.296   0.925  13.300  2.3714 -4.2673  1.0874
  200DOPC   C1324767   0.433   0.729  13.181 -0.8438  0.4708 -0.4763
  200DOPC  H13A24768   0.382   0.685  13.265 -0.2723  0.6183 -0.0499
  200DOPC  H13B24769   0.442   0.655  13.102  0.3419  0.4535 -0.3402
  200DOPC  H13C24770   0.530   0.751  13.222 -1.5977  1.8102  0.6670
  200DOPC   C1424771   0.469   0.910  13.011  0.4955 -0.6649 -0.4992
  200DOPC  H14A24772   0.572   0.910  13.043  0.1240  2.0705  0.9944
  200DOPC  H14B24773   0.457   0.865  12.914 -1.8007 -0.0170 -0.5805
  200DOPC  H14C24774   0.444   1.015  13.002 -0.9229 -0.7722  1.4773
  200DOPC   C1524775   0.239   0.829  13.066  0.1255 -0.4068 -0.1750
  200DOPC  H15A24776   0.160   0.841  13.138 -1.3737  1.4351 -1.9914
  200DOPC  H15B24777   0.225   0.729  13.028  0.8555 -0.5952  0.0385
  200DOPC  H15C24778   0.208   0.897  12.988 -0.9430 -0.2277  0.3935
  200DOPC   C1124779   0.340   1.109  13.216  0.2789  0.3693 -0.4948
  200DOPC  H11A24780   0.359   1.151  13.317 -4.0627  0.2084  0.5576
  200DOPC  H11B24781   0.400   1.176  13.150  1.0984  1.0225  0.8867
  200DOPC     P24782   0.086   1.144  13.268 -0.0689  0.0253  0.5911
  200DOPC   O1324783   0.057   1.019  13.341  0.1411 -0.0474  0.5767
  200DOPC   O1424784  -0.024   1.203  13.177  0.0748  0.4011  0.0872
  200DOPC   O1224785   0.203   1.116  13.168 -0.5714  0.2760  0.0009
  200DOPC   O1124786   0.140   1.258  13.364  0.1417 -0.4217 -0.3022
  200DOPC    C124787   0.046   1.298  13.472 -0.3136  0.1466  0.6965
  200DOPC    HA24788  -0.050   1.243  13.478 -2.0817  2.9962  0.4411
  200DOPC    HB24789   0.008   1.400  13.452  2.3948  1.4150  1.5197
  200DOPC    C224790   0.115   1.277  13.608 -0.1108 -0.9797  0.1569
  200DOPC    HS24791   0.215   1.325  13.598  0.6511 -1.9041  2.6278
  200DOPC   O2124792   0.131   1.141  13.633 -0.6000  0.6386 -0.3457
  200DOPC   C2124793   0.262   1.104  13.639  0.6606 -0.1923  0.7222
  200DOPC   O2224794   0.360   1.176  13.650  0.0827 -0.0263  0.0883
  200DOPC   C2224795   0.272   0.953  13.616  0.5863 -0.8404  0.2430
  200DOPC   H2R24796   0.369   0.925  13.569  0.3511 -0.1195 -0.7037
  200DOPC   H2S24797   0.186   0.923  13.552 -0.1349 -0.8763  1.2077
  200DOPC    C324798   0.046   1.348  13.728 -0.5038 -0.1835 -0.1345
  200DOPC    HX24799  -0.064   1.330  13.726 -0.1151 -3.1921  0.7378
  200DOPC    HY24800   0.043   1.458  13.716  0.7147 -0.1968 -0.6412
  200DOPC   O3124801   0.102   1.310  13.851 -0.6092  0.6520 -0.5473
  200DOPC   C3124802   0.207   1.387  13.888 -0.5817 -0.0290 -0.0863
  200DOPC   O3224803   0.261   1.470  13.818  0.2364  0.0662  0.7811
  200DOPC   C3224804   0.239   1.351  14.039 -0.0579  0.1227  0.7674
  200DOPC   H2X24805   0.134   1.333  14.071 -0.6164 -0.9608 -1.4718
  200DOPC   H2Y24806   0.289   1.252  14.048 -0.0720  0.2709  2.8169
  200DOPC   C2324807   0.258   0.891  13.761 -1.0509  0.1870 -0.8742
  200DOPC   H3R24808   0.172   0.937  13.814  0.2308 -1.4098  2.9351
  200DOPC   H3S24809   0.351   0.909  13.819 -1.0454  0.2139 -0.8925
  200DOPC   C2424810   0.233   0.740  13.759  0.3592 -0.3641  0.3276
  200DOPC   H4R24811   0.316   0.685  13.711  1.7426  1.5649  0.4443
  200DOPC   H4S24812   0.140   0.744  13.697  0.1143 -0.3136  0.6909
  200DOPC   C2524813   0.200   0.681  13.892 -0.5974 -0.4573 -1.0390
  200DOPC   H5R24814   0.145   0.755  13.955 -0.3647 -2.7172  2.0705
  200DOPC   H5S24815   0.298   0.665  13.943 -0.6764  2.4867  0.2693
  200DOPC   C2624816   0.126   0.542  13.895  0.0300  0.8133 -0.5749
  200DOPC   H6R24817   0.200   0.475  13.848 -1.5317 -1.7993  0.5064
  200DOPC   H6S24818   0.036   0.554  13.831 -0.1649 -0.2656 -0.5068
  200DOPC   C2724819   0.094   0.492  14.037  0.8033  0.2843  0.1792
  200DOPC   H7R24820   0.193   0.485  14.088  0.6868  0.2333  0.4008
  200DOPC   H7S24821   0.044   0.393  14.030 -2.2380  1.7571 -0.8275
  200DOPC   C2824822   0.017   0.593  14.130 -0.2013  0.4227 -0.0655
  200DOPC   H8R24823  -0.069   0.629  14.069 -2.0993 -3.1967  0.2205
  200DOPC   H8S24824   0.090   0.674  14.148 -1.0324  1.0023  0.8002
  200DOPC   C2924825  -0.032   0.530  14.256  0.1488  0.9051 -0.2027
  200DOPC   H9R24826  -0.140   0.510  14.257  0.3167 -0.0682 -1.0157
  200DOPC  C21024827   0.033   0.499  14.367  0.4394  0.7853  0.0150
  200DOPC  H10R24828  -0.013   0.442  14.449  1.9273 -0.6575 -0.0982
  200DOPC  C21124829   0.182   0.513  14.369  0.2900 -0.3386  0.4648
  200DOPC  H11R24830   0.231   0.580  14.296  2.1493 -0.4157  1.5975
  200DOPC  H11S24831   0.220   0.409  14.366  0.7508 -0.1669  0.2653
  200DOPC  C21224832   0.218   0.564  14.514  0.2508  0.4686  0.1766
  200DOPC  H12R24833   0.329   0.560  14.517  0.4705  2.0945 -2.5349
  200DOPC  H12S24834   0.174   0.501  14.594  1.2888  1.5149  1.6232
  200DOPC  C21324835   0.184   0.716  14.534  0.1951 -0.0321  0.5065
  200DOPC  H13R24836   0.076   0.728  14.510  0.4220 -1.3017 -1.3504
  200DOPC  H13S24837   0.236   0.770  14.453 -1.7123  3.7298  1.5418
  200DOPC  C21424838   0.225   0.799  14.659 -0.1654  0.0504  0.2804
  200DOPC  H14R24839   0.161   0.759  14.740 -0.9248 -2.0972 -1.2839
  200DOPC  H14S24840   0.195   0.905  14.641 -0.9423 -0.2347 -0.1481
  200DOPC  C21524841   0.371   0.787  14.695  0.4756  0.4517  0.1255
  200DOPC  H15R24842   0.432   0.816  14.607  0.1291 -1.4192 -0.7808
  200DOPC  H15S24843   0.405   0.682  14.711  0.2167  0.6221  2.1735
  200DOPC  C21624844   0.410   0.880  14.815 -0.0279 -0.4008  0.6217
  200DOPC  H16R24845   0.386   0.983  14.783  0.7594 -0.3098  0.2996
  200DOPC  H16S24846   0.519   0.866  14.828  0.0084 -0.1586  0.5807
  200DOPC  C21724847   0.333   0.848  14.943 -0.6622 -0.8525 -0.1793
  200DOPC  H17R24848   0.387   0.767  14.997  2.2743 -0.3654 -2.1291
  200DOPC  H17S24849   0.229   0.831  14.910 -0.0687 -0.0253 -2.6488
  200DOPC  C21824850   0.331   0.968  15.042 -0.0702  0.2222  0.4209
  200DOPC  H18R24851   0.263   1.048  15.005 -0.5213  0.1281  1.0294
  200DOPC  H18S24852   0.433   1.001  15.070  1.0418 -1.5358 -1.3186
  200DOPC  H18T24853   0.290   0.931  15.138  1.3695  0.1340  1.0265
  200DOPC   C3324854   0.315   1.460  14.102 -0.4760 -0.4170 -0.7713
  200DOPC   H3X24855   0.319   1.435  14.210  1.5758  2.6007 -0.0100
  200DOPC   H3Y24856   0.266   1.560  14.093  0.5778  0.1611 -0.1978
  200DOPC   C3424857   0.452   1.480  14.050 -0.3307 -0.0389  0.3683
  200DOPC   H4X24858   0.452   1.533  13.953  1.6297  0.8714  0.8273
  200DOPC   H4Y24859   0.497   1.380  14.028 -0.7968  0.4833 -3.7773
  200DOPC   C3524860   0.537   1.555  14.155  0.0628  0.3415 -0.0224
  200DOPC   H5X24861   0.534   1.505  14.254  4.1018 -0.1618  0.0262
  200DOPC   H5Y24862   0.501   1.660  14.153 -1.4952 -0.0964  1.8295
  200DOPC   C3624863   0.693   1.564  14.117  0.3139 -0.5153 -0.2772
  200DOPC   H6X24864   0.735   1.461  14.121  0.2826 -0.4761  1.9851
  200DOPC   H6Y24865   0.694   1.601  14.012  0.2557 -5.0434 -2.1246
  200DOPC   C3724866   0.780   1.650  14.205 -0.1121  0.0995 -0.8121
  200DOPC   H7X24867   0.886   1.652  14.173  0.3474 -0.4310  0.5909
  200DOPC   H7Y24868   0.739   1.753  14.193  1.2347  0.9320  1.1790
  200DOPC   C3824869   0.788   1.604  14.356 -0.0043 -0.3821  0.2074
  200DOPC   H8X24870   0.837   1.504  14.357 -0.6346 -0.7709 -2.1671
  200DOPC   H8Y24871   0.689   1.587  14.401 -0.2698  0.1704 -0.1597
  200DOPC   C3924872   0.872   1.695  14.433 -0.3341  0.2561 -0.5300
  200DOPC   H9X24873   0.975   1.658  14.437 -0.2247  0.6654  1.2089
  200DOPC  C31024874   0.851   1.809  14.504  0.1714 -0.2981  0.9301
  200DOPC  H10X24875   0.920   1.856  14.575 -2.0986  1.4393  2.1354
  200DOPC  C31124876   0.722   1.889  14.519  0.1779  0.3591 -0.7531
  200DOPC  H11X24877   0.645   1.825  14.472  1.0464 -3.4532  2.4849
  200DOPC  H11Y24878   0.732   1.988  14.470 -0.3078  0.8275  0.0880
  200DOPC  C31224879   0.681   1.902  14.666 -0.0959 -0.1158 -0.7244
  200DOPC  H12X24880   0.718   1.812  14.721  0.9970  1.0461  0.5321
  200DOPC  H12Y24881   0.571   1.912  14.677 -0.0359 -1.9430  3.2982
  200DOPC  C31324882   0.731   2.034  14.723 -0.8496 -0.4381 -0.5307
  200DOPC  H13X24883   0.842   2.045  14.714 -0.7282  0.3176  1.5273
  200DOPC  H13Y24884   0.709   2.112  14.648  1.0983 -1.9540 -2.8650
  200DOPC  C31424885   0.675   2.072  14.864 -0.2307  0.4917  0.3456
  200DOPC  H14X24886   0.564   2.082  14.858 -0.1345  1.0179 -0.7199
  200DOPC  H14Y24887   0.688   1.978  14.922 -0.6078  0.1174 -0.1588
  200DOPC  C31524888   0.737   2.194  14.934  0.2535  0.1917 -0.0621
  200DOPC  H15X24889   0.704   2.287  14.884 -2.4896 -1.5069 -1.6284
  200DOPC  H15Y24890   0.846   2.189  14.910  0.2765  0.9146 -0.1249
  200DOPC  C31624891   0.730   2.200  15.094  0.4802 -0.1404 -0.1371
  200DOPC  H16X24892   0.758   2.110  15.153 -0.7678 -0.5206 -0.0823
  200DOPC  H16Y24893   0.776   2.299  15.115 -0.9688  0.9585 -1.7934
  200DOPC  C31724894   0.576   2.213  15.144  0.2151 -0.2778  0.1283
  200DOPC  H17X24895   0.530   2.290  15.078  1.1411 -0.3815 -0.6590
  200DOPC  H17Y24896   0.538   2.114  15.109 -1.3023 -0.0497  1.0445
  200DOPC  C31824897   0.550   2.226  15.286  0.0636  0.3047  0.3717
  200DOPC  H18X24898   0.619   2.155  15.335 -1.0205  0.1030  1.6583
  200DOPC  H18Y24899   0.567   2.329  15.324  1.3695  0.6013 -0.9280
  200DOPC  H18Z24900   0.446   2.196  15.311 -0.0277 -1.1967 -1.5287
  201SOD    SOD24901   3.983   3.083  17.673  0.2280  0.0824 -0.2615
  202SOD    SOD24902   0.413   7.054  13.471 -0.0107 -0.2749  0.7628
  203SOD    SOD24903   0.926   2.571  17.361 -0.1439 -0.2842 -0.0346
  204SOD    SOD24904   5.821   3.561  12.826  0.0852 -0.3908  0.5544
  205SOD    SOD24905   6.732   3.125  17.427 -0.1650 -0.1521 -0.4031
  206SOD    SOD24906   1.188   2.211  13.017 -0.3340 -0.0728  0.2653
  207SOD    SOD24907   5.436   0.149  13.008 -0.1956  0.2041  0.0915
  208SOD    SOD24908   0.824   6.726  17.044 -0.5752  0.0607  0.4502
  209SOD    SOD24909   7.257   6.889  13.244  0.2289  0.3013 -0.0848
  210SOD    SOD24910   5.614   6.347  16.694  0.1576 -0.4143  0.1805
  211SOD    SOD24911   5.338   2.362  18.037  0.1305 -0.4116 -0.7050
  212SOD    SOD24912   3.513   1.160  18.169 -0.2941 -0.3226  0.1254
  213SOD    SOD24913   0.626   2.912  12.392 -0.2909 -0.5896 -0.0245
  214SOD    SOD24914   8.312   1.093  16.770 -0.1860  0.3195  0.3552
  215SOD    SOD24915   6.034   6.673  16.412  0.1966 -0.3772 -0.0135
  216SOD    SOD24916   0.365   4.278  17.968  0.0340  0.1438 -0.0966
  217SOD    SOD24917   6.932   4.030  12.606 -0.0584  0.6055 -0.1932
  218SOD    SOD24918   2.845   5.208  18.048 -0.2369  0.7705 -0.0399
  219SOD    SOD24919   0.726   6.627  18.942 -0.2474  0.2353 -0.0668
  220SOD    SOD24920   3.052   5.356  13.397  0.0768 -0.4556  0.0958
  221SOD    SOD24921   6.261   1.418  13.558 -0.2458  0.2874 -0.0812
  222SOD    SOD24922   7.682   3.087  17.773  0.3536 -0.6056 -0.2725
  223SOD    SOD24923   8.236   6.079  13.528  0.8765  0.1977  0.3159
  224SOD    SOD24924   7.806   3.376  12.892  0.1281 -0.2835 -0.0296
  225SOD    SOD24925   0.589   6.655  12.785  0.2372 -0.3532  0.1588
  226SOD    SOD24926   4.359   6.674  17.808  0.3194  0.0353 -0.4154
  227CLA    CLA24927   6.703   3.668  12.633 -0.4023 -0.1836  0.1014
  228CLA    CLA24928   7.478   6.820  13.078 -0.2433 -0.0879 -0.0160
  229CLA    CLA24929   6.628   5.173  13.072  0.1888 -0.1306 -0.3612
  230CLA    CLA24930   7.301   5.075  17.408 -0.0184 -0.3161  0.3170
  231CLA    CLA24931   3.393   1.058  17.709 -0.2925 -0.2362  0.1303
  232CLA    CLA24932   1.326   1.459  17.770 -0.2078  0.1031  0.3228
  233CLA    CLA24933   6.977   3.102  17.920 -0.0465  0.0215 -0.1829
  234CLA    CLA24934   3.853   4.574  18.091 -0.1888  0.2383  0.5866
  235CLA    CLA24935   7.544   6.838  12.173  0.0280 -0.2715 -0.1202
  236CLA    CLA24936   2.245   2.023  18.176  0.0339  0.2501  0.1335
  237CLA    CLA24937   0.665   7.748  18.210 -0.1070  0.1782 -0.0954
  238CLA    CLA24938   0.629   7.447  12.395  0.1593 -0.0291  0.2597
  239CLA    CLA24939   1.218   4.583  12.081 -0.0655 -0.1765 -0.0200
  240CLA    CLA24940   4.177   1.707  18.052  0.0142  0.0883  0.3046
  241CLA    CLA24941   4.529   4.221  13.077 -0.1919  0.1033 -0.0033
  242CLA    CLA24942   1.377   4.064  18.482 -0.2355 -0.5403 -0.0391
  243CLA    CLA24943   4.441   1.290  13.103  0.2370  0.1725  0.1789
  244CLA    CLA24944   7.103   4.243  11.959 -0.3068  0.1921 -0.1184
  245CLA    CLA24945   8.316   3.707  12.399 -0.3129  0.0218  0.3411
  246CLA    CLA24946   4.697   4.650  17.915 -0.0202 -0.3416 -0.2803
  247CLA    CLA24947   5.420   5.626  11.969  0.1490  0.1203 -0.1020
  248CLA    CLA24948   1.664   2.528  12.755 -0.3177  0.7306 -0.1788
  249CLA    CLA24949   5.270   0.224  12.835 -0.1707 -0.1856  0.3132
  250CLA    CLA24950   1.657   7.278  17.867 -0.3107 -0.4321  0.0964
  251CLA    CLA24951   3.610   6.944  17.835  0.2996  0.0636 -0.5335
  252CLA    CLA24952   2.681   3.523  12.769  0.2697 -0.8124 -0.0285
  253TIP3   OH224953   7.372   4.925  19.491 -0.0715  0.0070  0.1292
  253TIP3    H124954   7.334   4.900  19.575 -1.1578 -0.5141 -0.4927
  253TIP3    H224955   7.300   4.913  19.428  0.4032  1.4198 -0.7147
  254TIP3   OH224956   3.856   1.614  18.091 -0.1029  0.0991 -0.0819
  254TIP3    H124957   3.935   1.635  18.042 -1.0489 -0.3046 -1.8890
  254TIP3    H224958   3.841   1.521  18.073 -2.1598  0.6548 -1.6926
  255TIP3   OH224959   2.372   1.702  18.177  0.0622 -0.7227  0.0825
  255TIP3    H124960   2.370   1.797  18.174  0.4187 -0.7374 -2.7558
  255TIP3    H224961   2.281   1.676  18.191 -0.4617  0.0261 -1.7585
  256TIP3   OH224962   3.336   1.184  18.762 -0.3397  0.5280 -0.2471
  256TIP3    H124963   3.420   1.205  18.721 -0.1412 -0.9261 -0.6637
  256TIP3    H224964   3.314   1.261  18.813  1.1754  1.0068 -0.2662
  257TIP3   OH224965   1.439   5.697  18.579  0.4782  0.1914  0.5264
  257TIP3    H124966   1.472   5.753  18.649  0.5241  0.5014  0.2562
  257TIP3    H224967   1.389   5.755  18.522 -0.1348 -0.1860  0.6650
  258TIP3   OH224968   3.243   1.256  17.087 -0.2838 -0.4587  0.0493
  258TIP3    H124969   3.201   1.181  17.129 -0.5905 -1.6342 -2.2479
  258TIP3    H224970   3.336   1.247  17.109 -0.6287 -0.0922  1.8058
  259TIP3   OH224971   7.947   2.034  18.056 -0.2051 -0.9509 -0.4290
  259TIP3    H124972   7.998   1.990  17.989  1.3988  0.0505  0.0827
  259TIP3    H224973   7.857   2.030  18.024  0.7040  1.2084 -3.6832
  260TIP3   OH224974   0.825   1.136  18.242  0.2907  0.0959 -0.1917
  260TIP3    H124975   0.845   1.229  18.249  0.6901  0.0403 -0.5520
  260TIP3    H224976   0.901   1.098  18.199  0.6955 -0.6025  1.0664
  261TIP3   OH224977   0.931   2.719  17.538 -0.2859  0.1068 -0.4058
  261TIP3    H124978   0.951   2.674  17.620 -2.6862  2.7034  1.8262
  261TIP3    H224979   0.987   2.797  17.539  0.3661 -0.3256 -1.7663
  262TIP3   OH224980   3.649   6.348  18.666  0.1195 -0.4188 -0.2649
  262TIP3    H124981   3.711   6.344  18.739 -0.2366  2.3909  0.3345
  262TIP3    H224982   3.698   6.387  18.594 -0.8198  1.7061  0.1724
  263TIP3   OH224983   3.655   3.425  18.257  0.1240 -0.1798 -0.1548
  263TIP3    H124984   3.581   3.469  18.215 -1.4495 -1.8411  0.7317
  263TIP3    H224985   3.675   3.351  18.200 -0.4794 -1.0862  0.7680
  264TIP3   OH224986   6.881   1.937  16.753  0.0847 -0.3989  0.1854
  264TIP3    H124987   6.813   1.913  16.817 -0.0815  1.3809  0.7265
  264TIP3    H224988   6.963   1.927  16.800 -0.0665  1.4929  0.9487
  265TIP3   OH224989   6.350   6.743  17.235 -0.0744 -0.0303  0.0646
  265TIP3    H124990   6.415   6.810  17.215 -2.6217  3.1884  1.7000
  265TIP3    H224991   6.326   6.759  17.326 -2.7413 -1.4416 -0.2804
  266TIP3   OH224992   3.334   4.089  18.252  0.4216 -0.1291 -0.4355
  266TIP3    H124993   3.308   4.008  18.208  0.5833 -0.4808  0.1054
  266TIP3    H224994   3.402   4.062  18.314  0.4082  0.4032 -0.1827
  267TIP3   OH224995   3.037   7.076  16.641  0.2195  0.7352 -0.2581
  267TIP3    H124996   3.124   7.053  16.671 -0.6697 -1.7917  0.6576
  267TIP3    H224997   3.009   7.000  16.589 -2.3056  0.3123  1.5303
  268TIP3   OH224998   3.166   2.171  17.911 -0.5004 -0.4076  0.4417
  268TIP3    H124999   3.091   2.117  17.885  0.4601 -0.6723 -2.1071
  268TIP3    H225000   3.197   2.132  17.993 -0.0033 -3.6622 -1.1459
  269TIP3   OH225001   6.277   2.427  17.846 -0.4540  0.5374  0.2902
  269TIP3    H125002   6.285   2.333  17.864 -0.7586  0.2759 -0.8518
  269TIP3    H225003   6.344   2.444  17.780 -0.8543  0.9805 -0.0090
  270TIP3   OH225004   6.724   5.029  18.643 -0.6735  0.0933  0.5186
  270TIP3    H125005   6.630   5.037  18.657 -0.7486  0.4248 -0.1600
  270TIP3    H225006   6.762   5.043  18.730 -1.1716  1.3740  0.5460
  271TIP3   OH225007   0.530   8.309  18.163  0.1889  0.2374  0.1336
  271TIP3    H125008   0.563   8.360  18.237  2.2842  0.8802 -1.1667
  271TIP3    H225009   0.556   8.219  18.182  1.2865  0.4929 -0.0816
  272TIP3   OH225010   4.535   6.112  17.004 -0.0560 -0.4531 -0.2251
  272TIP3    H125011   4.504   6.193  17.045 -0.6196 -0.6714 -0.2138
  272TIP3    H225012   4.626   6.104  17.032 -0.7661 -1.2664  2.1083
  273TIP3   OH225013   3.433   0.810  17.081  0.4922  0.0521 -0.1904
  273TIP3    H125014   3.486   0.774  17.010 -0.1787  0.2611 -0.8054
  273TIP3    H225015   3.432   0.904  17.066 -0.7937 -0.0259 -0.7251
  274TIP3   OH225016   7.822   5.875  17.335 -0.0673  0.2824 -0.5244
  274TIP3    H125017   7.823   5.904  17.426 -0.5223 -0.7933 -0.1647
  274TIP3    H225018   7.771   5.793  17.336  0.9234 -0.3705 -1.5467
  275TIP3   OH225019   6.986   4.679  19.201 -0.5534 -0.2762  0.4084
  275TIP3    H125020   6.983   4.694  19.106 -0.9228 -2.2441  0.0649
  275TIP3    H225021   6.894   4.669  19.226 -0.5121  0.8875  1.1353
  276TIP3   OH225022   6.648   5.585  18.022  0.0304  0.0435  0.1308
  276TIP3    H125023   6.743   5.596  18.025  0.3559 -2.2992  1.2356
  276TIP3    H225024   6.635   5.519  17.953 -0.9484  1.2065 -0.8464
  277TIP3   OH225025   5.758   3.054  17.370 -0.3766 -0.2466  0.1558
  277TIP3    H125026   5.723   2.998  17.440 -2.5309  0.8648  0.0520
  277TIP3    H225027   5.692   3.050  17.301  1.4067 -0.7931 -1.6007
  278TIP3   OH225028   7.480   0.151  18.717 -0.4577 -0.1024 -0.2160
  278TIP3    H125029   7.437   0.236  18.705  3.0200  1.6010 -1.9789
  278TIP3    H225030   7.524   0.134  18.634  3.5014 -0.8388  1.8145
  279TIP3   OH225031   6.703   6.866  16.411  0.2155 -0.2748 -0.2522
  279TIP3    H125032   6.676   6.951  16.448 -0.4570 -0.2628 -0.7418
  279TIP3    H225033   6.625   6.811  16.419  0.5452 -0.7451 -0.2507
  280TIP3   OH225034   1.869   7.109  16.791  0.1089 -0.1042  0.2802
  280TIP3    H125035   1.888   7.156  16.872  0.4098 -0.6045  0.5055
  280TIP3    H225036   1.852   7.178  16.726  2.5067  0.4101  0.0995
  281TIP3   OH225037   3.050   6.498  17.700  0.7854  0.1067 -0.0972
  281TIP3    H125038   3.043   6.571  17.762  0.9068 -0.1326  0.1996
  281TIP3    H225039   3.034   6.538  17.615  1.5815  0.6202 -0.0215
  282TIP3   OH225040   6.357   6.277  17.852  0.0570 -0.0636  0.5051
  282TIP3    H125041   6.449   6.273  17.877 -0.5152 -0.6050  2.7475
  282TIP3    H225042   6.324   6.188  17.862 -0.4022 -0.2209 -1.7988
  283TIP3   OH225043   1.787   2.026  18.609 -0.2072  0.1932 -0.1023
  283TIP3    H125044   1.766   1.993  18.696 -0.5078  2.4206  0.7348
  283TIP3    H225045   1.706   2.069  18.580  0.7718  2.1153 -0.1370
  284TIP3   OH225046   1.296   4.597  12.742  0.4954 -0.2951  0.2226
  284TIP3    H125047   1.293   4.546  12.661 -1.0389 -0.5730  0.4223
  284TIP3    H225048   1.238   4.550  12.802  1.6855 -0.1523  1.5358
  285TIP3   OH225049   0.012   4.560  12.939 -0.3010 -0.0500 -0.2582
  285TIP3    H125050  -0.067   4.556  12.992  0.1917  1.9263  0.7254
  285TIP3    H225051   0.009   4.646  12.898  1.2100 -0.0314 -0.4034
  286TIP3   OH225052   0.669   4.676  13.871 -0.2924  0.0176  0.1249
  286TIP3    H125053   0.590   4.685  13.923  0.1940 -3.1427  1.6609
  286TIP3    H225054   0.740   4.703  13.930 -0.0671  5.4317 -2.0210
  287TIP3   OH225055   3.487   3.291  13.192  0.3479 -0.1151 -0.3494
  287TIP3    H125056   3.560   3.245  13.234 -0.4217 -0.8974  0.1793
  287TIP3    H225057   3.423   3.302  13.263  0.4245  1.6272 -0.5073
  288TIP3   OH225058   4.312   7.084  11.758 -0.5981  0.3137  0.4347
  288TIP3    H125059   4.252   7.011  11.746 -0.5260  0.4776 -1.2603
  288TIP3    H225060   4.368   7.081  11.681  0.0079  1.5999  0.8027
  289TIP3   OH225061   7.491   8.004  13.270  0.3543 -0.0619 -0.7821
  289TIP3    H125062   7.457   8.041  13.188 -0.0365 -0.4618 -0.8043
  289TIP3    H225063   7.413   7.980  13.319  0.5805  0.5936 -0.0915
  290TIP3   OH225064   8.224   3.565  13.020  0.2271  0.1047  0.4726
  290TIP3    H125065   8.191   3.654  13.034 -0.1859 -0.1855  1.4259
  290TIP3    H225066   8.315   3.577  12.995 -0.1986  0.8617 -0.8637
  291TIP3   OH225067   8.345   1.385  12.912 -0.3596  0.1854 -0.4362
  291TIP3    H125068   8.373   1.300  12.946  0.4679  0.2011 -1.0417
  291TIP3    H225069   8.396   1.396  12.832 -1.6903  0.4909 -1.2735
  292TIP3   OH225070   4.343   5.045  13.642  0.2872 -0.6934  0.3436
  292TIP3    H125071   4.288   4.975  13.609 -0.8460 -1.3734  3.3498
  292TIP3    H225072   4.418   5.000  13.681 -0.4151 -0.3293  2.2376
  293TIP3   OH225073   0.697   3.382  12.576 -0.0614 -0.0058 -0.2865
  293TIP3    H125074   0.777   3.407  12.529  0.3388 -1.8477 -0.6728
  293TIP3    H225075   0.727   3.366  12.666 -0.3211  0.9296 -0.0309
  294TIP3   OH225076   5.054   2.758  12.426 -0.1370 -0.5147 -0.1643
  294TIP3    H125077   5.127   2.799  12.471  0.5602  0.6521 -2.2421
  294TIP3    H225078   4.977   2.806  12.456  0.2260 -0.2314  0.3191
  295TIP3   OH225079   1.688   5.015  12.525 -0.0819 -0.7973  0.8574
  295TIP3    H125080   1.772   5.035  12.566  0.2361  2.3430 -0.9538
  295TIP3    H225081   1.711   4.983  12.438 -0.6627  1.1843 -0.0867
  296TIP3   OH225082   1.339   1.971  11.471  0.6798 -0.1088  0.1200
  296TIP3    H125083   1.434   1.985  11.474  0.7548 -0.6294  0.1666
  296TIP3    H225084   1.304   2.057  11.447  1.2913 -0.3912 -1.9175
  297TIP3   OH225085   2.627   6.638  13.073 -0.1348 -0.1370  0.4341
  297TIP3    H125086   2.657   6.704  13.010  1.1564 -1.2463 -0.1833
  297TIP3    H225087   2.649   6.676  13.158  1.8403 -0.2779  0.0494
  298TIP3   OH225088   7.226   1.780  12.244 -0.3716  0.1193 -0.0324
  298TIP3    H125089   7.313   1.804  12.276  0.0904 -1.7067  0.1906
  298TIP3    H225090   7.243   1.728  12.166 -1.2583 -0.4593  0.1478
  299TIP3   OH225091   6.510   1.085  13.846 -0.7171 -0.1724  0.2997
  299TIP3    H125092   6.415   1.083  13.857 -0.6762 -0.3596  0.6198
  299TIP3    H225093   6.533   0.994  13.825 -0.5889 -0.1603  0.3846
  300TIP3   OH225094   2.919   1.638  13.006 -0.3267 -0.3844 -0.2617
  300TIP3    H125095   2.886   1.704  13.067  0.1030 -1.0293  0.7036
  300TIP3    H225096   2.850   1.572  13.002  0.0942 -0.8882  0.4200
  301TIP3   OH225097   6.372   4.880  13.288 -0.3579 -0.0091  0.3567
  301TIP3    H125098   6.396   4.900  13.198  0.1989 -0.7197  0.3367
  301TIP3    H225099   6.399   4.957  13.338 -0.3100  0.2267 -0.0247
  302TIP3   OH225100   8.212   3.337  13.731 -0.2828  0.3051 -0.0961
  302TIP3    H125101   8.166   3.389  13.665 -2.9316 -1.8360 -0.1124
  302TIP3    H225102   8.179   3.370  13.815 -0.0897  0.2813 -0.0091
  303TIP3   OH225103   2.503   5.552  12.366 -0.1296  0.2900 -0.1814
  303TIP3    H125104   2.598   5.559  12.377 -0.0753 -0.0580 -0.4208
  303TIP3    H225105   2.470   5.530  12.453  0.0520 -0.0079 -0.1849
  304TIP3   OH225106   5.406   1.506  13.523 -0.2542  0.2257 -0.3846
  304TIP3    H125107   5.376   1.420  13.494 -0.6744  1.0240 -2.4580
  304TIP3    H225108   5.330   1.542  13.570 -0.1479 -0.4128  0.3135
  305TIP3   OH225109   4.601   0.855  12.725  0.4450 -0.5464 -0.1321
  305TIP3    H125110   4.658   0.924  12.694  1.4753 -0.4743  1.7563
  305TIP3    H225111   4.563   0.889  12.806 -1.4392 -1.0318 -0.7438
  306TIP3   OH225112   4.988   4.344  12.827  0.7296  0.4412  0.0218
  306TIP3    H125113   4.899   4.314  12.812  1.1895 -0.5370 -0.8711
  306TIP3    H225114   4.989   4.373  12.918 -0.3580 -0.0579  0.1995
  307TIP3   OH225115   1.531   7.853  13.069  0.4305 -0.0845  0.0999
  307TIP3    H125116   1.506   7.765  13.095  2.0278  0.0108  2.2468
  307TIP3    H225117   1.450   7.904  13.078  0.3464 -0.5457  3.0033
  308TIP3   OH225118   6.265   7.067  12.376  0.5416  0.0840 -0.3331
  308TIP3    H125119   6.298   6.988  12.334  0.3318 -0.2537  0.1263
  308TIP3    H225120   6.183   7.086  12.331  1.1824  0.7458 -1.2662
  309TIP3   OH225121   6.017   5.474  12.029  0.2617  0.1357 -0.4587
  309TIP3    H125122   6.000   5.553  11.977  2.4740  1.3276  0.4520
  309TIP3    H225123   6.033   5.406  11.964 -1.5271  0.4250 -1.2750
  310TIP3   OH225124   0.511   4.415  14.028 -0.5014 -0.3954  0.0590
  310TIP3    H125125   0.421   4.384  14.019 -1.0734  1.2561 -0.2056
  310TIP3    H225126   0.558   4.340  14.063 -2.0223 -1.2386  0.4017
  311TIP3   OH225127   3.976   1.193  11.831 -0.0123  0.0889 -0.1441
  311TIP3    H125128   4.010   1.245  11.758 -0.5045 -0.3800 -0.7198
  311TIP3    H225129   4.017   1.107  11.820 -0.1310 -0.0004  0.0989
  312TIP3   OH225130   6.888   1.899  11.621 -0.4039 -0.1076 -0.1447
  312TIP3    H125131   6.936   1.962  11.567 -1.0581 -1.4637 -2.4540
  312TIP3    H225132   6.928   1.814  11.599 -0.9188 -0.7517  1.3002
  313TIP3   OH225133   2.932   5.079  11.521  0.3642  0.5794  0.1966
  313TIP3    H125134   2.994   5.006  11.511 -0.6354 -0.2794  0.1411
  313TIP3    H225135   2.854   5.040  11.561 -0.6895  1.3456 -1.0280
  314TIP3   OH225136   7.516   7.805  11.921 -0.7586 -0.3128 -0.5305
  314TIP3    H125137   7.576   7.788  11.993 -2.8823 -2.5265  0.8901
  314TIP3    H225138   7.520   7.726  11.867  0.1091  0.9435 -2.3783
  315TIP3   OH225139   7.596   4.435  13.196 -0.5964  0.1988 -0.2399
  315TIP3    H125140   7.502   4.448  13.200 -1.0387 -2.3804 -0.8700
  315TIP3    H225141   7.611   4.349  13.235  1.4994  0.4628 -0.3165
  316TIP3   OH225142   2.952   0.874  12.741  0.3270  0.0089 -0.2975
  316TIP3    H125143   2.944   0.839  12.652  1.6267 -1.3116  0.0636
  316TIP3    H225144   3.008   0.951  12.731 -0.5278  0.5819 -0.7707
  317TIP3   OH225145   1.370   0.133  12.071 -0.0014  0.0568  0.1441
  317TIP3    H125146   1.357   0.082  11.992 -1.1792  0.6946 -0.1035
  317TIP3    H225147   1.435   0.199  12.047  1.4998 -1.2388  0.4584
  318TIP3   OH225148   7.125   4.132  12.753 -0.2802  0.0645 -0.1809
  318TIP3    H125149   7.214   4.145  12.723 -0.2875 -0.5650 -0.4872
  318TIP3    H225150   7.099   4.217  12.790  1.2540 -0.3443  2.0347
  319TIP3   OH225151   1.969   4.676  12.652 -0.0685 -0.1817 -0.0267
  319TIP3    H125152   1.942   4.704  12.565 -0.9133  0.5248  0.4452
  319TIP3    H225153   1.909   4.721  12.712 -0.4319 -1.7839  0.8568
  320TIP3   OH225154   5.064   1.416  13.639  0.1351 -0.2616 -0.1959
  320TIP3    H125155   5.124   1.486  13.663 -0.1144  0.2093 -0.9131
  320TIP3    H225156   5.110   1.367  13.571  0.7403 -1.4408  1.0293
  321TIP3   OH225157   3.111   6.780  12.450  0.3658 -0.0779 -0.5887
  321TIP3    H125158   3.107   6.694  12.492 -0.2702  0.6691  0.9649
  321TIP3    H225159   3.061   6.770  12.369 -0.6526 -0.8786  0.1207
  322TIP3   OH225160   4.458   1.876  13.076  0.1212  0.1187 -0.3282
  322TIP3    H125161   4.371   1.910  13.054 -0.7226 -2.1105 -0.6514
  322TIP3    H225162   4.457   1.868  13.171  0.2582  0.7715 -0.2658
  323TIP3   OH225163   8.203   3.954  17.609  0.1236 -0.0854 -0.1895
  323TIP3    H125164   8.238   4.014  17.675 -0.3936  1.1426 -0.9982
  323TIP3    H225165   8.117   3.928  17.643  0.9578 -1.5996  0.8809
  324TIP3   OH225166   7.238   0.703  16.503  0.2986  0.1023  0.3572
  324TIP3    H125167   7.247   0.712  16.598  2.9341 -0.2263  0.2137
  324TIP3    H225168   7.304   0.637  16.479  0.0381  0.5417 -1.7507
  325TIP3   OH225169   4.811   3.241  17.836 -0.0152  0.1580 -0.4241
  325TIP3    H125170   4.729   3.204  17.803  0.6743 -0.4911 -1.4466
  325TIP3    H225171   4.828   3.317  17.780 -0.2654  0.7096  0.2347
  326TIP3   OH225172   3.022   4.027  18.089 -0.8700 -0.1550  0.1754
  326TIP3    H125173   2.948   4.075  18.127 -1.9090  0.6954 -2.6178
  326TIP3    H225174   2.981   3.965  18.029  0.6303 -2.1654  1.1494
  327TIP3   OH225175   0.619   7.725  17.415  0.0423 -0.0738  0.0592
  327TIP3    H125176   0.610   7.638  17.455  1.2413 -0.4675 -0.4689
  327TIP3    H225177   0.712   7.730  17.392  0.5848  2.3007  2.2648
  328TIP3   OH225178   6.978   3.783  18.861  0.1250 -0.0571 -0.3451
  328TIP3    H125179   6.952   3.860  18.912  2.2915  1.5589 -1.4921
  328TIP3    H225180   6.921   3.785  18.784  1.3958  1.5708 -1.2949
  329TIP3   OH225181   6.709   5.048  16.717  0.2479 -0.0021  0.3380
  329TIP3    H125182   6.640   4.982  16.715  0.4072 -0.1578 -0.7228
  329TIP3    H225183   6.673   5.122  16.668  1.2154 -0.5088 -1.2217
  330TIP3   OH225184   8.367   2.791  17.633  0.2466 -0.5397  0.7421
  330TIP3    H125185   8.354   2.833  17.548  0.2604  0.7532  1.3671
  330TIP3    H225186   8.396   2.861  17.691  1.6220 -1.6661  1.4861
  331TIP3   OH225187   2.872   5.265  16.941  0.0965  0.8121 -0.5178
  331TIP3    H125188   2.899   5.354  16.919 -0.2620  1.3343  0.9754
  331TIP3    H225189   2.777   5.267  16.936  0.1060  0.3770 -0.9226
  332TIP3   OH225190   1.577   0.509  18.314  0.1663 -0.0778 -0.8127
  332TIP3    H125191   1.616   0.452  18.381 -1.2348 -1.0776 -0.7968
  332TIP3    H225192   1.523   0.571  18.364  1.3553  1.0393 -0.8592
  333TIP3   OH225193   3.696   0.508  17.394 -0.1491  0.2997 -0.5238
  333TIP3    H125194   3.648   0.591  17.392  0.4625  0.7789  1.8172
  333TIP3    H225195   3.786   0.532  17.369  0.2350  0.5498  1.0064
  334TIP3   OH225196   3.890   6.364  17.922 -0.6145 -0.5412  0.0128
  334TIP3    H125197   3.928   6.277  17.932  1.5071  0.3127 -0.2270
  334TIP3    H225198   3.805   6.358  17.967 -0.4474 -2.6531  0.1520
  335TIP3   OH225199   6.220   0.393  17.438  0.1780  0.3274  0.3920
  335TIP3    H125200   6.291   0.417  17.378 -0.2805  1.2007  0.1906
  335TIP3    H225201   6.165   0.333  17.387  1.4019 -1.3591  0.9449
  336TIP3   OH225202   6.962   3.504  18.954 -0.2754  0.4015  0.2644
  336TIP3    H125203   6.876   3.463  18.946 -0.3695  0.3081  1.5199
  336TIP3    H225204   6.954   3.587  18.907 -0.9782  0.2829  0.1668
  337TIP3   OH225205   1.909   1.126  17.502  0.4330  0.2710 -0.1002
  337TIP3    H125206   1.826   1.156  17.464  1.2847  1.7258 -0.9291
  337TIP3    H225207   1.890   1.038  17.533 -1.4129  0.5407 -0.2892
  338TIP3   OH225208   3.464   4.843  17.894 -0.2757  0.3502  0.2120
  338TIP3    H125209   3.370   4.837  17.875 -0.8052  3.0021  1.5978
  338TIP3    H225210   3.501   4.885  17.816 -0.0954 -1.2181 -0.5790
  339TIP3   OH225211   7.751   2.284  17.991 -1.0060  0.0121 -0.3226
  339TIP3    H125212   7.761   2.271  18.085 -1.3805  0.7131 -0.1807
  339TIP3    H225213   7.835   2.320  17.963 -1.5802  1.8129  0.1265
  340TIP3   OH225214   2.554   4.230  17.916  0.6358  0.2616 -0.5690
  340TIP3    H125215   2.640   4.231  17.959  0.3747  0.1002 -0.0359
  340TIP3    H225216   2.524   4.321  17.922 -0.6746 -0.2463  2.2304
  341TIP3   OH225217   7.572   0.759  19.258  0.1134  0.2097 -0.2165
  341TIP3    H125218   7.577   0.843  19.213  0.1199  0.4352  0.2022
  341TIP3    H225219   7.514   0.774  19.332  2.5598  0.7370  1.7464
  342TIP3   OH225220   2.459   2.900  18.570  0.4537  0.1329 -0.1062
  342TIP3    H125221   2.446   2.824  18.512  1.1351  0.0476 -0.1582
  342TIP3    H225222   2.370   2.934  18.586 -0.1776 -2.1773  1.9627
  343TIP3   OH225223   0.648   5.533  19.133  0.3964  0.3121 -0.5019
  343TIP3    H125224   0.604   5.610  19.098  0.0678 -0.5005 -1.9362
  343TIP3    H225225   0.740   5.546  19.112  0.5356  0.8936  0.3994
  344TIP3   OH225226   4.870   6.112  17.117  1.0391 -0.4585 -0.5142
  344TIP3    H125227   4.845   6.194  17.160 -1.4281  0.0553 -2.6492
  344TIP3    H225228   4.831   6.044  17.172  4.0386 -0.4525  1.8967
  345TIP3   OH225229   3.098   3.995  16.673  0.1076 -0.5952  0.4433
  345TIP3    H125230   3.076   4.088  16.670 -0.6677 -0.7482  1.1484
  345TIP3    H225231   3.131   3.975  16.585 -0.3152  0.1974  0.1002
  346TIP3   OH225232   8.123   4.152  19.193 -0.7073  1.1083 -0.0942
  346TIP3    H125233   8.104   4.231  19.141  0.0819  0.2704 -1.7429
  346TIP3    H225234   8.161   4.091  19.130 -1.0361 -0.5034  1.2103
  347TIP3   OH225235   5.507   1.322  17.743 -0.3761 -0.1346  0.3335
  347TIP3    H125236   5.448   1.380  17.791 -0.7732 -0.0946 -0.1950
  347TIP3    H225237   5.545   1.266  17.811 -0.8158  0.0182  0.7142
  348TIP3   OH225238   1.437   0.974  18.017  0.2752 -0.2458  0.0580
  348TIP3    H125239   1.446   1.025  17.937 -1.8860  1.7420  0.9735
  348TIP3    H225240   1.352   0.931  18.008  0.3569 -0.6130  0.9567
  349TIP3   OH225241   7.453   7.746  18.189 -0.1809 -0.2512  0.4665
  349TIP3    H125242   7.530   7.745  18.132  0.2003 -1.4383  0.9583
  349TIP3    H225243   7.477   7.806  18.260 -0.4719  0.8582 -0.3557
  350TIP3   OH225244   0.419   6.237  17.124  0.0796  0.3263 -0.0026
  350TIP3    H125245   0.457   6.157  17.087  0.8572  1.1651 -1.0777
  350TIP3    H225246   0.330   6.239  17.090  0.1756  0.1021 -0.2726
  351TIP3   OH225247   8.191   3.812  17.276 -0.1674  0.4340  0.7109
  351TIP3    H125248   8.131   3.879  17.306  0.0026  0.5360  0.8288
  351TIP3    H225249   8.235   3.850  17.200 -1.2122 -0.1493 -0.2070
  352TIP3   OH225250   6.234   1.686  18.385  0.3376  0.2227  0.5537
  352TIP3    H125251   6.195   1.773  18.373 -0.1470 -0.0409  0.1439
  352TIP3    H225252   6.300   1.698  18.453  0.0070  0.8293  0.7739
  353TIP3   OH225253   8.318   4.074  19.402 -0.3303  0.2697  0.0365
  353TIP3    H125254   8.248   4.094  19.339 -0.1803  1.6173  0.2534
  353TIP3    H225255   8.319   4.150  19.460  1.6821  0.5389 -0.2887
  354TIP3   OH225256   8.176   4.624  18.969  0.3373  0.0603 -0.9111
  354TIP3    H125257   8.263   4.653  18.994  0.7657 -0.5399 -1.6446
  354TIP3    H225258   8.119   4.653  19.040  1.3686 -0.8842  0.3552
  355TIP3   OH225259   0.256   3.226  18.171 -0.2957 -0.3918 -0.1796
  355TIP3    H125260   0.166   3.255  18.159 -0.4870 -0.5624  0.7430
  355TIP3    H225261   0.295   3.230  18.084 -0.5345  1.8621 -0.2205
  356TIP3   OH225262   3.874   3.259  16.755  0.1471  0.4056  0.3121
  356TIP3    H125263   3.958   3.220  16.731  0.4210  0.9040  0.4543
  356TIP3    H225264   3.809   3.195  16.727  0.4995  0.6200 -1.0555
  357TIP3   OH225265   7.243   1.343  16.445  0.2296 -0.2074  0.5605
  357TIP3    H125266   7.260   1.402  16.372 -0.6696 -0.1657  0.3683
  357TIP3    H225267   7.277   1.388  16.522  1.1876 -0.2520  0.1810
  358TIP3   OH225268   6.830   6.964  16.710  0.3204 -0.1165 -0.3011
  358TIP3    H125269   6.774   6.960  16.632  1.8545  0.3457 -1.4788
  358TIP3    H225270   6.828   7.057  16.734 -0.0812 -0.2449  0.1830
  359TIP3   OH225271   5.852   7.643  17.438  0.2472  0.3297  0.3481
  359TIP3    H125272   5.854   7.583  17.512  0.8856  0.4295  0.4168
  359TIP3    H225273   5.859   7.730  17.478 -1.8031  0.5333  0.3303
  360TIP3   OH225274   1.602   4.209  17.739 -0.2977  0.0775 -0.0111
  360TIP3    H125275   1.619   4.125  17.780 -0.7988  0.1413  0.3420
  360TIP3    H225276   1.668   4.217  17.670  0.0763 -0.3680  0.2954
  361TIP3   OH225277   7.827   2.562  18.814 -0.1868  0.4794 -0.1175
  361TIP3    H125278   7.923   2.557  18.823 -0.3276 -0.0171  1.5012
  361TIP3    H225279   7.802   2.633  18.874 -0.8598  0.3399 -0.2347
  362TIP3   OH225280   7.762   6.074  18.955 -0.4355 -0.3347  0.4571
  362TIP3    H125281   7.758   5.998  18.897 -0.9369 -0.4056  0.5808
  362TIP3    H225282   7.752   6.038  19.043  0.6913 -0.2690  0.6279
  363TIP3   OH225283   1.101   6.396  18.337  0.0092  0.2207 -0.3332
  363TIP3    H125284   1.158   6.328  18.301 -1.9610 -1.0839 -1.1260
  363TIP3    H225285   1.067   6.359  18.418 -3.1223 -1.0067 -2.0256
  364TIP3   OH225286   5.890   5.770  17.360 -0.0642 -0.0528  0.0003
  364TIP3    H125287   5.983   5.785  17.342 -0.2510  0.0187 -0.9758
  364TIP3    H225288   5.888   5.689  17.411  0.5224 -0.1757 -0.1650
  365TIP3   OH225289   5.269   0.847  17.089 -0.0675 -0.0468  0.0208
  365TIP3    H125290   5.213   0.799  17.150  0.7487  0.0951  0.9211
  365TIP3    H225291   5.209   0.893  17.031 -0.8640 -0.8797  0.1681
  366TIP3   OH225292   0.843   4.942  18.349 -0.0739 -0.2564  0.3948
  366TIP3    H125293   0.917   4.963  18.405  0.1049 -0.7895  0.3618
  366TIP3    H225294   0.795   5.025  18.340  0.1188 -0.0743  0.9992
  367TIP3   OH225295   6.279   3.341  18.609  0.2003  0.5591 -0.3359
  367TIP3    H125296   6.337   3.416  18.626 -0.5070  0.6687  1.9279
  367TIP3    H225297   6.191   3.378  18.610 -0.1402 -0.2377  0.5507
  368TIP3   OH225298   5.314   2.793  18.011  0.2212  0.3939  0.5586
  368TIP3    H125299   5.330   2.743  18.091 -1.0846 -0.6976  0.1650
  368TIP3    H225300   5.234   2.842  18.030  0.1111  0.4141  0.0501
  369TIP3   OH225301   4.936   0.690  18.794  0.0985 -0.1429  0.2227
  369TIP3    H125302   5.009   0.628  18.784  1.9244  1.5223  2.2405
  369TIP3    H225303   4.891   0.660  18.872  0.3618  0.4507  0.6070
  370TIP3   OH225304   3.778   7.829  17.944 -0.4432 -0.3768 -0.0191
  370TIP3    H125305   3.694   7.829  17.989  0.5149 -0.6718  1.8765
  370TIP3    H225306   3.775   7.906  17.887 -2.3133 -0.9000 -0.7085
  371TIP3   OH225307   4.421   5.508  16.699 -0.1670  0.2007  0.1906
  371TIP3    H125308   4.466   5.425  16.715 -0.9821 -0.0507  1.2855
  371TIP3    H225309   4.335   5.497  16.739  0.5666  2.4437  2.6581
  372TIP3   OH225310   3.809   4.999  18.847  0.1738  0.3419  0.7290
  372TIP3    H125311   3.734   4.947  18.873  1.3584 -1.3926  0.8672
  372TIP3    H225312   3.884   4.955  18.888  1.5454  0.4251 -1.5187
  373TIP3   OH225313   2.483   5.260  16.928 -0.1208 -0.0325 -0.4690
  373TIP3    H125314   2.442   5.242  17.013  0.9549 -0.9128 -0.0979
  373TIP3    H225315   2.507   5.173  16.895 -2.1022  0.1438 -2.5309
  374TIP3   OH225316   6.099   4.517  18.725  0.4276  0.1265 -0.2525
  374TIP3    H125317   6.088   4.469  18.807 -0.6762 -0.5639 -0.7688
  374TIP3    H225318   6.047   4.597  18.736 -0.3701 -0.3394 -0.5476
  375TIP3   OH225319   7.575   5.663  18.117  0.5927  0.1883  0.4112
  375TIP3    H125320   7.501   5.647  18.175 -0.9678  2.0795 -0.9158
  375TIP3    H225321   7.540   5.651  18.029  1.8229  1.1619 -0.2481
  376TIP3   OH225322   5.888   8.380  17.801  0.0380  0.3864  0.4208
  376TIP3    H125323   5.907   8.473  17.789  1.7494 -0.0863 -0.9411
  376TIP3    H225324   5.806   8.366  17.752 -0.6138  1.2801  1.2200
  377TIP3   OH225325   8.050   6.194  18.990 -0.2491  0.3564  0.2904
  377TIP3    H125326   7.955   6.176  18.988 -0.4804  0.9657  2.6256
  377TIP3    H225327   8.090   6.107  18.983 -0.9843  0.0420 -0.2094
  378TIP3   OH225328   1.308   1.838  17.908 -0.0680 -0.1066 -0.5619
  378TIP3    H125329   1.382   1.792  17.947  0.0241  0.3214 -0.2178
  378TIP3    H225330   1.234   1.778  17.917  0.0091 -0.1116  0.0608
  379TIP3   OH225331   4.011   5.222  18.558  0.4414  0.5180 -0.5881
  379TIP3    H125332   4.055   5.200  18.640 -1.1746 -0.7164  0.0244
  379TIP3    H225333   4.012   5.317  18.554  0.4762  0.6042  0.9255
  380TIP3   OH225334   1.428   5.381  17.163 -0.0233  0.1059  0.0190
  380TIP3    H125335   1.471   5.462  17.135  0.8747 -0.6090 -0.6924
  380TIP3    H225336   1.353   5.372  17.104  0.2684  0.0571 -0.3413
  381TIP3   OH225337   1.525   8.144  17.848 -0.3357  0.4255 -0.5842
  381TIP3    H125338   1.554   8.170  17.760  1.2772 -1.0631 -0.5561
  381TIP3    H225339   1.495   8.054  17.837  0.0174  0.1812  0.4211
  382TIP3   OH225340   1.369   0.363  17.230  0.0008  0.2707 -0.9298
  382TIP3    H125341   1.297   0.423  17.211 -0.6136 -0.4150 -0.8376
  382TIP3    H225342   1.361   0.295  17.162  0.7090  0.3149 -1.0609
  383TIP3   OH225343   6.981   7.646  17.254 -0.0415  0.1484 -0.2793
  383TIP3    H125344   6.904   7.643  17.311  0.9167  0.3059  1.0876
  383TIP3    H225345   7.017   7.557  17.259  0.3813  0.3239 -0.1357
  384TIP3   OH225346   0.837   4.561  17.963 -0.0300 -0.3449 -0.1328
  384TIP3    H125347   0.897   4.554  18.037 -0.8457 -0.4173  0.5431
  384TIP3    H225348   0.751   4.572  18.004 -0.7573 -2.2963 -1.0417
  385TIP3   OH225349   6.624   0.247  17.400 -0.6513 -0.4429  0.2144
  385TIP3    H125350   6.555   0.250  17.467 -0.2496 -3.0608  0.8823
  385TIP3    H225351   6.580   0.214  17.322 -0.4895 -0.4936  0.1446
  386TIP3   OH225352   0.971   4.574  19.147  0.2497  0.8442  0.1455
  386TIP3    H125353   0.881   4.589  19.175  0.5777  1.5577  0.8383
  386TIP3    H225354   1.019   4.651  19.177  0.6890  1.5239 -2.1312
  387TIP3   OH225355   1.601   6.639  17.297 -0.5202 -0.0236 -0.4665
  387TIP3    H125356   1.543   6.664  17.226  0.8791 -0.1913 -1.7035
  387TIP3    H225357   1.689   6.641  17.259  0.1191 -1.7765  0.7713
  388TIP3   OH225358   2.070   2.960  18.364 -0.4724  0.0032  0.1251
  388TIP3    H125359   2.015   3.014  18.421  0.2862  0.8497  0.0741
  388TIP3    H225360   2.121   2.906  18.423 -1.0989 -0.5418  0.1813
  389TIP3   OH225361   6.249   0.437  18.877 -0.7270 -0.1327 -0.5772
  389TIP3    H125362   6.223   0.498  18.807 -2.0664 -0.1601 -0.1414
  389TIP3    H225363   6.176   0.375  18.882  0.0377 -1.0152 -0.1487
  390TIP3   OH225364   3.811   4.854  17.951 -0.6233 -0.1275  0.1086
  390TIP3    H125365   3.903   4.881  17.955 -0.5180 -0.5418  0.4589
  390TIP3    H225366   3.812   4.761  17.971 -1.0943 -0.1954 -0.1629
  391TIP3   OH225367   5.591   1.826  18.477 -0.5096  0.9315  0.7765
  391TIP3    H125368   5.617   1.775  18.400 -0.3158 -0.9640  2.0462
  391TIP3    H225369   5.500   1.851  18.459 -0.5711  0.2443  0.0666
  392TIP3   OH225370   8.032   3.116  18.303 -0.2554  0.2182  0.5954
  392TIP3    H125371   8.092   3.045  18.280 -2.3736 -1.2006 -0.9561
  392TIP3    H225372   7.945   3.081  18.285 -1.4626  2.8805  0.7063
  393TIP3   OH225373   3.194   0.242  17.862  0.2164 -0.2119 -0.2261
  393TIP3    H125374   3.218   0.162  17.907  0.1163  0.3349  0.8241
  393TIP3    H225375   3.278   0.278  17.831  0.5931  0.5911  1.5698
  394TIP3   OH225376   5.379   8.009  16.624  0.2941 -0.0997 -0.1793
  394TIP3    H125377   5.462   7.972  16.593  0.6677  0.3691  0.2623
  394TIP3    H225378   5.342   8.051  16.546  0.5423 -0.1700 -0.3373
  395TIP3   OH225379   6.256   5.514  17.950  0.2916 -0.6816  0.3222
  395TIP3    H125380   6.295   5.473  18.027 -0.7585  0.6550  1.6315
  395TIP3    H225381   6.308   5.593  17.936  0.5322 -0.9598 -0.4219
  396TIP3   OH225382   1.978   7.345  18.774  0.3269 -0.0235 -0.2175
  396TIP3    H125383   1.963   7.297  18.692 -1.1000  0.6319 -0.3757
  396TIP3    H225384   2.007   7.278  18.836  0.3940 -0.7159 -0.9742
  397TIP3   OH225385   4.564   1.745  18.506  0.4517  0.1929  0.3435
  397TIP3    H125386   4.622   1.672  18.528 -1.1230 -1.1019  0.3698
  397TIP3    H225387   4.477   1.706  18.501 -0.4299  2.0689  0.2472
  398TIP3   OH225388   8.217   4.061  18.946  0.0649 -0.3065 -0.2152
  398TIP3    H125389   8.216   4.156  18.939  0.4706 -0.1061  1.7912
  398TIP3    H225390   8.272   4.032  18.873 -0.5804  0.9275 -1.2225
  399TIP3   OH225391   1.368   5.907  17.648  0.5719 -0.6987 -0.2583
  399TIP3    H125392   1.305   5.893  17.577  0.9217 -1.5886 -0.4127
  399TIP3    H225393   1.438   5.960  17.608  0.0829  0.0260 -0.1735
  400TIP3   OH225394   4.242   0.884  17.642  0.0290 -0.5195  0.0146
  400TIP3    H125395   4.314   0.831  17.609  0.2316 -1.5210  1.9127
  400TIP3    H225396   4.258   0.891  17.736  0.0639  3.0450 -0.1005
  401TIP3   OH225397   8.118   0.070  18.763 -0.0349 -0.6507 -0.6192
  401TIP3    H125398   8.154   0.137  18.820  0.8820 -0.4573 -1.3991
  401TIP3    H225399   8.026   0.064  18.788 -0.4682  1.7947 -1.3541
  402TIP3   OH225400   6.762   2.695  17.584 -0.5203 -0.2805 -0.3037
  402TIP3    H125401   6.785   2.663  17.671  0.8856 -2.0053 -1.2272
  402TIP3    H225402   6.678   2.654  17.565 -0.5219 -0.4246  0.0069
  403TIP3   OH225403   0.963   0.296  18.237  0.3421  0.2830  0.0403
  403TIP3    H125404   0.886   0.301  18.294  1.3781  0.6405  1.5011
  403TIP3    H225405   0.947   0.221  18.180 -1.7015  1.2049 -0.6971
  404TIP3   OH225406   4.408   1.090  17.776  0.6162 -0.2619  0.4209
  404TIP3    H125407   4.369   1.097  17.863 -1.2466 -0.7008 -0.3342
  404TIP3    H225408   4.500   1.112  17.789 -0.2853  3.4260  1.8931
  405TIP3   OH225409   6.642   6.504  18.535 -0.1644 -0.8635 -0.0087
  405TIP3    H125410   6.631   6.595  18.561 -1.1103 -0.5630 -1.3813
  405TIP3    H225411   6.676   6.507  18.446  2.4413 -1.8816  0.8436
  406TIP3   OH225412   8.012   2.615  18.495  0.3651 -0.0174 -0.0098
  406TIP3    H125413   7.922   2.641  18.512  0.4221 -1.3386  2.9066
  406TIP3    H225414   8.039   2.567  18.574  4.4920  2.5323  0.4174
  407TIP3   OH225415   1.347   3.214  17.675  0.7817 -0.0580 -0.3690
  407TIP3    H125416   1.374   3.251  17.590  2.3511  1.4828  0.7282
  407TIP3    H225417   1.257   3.244  17.686  0.9839  0.8353 -0.9444
  408TIP3   OH225418   5.148   5.988  18.382 -0.2283 -0.0926  0.0309
  408TIP3    H125419   5.206   5.995  18.306 -1.3064  2.0612 -0.6843
  408TIP3    H225420   5.077   6.050  18.363 -1.6020 -1.0123  1.8794
  409TIP3   OH225421   2.899   2.577  16.935  0.0099  0.5293  0.3629
  409TIP3    H125422   2.855   2.632  17.000 -0.6719  1.1004 -0.5562
  409TIP3    H225423   2.959   2.637  16.890 -1.2818  0.7672 -1.1583
  410TIP3   OH225424   0.202   0.900  18.571  0.4431 -0.1339  0.0129
  410TIP3    H125425   0.215   0.805  18.564  0.5232 -0.3572  2.3132
  410TIP3    H225426   0.122   0.909  18.623  1.2727  1.0106  1.1479
  411TIP3   OH225427   0.295   4.622  17.412  0.1524  0.4182 -0.2338
  411TIP3    H125428   0.338   4.644  17.494 -0.5251  0.8504  0.0152
  411TIP3    H225429   0.214   4.577  17.439  0.8755 -1.2584 -0.6960
  412TIP3   OH225430   3.165   4.467  18.813 -0.0687  0.0384 -0.6741
  412TIP3    H125431   3.253   4.439  18.787  0.8774  1.9498  0.2888
  412TIP3    H225432   3.108   4.431  18.745  1.4721 -0.9634 -1.5151
  413TIP3   OH225433   1.207   5.415  18.806 -0.2794  0.5307 -0.1986
  413TIP3    H125434   1.278   5.353  18.791  0.2147  0.8760  0.6602
  413TIP3    H225435   1.237   5.469  18.879 -2.2922 -0.6857  1.6662
  414TIP3   OH225436   7.640   4.369  16.652 -0.4053 -0.2500  0.0783
  414TIP3    H125437   7.628   4.459  16.621 -2.5564 -0.5806 -0.1644
  414TIP3    H225438   7.683   4.324  16.579  0.1231  0.4263 -0.0343
  415TIP3   OH225439   1.317   6.325  19.117 -0.0177 -0.9631 -0.1270
  415TIP3    H125440   1.264   6.294  19.190  0.7714 -2.2687 -0.0786
  415TIP3    H225441   1.396   6.272  19.120  0.3942 -0.4694 -1.4327
  416TIP3   OH225442   4.546   4.574  17.090 -0.2443  0.1809 -0.1594
  416TIP3    H125443   4.470   4.553  17.037 -0.2749  0.5169 -0.2503
  416TIP3    H225444   4.581   4.489  17.116  0.3481 -0.0285 -1.5294
  417TIP3   OH225445   7.184   1.936  17.865  0.0962  0.3485 -0.5873
  417TIP3    H125446   7.201   1.875  17.793 -0.5560 -0.8448  0.2284
  417TIP3    H225447   7.121   1.890  17.921  1.9552  0.4429  1.7224
  418TIP3   OH225448   7.072   1.507  17.604  0.1712  0.8668 -1.1724
  418TIP3    H125449   7.138   1.554  17.655  0.0111 -0.3488  0.2267
  418TIP3    H225450   6.989   1.543  17.634  0.1100  0.9406 -1.4251
  419TIP3   OH225451   0.814   6.947  18.437 -0.0142  0.4327  0.0127
  419TIP3    H125452   0.729   6.926  18.399 -0.7481  1.3624  1.0901
  419TIP3    H225453   0.871   6.961  18.361 -1.1240  1.0215 -0.7339
  420TIP3   OH225454   3.374   2.545  18.402  0.2242 -0.4196  0.6136
  420TIP3    H125455   3.353   2.630  18.439  1.1768 -0.4316  1.2092
  420TIP3    H225456   3.458   2.521  18.441 -0.2710 -1.8763  0.8587
  421TIP3   OH225457   6.641   8.323  18.788  0.0144  0.1791 -0.0596
  421TIP3    H125458   6.564   8.291  18.835 -0.1497 -0.2786 -0.6350
  421TIP3    H225459   6.647   8.415  18.814 -0.5485  0.1453  0.2255
  422TIP3   OH225460   0.648   0.035  18.375 -0.9690 -0.2784  0.3965
  422TIP3    H125461   0.683  -0.024  18.441 -2.4918 -2.4687 -0.6397
  422TIP3    H225462   0.623   0.113  18.424  0.8964 -0.5240  1.8547
  423TIP3   OH225463   4.511   8.156  18.554 -0.0472 -0.2797  0.3604
  423TIP3    H125464   4.418   8.162  18.534 -0.4419 -2.4055  1.2897
  423TIP3    H225465   4.538   8.247  18.570 -1.7272  0.4710 -0.7991
  424TIP3   OH225466   7.844   5.329  18.223 -0.4620  0.4868  0.4713
  424TIP3    H125467   7.866   5.237  18.233 -0.9390  0.3840  0.5853
  424TIP3    H225468   7.893   5.358  18.146 -1.4432 -0.2266 -0.4372
  425TIP3   OH225469   4.662   7.987  17.606  0.6204 -0.7063  0.7082
  425TIP3    H125470   4.614   7.935  17.541  0.8945  1.5128 -1.4546
  425TIP3    H225471   4.745   7.941  17.617  1.3941 -0.1787 -2.1251
  426TIP3   OH225472   2.582   1.027  16.899  0.4400  0.0765 -0.3957
  426TIP3    H125473   2.656   1.087  16.901 -0.0310  0.6651 -0.3566
  426TIP3    H225474   2.532   1.053  16.821  0.4153 -0.4941 -0.5775
  427TIP3   OH225475   1.657   4.381  18.018  0.0094  0.5153 -0.4791
  427TIP3    H125476   1.584   4.373  18.080 -0.4781  0.3627 -1.0565
  427TIP3    H225477   1.703   4.297  18.024  1.0957  1.1750  1.0336
  428TIP3   OH225478   3.949   2.180  18.098  0.0417  0.1635 -0.5856
  428TIP3    H125479   3.955   2.123  18.175 -0.0811  0.9535  0.0202
  428TIP3    H225480   4.040   2.190  18.069  0.0488 -0.4574 -0.7866
  429TIP3   OH225481   1.040   1.991  18.773 -0.7254  0.1728 -0.6344
  429TIP3    H125482   0.977   2.004  18.702  0.3211 -0.0726 -1.6260
  429TIP3    H225483   1.040   1.896  18.787 -2.4275  0.3634  1.1307
  430TIP3   OH225484   6.452   3.512  17.130  0.2851 -0.0567  0.2657
  430TIP3    H125485   6.366   3.484  17.161  0.4559 -0.0957  0.7187
  430TIP3    H225486   6.475   3.450  17.061  0.0195 -0.1434  0.2569
  431TIP3   OH225487   1.920   0.123  18.784 -0.3028  0.3093  0.1807
  431TIP3    H125488   1.885   0.093  18.868 -1.7376  0.6406 -0.2876
  431TIP3    H225489   1.955   0.044  18.744  0.1759  0.1031  0.9684
  432TIP3   OH225490   5.816   4.234  17.799  0.1490 -1.0574 -0.1478
  432TIP3    H125491   5.753   4.230  17.871  0.6887 -1.0470  0.3298
  432TIP3    H225492   5.762   4.241  17.720 -0.4757  2.2322  0.4139
  433TIP3   OH225493   2.873   4.569  18.749  0.1461 -0.0404  0.2846
  433TIP3    H125494   2.778   4.565  18.762 -0.1490 -2.1272 -1.8588
  433TIP3    H225495   2.884   4.616  18.666  0.9938  0.1532  0.4979
  434TIP3   OH225496   1.425   4.432  18.262 -0.2701  0.5019  0.1042
  434TIP3    H125497   1.348   4.485  18.278 -1.3257 -1.4394  2.0383
  434TIP3    H225498   1.390   4.346  18.237  1.2593 -0.3217  0.6447
  435TIP3   OH225499   5.947   5.256  17.636  0.1750 -0.2988  0.5163
  435TIP3    H125500   5.929   5.311  17.712 -0.0721  0.5884 -0.1579
  435TIP3    H225501   6.022   5.298  17.594 -1.1489  0.6641 -1.0301
  436TIP3   OH225502   3.329   6.924  17.053  0.3886  0.2388  0.2712
  436TIP3    H125503   3.259   6.936  17.118 -2.0841  0.8466 -2.2897
  436TIP3    H225504   3.326   6.831  17.032  0.3685  0.2491  0.2262
  437TIP3   OH225505   3.372   5.744  18.492 -0.1821  0.3727  0.0433
  437TIP3    H125506   3.323   5.826  18.493  0.4777  0.7854  1.6365
  437TIP3    H225507   3.463   5.771  18.503 -0.0716 -0.6151  1.8858
  438TIP3   OH225508   2.803   4.438  16.680 -0.0848 -0.3237  0.0277
  438TIP3    H125509   2.857   4.512  16.654 -0.4041  0.6828  2.0431
  438TIP3    H225510   2.713   4.467  16.665 -0.1773 -0.8668 -0.5142
  439TIP3   OH225511   6.785   2.574  18.457  0.4979  0.1368  0.1039
  439TIP3    H125512   6.830   2.570  18.541  1.9862  0.0220 -0.6473
  439TIP3    H225513   6.739   2.491  18.449  1.4105 -0.3996  0.2658
  440TIP3   OH225514   7.394   5.276  18.124 -0.1304  0.0050  0.0395
  440TIP3    H125515   7.462   5.336  18.153 -0.5535  0.6782 -0.3331
  440TIP3    H225516   7.360   5.314  18.043 -0.3208 -0.8078 -0.2766
  441TIP3   OH225517   4.737   5.079  17.098  0.1835 -0.1948 -0.0910
  441TIP3    H125518   4.720   5.150  17.160  2.1321  0.2583 -0.0044
  441TIP3    H225519   4.732   4.999  17.150 -0.9070 -0.0530  0.0451
  442TIP3   OH225520   7.475   7.616  16.467 -0.2777 -0.0938  0.2378
  442TIP3    H125521   7.540   7.682  16.443 -0.6103  0.1701  0.0607
  442TIP3    H225522   7.526   7.547  16.510 -0.1122  1.0566  2.0070
  443TIP3   OH225523   5.692   2.468  18.688  0.0505  0.6590  0.3394
  443TIP3    H125524   5.755   2.513  18.744  2.6047 -0.3862 -1.4900
  443TIP3    H225525   5.724   2.482  18.599 -2.5282  0.3028 -0.7295
  444TIP3   OH225526   5.056   3.805  16.845  0.0890 -0.2265 -0.3995
  444TIP3    H125527   5.057   3.720  16.801  0.7750  1.0445 -3.0392
  444TIP3    H225528   5.149   3.826  16.858 -0.0957 -0.4733  1.5635
  445TIP3   OH225529   4.443   2.986  17.474 -0.5450 -0.3471  0.2877
  445TIP3    H125530   4.467   3.078  17.473 -1.1986 -0.1228 -2.3651
  445TIP3    H225531   4.513   2.943  17.424 -1.4561 -0.9052 -0.5311
  446TIP3   OH225532   2.485   4.140  17.358 -0.1567  0.4077  0.2247
  446TIP3    H125533   2.564   4.100  17.321 -0.5614 -1.5036  1.2919
  446TIP3    H225534   2.419   4.129  17.290  0.1380  0.7814 -0.1335
  447TIP3   OH225535   4.918   4.004  17.160 -0.2772 -0.0837  0.0510
  447TIP3    H125536   4.850   4.000  17.092 -1.1953  2.0384  0.7443
  447TIP3    H225537   4.993   3.959  17.122 -1.8438 -2.0087 -0.9820
  448TIP3   OH225538   7.965   6.451  17.309  0.5118  0.5088 -0.8320
  448TIP3    H125539   7.874   6.481  17.303  1.0147  1.9205 -2.2000
  448TIP3    H225540   8.016   6.530  17.327  1.6071 -0.0140 -1.4986
  449TIP3   OH225541   2.406   1.205  18.344  0.5930 -0.5286 -0.1326
  449TIP3    H125542   2.339   1.137  18.342  0.9459 -0.9348  1.1784
  449TIP3    H225543   2.433   1.210  18.435  1.4541  0.5218 -0.4202
  450TIP3   OH225544   0.813   1.763  18.653 -0.3633  0.4158  0.8689
  450TIP3    H125545   0.750   1.765  18.726  0.5912 -0.7317  1.7521
  450TIP3    H225546   0.845   1.673  18.652 -1.8357 -0.2132 -2.2943
  451TIP3   OH225547   2.650   1.243  17.680  0.1332 -0.2350 -0.5401
  451TIP3    H125548   2.661   1.242  17.775 -3.2045  2.0204  0.0334
  451TIP3    H225549   2.739   1.249  17.646  1.3750  1.6887  2.5760
  452TIP3   OH225550   2.356   1.275  17.821 -0.4201  0.2557  0.6076
  452TIP3    H125551   2.280   1.322  17.854 -1.0958  0.7416 -1.4740
  452TIP3    H225552   2.419   1.343  17.798  0.2584 -0.0944  1.3582
  453TIP3   OH225553   5.648   3.446  17.276  0.3492  0.0738  0.2726
  453TIP3    H125554   5.743   3.449  17.267  0.2371 -0.3851 -1.3238
  453TIP3    H225555   5.615   3.490  17.198 -0.7610 -2.6001 -0.8759
  454TIP3   OH225556   3.953   6.569  16.685 -0.7305 -0.4553  0.2068
  454TIP3    H125557   3.963   6.545  16.777 -1.0917  0.2074  0.4253
  454TIP3    H225558   4.036   6.612  16.663 -0.8626 -0.1001  0.3900
  455TIP3   OH225559   5.816   4.492  17.271  0.3600  0.2517  0.5674
  455TIP3    H125560   5.839   4.415  17.324  0.3979 -0.2226 -0.1373
  455TIP3    H225561   5.798   4.458  17.184  1.8692  1.1897 -0.1658
  456TIP3   OH225562   1.395   7.992  17.078 -0.0218  0.3776 -0.3142
  456TIP3    H125563   1.327   8.059  17.088 -0.8243 -0.3484 -0.7223
  456TIP3    H225564   1.447   8.021  17.003  0.6585  1.3721  0.5193
  457TIP3   OH225565   7.078   2.173  18.573  0.0495  0.3328 -0.8428
  457TIP3    H125566   6.989   2.140  18.562 -0.0003  0.5127 -0.9772
  457TIP3    H225567   7.071   2.267  18.558 -0.1118  0.6928  1.2361
  458TIP3   OH225568   4.460   5.466  18.472  0.2987  0.1789  0.3772
  458TIP3    H125569   4.507   5.464  18.556 -0.1348  0.9527  0.6471
  458TIP3    H225570   4.382   5.519  18.489  1.2848  2.2241 -1.0483
  459TIP3   OH225571   5.452   4.299  18.219 -0.0379 -0.4458 -0.3277
  459TIP3    H125572   5.538   4.334  18.197  0.4143 -0.6815  0.9526
  459TIP3    H225573   5.461   4.267  18.309 -1.3630 -0.8068 -0.2904
  460TIP3   OH225574   7.379   1.196  16.794  0.2567 -0.0627  0.2446
  460TIP3    H125575   7.303   1.227  16.744 -0.8374 -0.7854  1.4090
  460TIP3    H225576   7.451   1.253  16.766 -1.0156  1.5631  0.1381
  461TIP3   OH225577   5.127   6.013  18.744 -0.2330 -0.2018 -0.1343
  461TIP3    H125578   5.077   6.093  18.728  0.3255 -0.0128 -1.0260
  461TIP3    H225579   5.102   5.954  18.672 -0.8459 -0.9451  0.6656
  462TIP3   OH225580   7.495   7.979  18.326 -0.2188  0.3738 -0.0234
  462TIP3    H125581   7.553   8.012  18.395  0.1055 -0.3519  0.0571
  462TIP3    H225582   7.408   8.011  18.351 -0.2588 -0.6629  1.2494
  463TIP3   OH225583   4.344   6.986  18.395 -0.0475 -0.6400  0.2246
  463TIP3    H125584   4.281   6.956  18.461 -1.0023  0.2305 -0.2506
  463TIP3    H225585   4.333   7.081  18.394 -1.0065 -0.7074 -2.0717
  464TIP3   OH225586   6.267   6.358  17.606  0.3762  0.4851 -0.2389
  464TIP3    H125587   6.327   6.432  17.608  2.7321 -1.2588 -1.2096
  464TIP3    H225588   6.292   6.304  17.681 -1.4428  0.7244  0.5843
  465TIP3   OH225589   8.118   3.789  19.022  0.1900 -0.6485  0.5144
  465TIP3    H125590   8.053   3.805  18.953 -1.1253 -1.7192  1.4403
  465TIP3    H225591   8.176   3.865  19.018 -0.0152 -0.5340 -1.5542
  466TIP3   OH225592   8.073   6.274  18.598 -0.2291 -0.3522  0.1156
  466TIP3    H125593   8.048   6.347  18.541 -2.7574 -1.0125  0.2761
  466TIP3    H225594   8.057   6.196  18.546 -2.8916 -0.9864  1.6979
  467TIP3   OH225595   7.244   1.279  19.018  0.1699 -0.8827  0.1005
  467TIP3    H125596   7.269   1.371  19.010  0.5595 -1.1158 -2.1571
  467TIP3    H225597   7.300   1.233  18.955 -1.0571 -2.4382  0.0608
  468TIP3   OH225598   7.728   5.322  19.040  0.2039  0.3069  0.4374
  468TIP3    H125599   7.652   5.341  19.095  1.1930  3.8432  0.8382
  468TIP3    H225600   7.700   5.344  18.952  0.9667  2.8202  0.7336
  469TIP3   OH225601   6.308   1.409  17.853  0.1358 -0.3858  0.7488
  469TIP3    H125602   6.223   1.375  17.882  0.3251 -0.4210  1.2617
  469TIP3    H225603   6.372   1.360  17.904  0.4065  0.9667  1.7712
  470TIP3   OH225604   4.766   3.290  18.746  0.3144 -0.2990  0.0273
  470TIP3    H125605   4.837   3.351  18.762  0.5261 -0.7283  0.7874
  470TIP3    H225606   4.686   3.342  18.757  0.4843  0.4099 -1.7687
  471TIP3   OH225607   1.333   4.386  18.673  0.3318 -0.3233  0.2329
  471TIP3    H125608   1.404   4.448  18.662  0.4363 -0.4223  0.3489
  471TIP3    H225609   1.343   4.324  18.600  0.6618 -0.6257  0.5266
  472TIP3   OH225610   7.272   0.168  17.436  0.1742  0.1226  0.1043
  472TIP3    H125611   7.188   0.125  17.450 -1.0726  2.1882 -0.6716
  472TIP3    H225612   7.254   0.261  17.444  2.0625  0.7292 -1.6172
  473TIP3   OH225613   6.751   0.974  18.702  0.1763 -0.3068 -0.6008
  473TIP3    H125614   6.821   0.921  18.740  0.8333  0.8380 -0.1866
  473TIP3    H225615   6.672   0.920  18.713  0.8037 -1.1483 -0.0989
  474TIP3   OH225616   2.022   1.857  18.012 -0.3330 -0.4210 -0.6053
  474TIP3    H125617   2.037   1.763  18.025 -0.9840 -0.3744  0.6770
  474TIP3    H225618   2.093   1.899  18.061 -1.2560 -0.2435  0.6075
  475TIP3   OH225619   5.679   6.723  17.879 -0.3556 -0.0048  0.1429
  475TIP3    H125620   5.603   6.727  17.937 -0.6003  0.3022 -0.2038
  475TIP3    H225621   5.679   6.807  17.834  0.6214  0.3076  0.6894
  476TIP3   OH225622   3.228   7.918  16.775  0.1198 -0.4994  0.8413
  476TIP3    H125623   3.298   7.899  16.837  0.1894 -0.0412  0.9118
  476TIP3    H225624   3.186   7.996  16.811  0.3092 -0.0891  0.1933
  477TIP3   OH225625   7.032   4.506  17.955  0.0313 -0.3058  0.2904
  477TIP3    H125626   7.070   4.523  18.041 -0.6655 -0.1098  0.5624
  477TIP3    H225627   7.078   4.428  17.923  0.9897  0.1979  0.4069
  478TIP3   OH225628   6.150   4.605  19.157 -0.0081 -0.2958 -0.2141
  478TIP3    H125629   6.076   4.634  19.104 -0.8134  0.3819  1.2291
  478TIP3    H225630   6.117   4.605  19.247  1.8147  0.3046  0.5062
  479TIP3   OH225631   4.744   6.392  18.806  0.5693 -0.4649 -0.1868
  479TIP3    H125632   4.770   6.449  18.879  1.3467 -0.4825 -0.4423
  479TIP3    H225633   4.666   6.434  18.770  0.1901 -0.4360  0.6305
  480TIP3   OH225634   1.581   6.679  18.925  0.0953 -0.7464  0.1999
  480TIP3    H125635   1.486   6.672  18.914 -0.0547  0.0893  0.9022
  480TIP3    H225636   1.612   6.711  18.840 -0.2905 -0.6879  0.0790
  481TIP3   OH225637   7.426   1.183  17.070 -0.0268 -0.1761 -0.3402
  481TIP3    H125638   7.410   1.173  16.976  0.3824 -0.7354 -0.3566
  481TIP3    H225639   7.478   1.262  17.077  0.2296 -0.3179 -0.6203
  482TIP3   OH225640   3.088   2.568  17.982  0.3676  0.3317  0.2579
  482TIP3    H125641   3.120   2.500  17.923 -0.2241  0.0288  0.2836
  482TIP3    H225642   3.086   2.647  17.929 -2.3383 -0.3715 -0.8289
  483TIP3   OH225643   8.165   3.018  19.129  0.2609  0.4894 -0.0963
  483TIP3    H125644   8.155   3.109  19.100 -2.0929 -0.3761 -2.3618
  483TIP3    H225645   8.080   2.978  19.111  0.7581 -1.8560  2.1931
  484TIP3   OH225646   6.847   7.524  18.436  0.8921 -0.7467 -0.0244
  484TIP3    H125647   6.800   7.447  18.403  0.7109 -1.3602  1.5685
  484TIP3    H225648   6.876   7.498  18.523  0.0221  1.3349  0.9471
  485TIP3   OH225649   3.773   3.558  17.446 -0.2237  0.5137 -0.7527
  485TIP3    H125650   3.725   3.630  17.486 -0.7578  0.6666 -1.6467
  485TIP3    H225651   3.778   3.491  17.515  1.6160  1.9697  0.6109
  486TIP3   OH225652   7.940   4.629  19.339 -0.3047 -0.3108 -0.0333
  486TIP3    H125653   8.002   4.683  19.289  0.5508  0.3868  1.6965
  486TIP3    H225654   7.860   4.682  19.343 -0.5856 -0.6244 -1.1105
  487TIP3   OH225655   5.723   4.652  17.471 -0.3016 -0.2808  0.5481
  487TIP3    H125656   5.776   4.589  17.520 -1.4802 -1.8685 -0.1138
  487TIP3    H225657   5.725   4.618  17.381 -0.0545  1.2905 -0.0671
  488TIP3   OH225658   2.415   3.736  18.940 -0.0034 -0.1007  0.1943
  488TIP3    H125659   2.461   3.694  19.013 -0.4073  0.4986  0.8113
  488TIP3    H225660   2.484   3.779  18.889  0.5141 -2.1586 -0.9237
  489TIP3   OH225661   0.730   6.900  17.141  0.1983 -0.1592  0.3581
  489TIP3    H125662   0.638   6.917  17.120 -0.4810 -1.5889  1.8808
  489TIP3    H225663   0.764   6.984  17.170 -0.2198  0.6935 -1.4978
  490TIP3   OH225664   4.964   5.046  17.968 -0.1550  0.0278  0.1630
  490TIP3    H125665   4.925   5.055  18.054  0.3382  1.8173  0.2419
  490TIP3    H225666   4.898   5.001  17.915 -0.0382 -2.0812  1.7056
  491TIP3   OH225667   0.640   3.432  17.731 -0.8131 -0.1064 -0.3781
  491TIP3    H125668   0.685   3.516  17.719  0.4047 -1.0254 -3.0586
  491TIP3    H225669   0.548   3.450  17.714 -0.6150  0.7693 -0.5293
  492TIP3   OH225670   5.949   1.539  16.729  0.5031 -0.3363  0.4575
  492TIP3    H125671   6.005   1.479  16.679  0.4061 -1.0167  1.1562
  492TIP3    H225672   5.896   1.482  16.784  0.9045  0.4175  1.6525
  493TIP3   OH225673   7.238   2.330  18.200 -0.5873  0.4645 -0.4459
  493TIP3    H125674   7.262   2.279  18.123 -0.3161  0.5477 -0.4152
  493TIP3    H225675   7.198   2.409  18.165 -1.0036  0.2388 -0.4926
  494TIP3   OH225676   7.884   0.533  17.813 -0.4876  0.5801 -0.9039
  494TIP3    H125677   7.912   0.624  17.824 -0.8677  0.4414  2.1174
  494TIP3    H225678   7.795   0.532  17.849 -0.5713 -0.9318 -1.1251
  495TIP3   OH225679   7.848   8.424  16.894 -0.3110 -0.3769  0.1812
  495TIP3    H125680   7.867   8.464  16.809 -1.6463 -1.1680 -0.5203
  495TIP3    H225681   7.777   8.476  16.930 -0.5036 -0.7256  0.3070
  496TIP3   OH225682   1.755   3.830  17.930  0.0533  0.5543  0.0027
  496TIP3    H125683   1.689   3.833  17.861  2.2857  0.5171 -2.2849
  496TIP3    H225684   1.836   3.856  17.886  1.6664  0.1067  2.5443
  497TIP3   OH225685   6.125   2.805  16.571 -0.4370  0.3105 -0.6573
  497TIP3    H125686   6.078   2.730  16.607  0.9235 -0.3315 -0.1145
  497TIP3    H225687   6.130   2.867  16.644  0.9568 -0.3357 -0.1460
  498TIP3   OH225688   4.823   7.664  16.571  0.0489 -0.4012 -0.1844
  498TIP3    H125689   4.797   7.586  16.524 -0.5779 -0.2486 -0.0969
  498TIP3    H225690   4.741   7.703  16.601  0.3305  0.4813 -0.5313
  499TIP3   OH225691   8.386   6.673  19.108 -0.0994  0.0298  0.0646
  499TIP3    H125692   8.347   6.601  19.158  0.2327 -0.9034 -0.9650
  499TIP3    H225693   8.327   6.685  19.034  1.2421 -1.0535 -1.2425
  500TIP3   OH225694   2.704   3.471  18.916 -0.0055 -0.2744 -0.2977
  500TIP3    H125695   2.682   3.471  18.823 -0.5143  2.1813 -0.2437
  500TIP3    H225696   2.799   3.477  18.918 -0.0674  1.3088 -0.7227
  501TIP3   OH225697   0.223   6.188  18.523 -0.0081 -0.2332 -0.3876
  501TIP3    H125698   0.287   6.194  18.452  1.3457 -0.3900  0.7665
  501TIP3    H225699   0.232   6.271  18.570 -1.0876 -0.0190 -0.5296
  502TIP3   OH225700   6.320   6.472  18.352  0.3304  0.3523  0.8094
  502TIP3    H125701   6.283   6.465  18.264 -0.8406  0.9646  1.2251
  502TIP3    H225702   6.325   6.381  18.382  1.0121  0.1162  0.0142
  503TIP3   OH225703   2.213   0.548  17.946 -0.0380  0.1077 -0.0644
  503TIP3    H125704   2.188   0.630  17.990 -1.0751 -0.5616  0.6363
  503TIP3    H225705   2.133   0.496  17.946  0.0824 -0.1722 -2.2255
  504TIP3   OH225706   4.454   0.917  18.448  0.3891  0.5918 -0.3014
  504TIP3    H125707   4.443   0.879  18.361 -0.7376 -0.1726  0.1537
  504TIP3    H225708   4.375   0.968  18.463  0.6955  0.9425  0.1686
  505TIP3   OH225709   1.384   0.125  18.253  0.2367  0.0990 -0.4048
  505TIP3    H125710   1.455   0.083  18.204  0.8586  1.6706 -0.8828
  505TIP3    H225711   1.367   0.065  18.325  3.1985  0.4287  0.7013
  506TIP3   OH225712   2.156   7.847  17.402  0.2508  0.2347  0.0430
  506TIP3    H125713   2.146   7.930  17.354  0.5995 -0.1312 -0.6865
  506TIP3    H225714   2.140   7.870  17.493  0.1529  1.0710 -0.1729
  507TIP3   OH225715   2.520   3.516  19.114  0.3276 -0.0474  0.5317
  507TIP3    H125716   2.583   3.511  19.186  1.6156 -0.4447 -0.5735
  507TIP3    H225717   2.572   3.501  19.035 -0.2961  4.0479 -0.9149
  508TIP3   OH225718   0.735   6.137  18.251  0.4845 -0.0097 -0.0125
  508TIP3    H125719   0.732   6.075  18.323  1.6836 -0.3239 -0.2211
  508TIP3    H225720   0.697   6.089  18.177 -0.6321  0.2736  0.3465
  509TIP3   OH225721   4.573   5.806  17.861  0.5165  0.2848  0.1174
  509TIP3    H125722   4.597   5.894  17.887  1.2644  0.5335 -1.3499
  509TIP3    H225723   4.642   5.778  17.800 -0.8338 -0.4637 -1.1512
  510TIP3   OH225724   7.154   8.193  17.367  0.0166  0.1858  0.1921
  510TIP3    H125725   7.234   8.235  17.337  0.6416  0.0328  1.5871
  510TIP3    H225726   7.132   8.237  17.449 -0.0883 -1.2160  0.9567
  511TIP3   OH225727   2.935   6.911  18.860  0.7696  0.2326  0.5734
  511TIP3    H125728   3.006   6.915  18.796 -1.1331 -1.1343 -1.7960
  511TIP3    H225729   2.868   6.970  18.825 -0.0734 -0.0098  1.7090
  512TIP3   OH225730   5.028   3.042  18.528  0.6488  0.7131  0.3071
  512TIP3    H125731   4.936   3.042  18.554  0.5344  0.0710 -0.0774
  512TIP3    H225732   5.075   3.006  18.604  0.5467  0.7430  0.3846
  513TIP3   OH225733   5.235   1.439  17.414  0.9324 -0.0512  0.3222
  513TIP3    H125734   5.172   1.403  17.351 -0.5135 -0.3224  1.8580
  513TIP3    H225735   5.317   1.394  17.394 -0.0728 -1.9241  0.1408
  514TIP3   OH225736   7.294   8.003  17.834  0.2138 -0.5969  0.1556
  514TIP3    H125737   7.315   7.967  17.747  1.0724 -1.6759  0.7836
  514TIP3    H225738   7.361   8.068  17.851 -0.7566  0.6271 -0.5508
  515TIP3   OH225739   2.119   3.411  16.876 -0.3264  0.2265 -0.9496
  515TIP3    H125740   2.028   3.412  16.908 -0.6026 -0.5213 -1.6774
  515TIP3    H225741   2.115   3.453  16.791  0.0981  0.6037 -0.7844
  516TIP3   OH225742   2.384   5.637  18.136 -0.2243 -0.1015 -0.3085
  516TIP3    H125743   2.410   5.545  18.145 -1.7202 -0.4360  1.1305
  516TIP3    H225744   2.389   5.672  18.224  0.6189  1.3139 -0.8936
  517TIP3   OH225745   0.543   5.914  16.637 -0.3115  0.1750 -0.0611
  517TIP3    H125746   0.559   5.832  16.682 -3.0085  0.2460  1.2551
  517TIP3    H225747   0.447   5.923  16.638 -0.3188  1.7682 -3.0268
  518TIP3   OH225748   1.044   5.513  17.281 -0.2182  0.0775 -0.2509
  518TIP3    H125749   1.096   5.579  17.236 -0.6129  0.0608 -0.7455
  518TIP3    H225750   1.022   5.450  17.213 -1.8181  0.6585 -0.3021
  519TIP3   OH225751   6.505   7.169  16.292 -0.0134 -0.5816 -0.6832
  519TIP3    H125752   6.527   7.108  16.362 -1.4473 -1.6044 -1.0777
  519TIP3    H225753   6.419   7.141  16.261 -0.2020  0.9281 -1.6785
  520TIP3   OH225754   5.327   4.713  18.198  0.2034 -0.5028  0.3609
  520TIP3    H125755   5.284   4.639  18.155 -0.1529 -1.4587  2.2110
  520TIP3    H225756   5.390   4.673  18.258  2.2202  0.8239 -0.7684
  521TIP3   OH225757   5.543   3.619  16.673 -0.0001 -0.1006  0.1506
  521TIP3    H125758   5.540   3.526  16.691  0.2412  0.1590  1.6502
  521TIP3    H225759   5.628   3.648  16.705 -0.2028  0.6970  0.0054
  522TIP3   OH225760   5.960   2.378  17.980  0.3535  0.1884 -0.2825
  522TIP3    H125761   5.977   2.378  17.885 -0.1921 -1.7637 -0.4132
  522TIP3    H225762   5.889   2.315  17.992  0.0895  0.7649  1.3899
  523TIP3   OH225763   2.608   3.853  18.321  0.1707  0.4529  0.0855
  523TIP3    H125764   2.560   3.770  18.319 -0.3725  0.7311  1.0914
  523TIP3    H225765   2.682   3.837  18.380  1.2111  0.1042 -1.2607
  524TIP3   OH225766   5.569   5.258  17.088  0.1942 -0.5541  0.3509
  524TIP3    H125767   5.532   5.194  17.026  0.4223  0.5474 -0.9767
  524TIP3    H225768   5.623   5.206  17.147  0.2352 -1.6208 -0.5923
  525TIP3   OH225769   5.668   4.625  18.823  0.1609  0.2277  0.1060
  525TIP3    H125770   5.617   4.650  18.900 -0.2488  1.5520 -0.5522
  525TIP3    H225771   5.710   4.707  18.795  0.1531 -0.1849 -1.1721
  526TIP3   OH225772   3.417   2.794  18.781  0.0958  0.1995  0.0301
  526TIP3    H125773   3.381   2.882  18.790 -0.0347  0.2175 -0.6184
  526TIP3    H225774   3.358   2.739  18.833 -1.4204  0.0979 -1.6740
  527TIP3   OH225775   0.368   8.029  17.693  0.7991  0.5602 -0.2719
  527TIP3    H125776   0.292   7.997  17.644  0.5704  1.8191 -0.7718
  527TIP3    H225777   0.373   7.970  17.769  0.3020 -0.5247 -1.0469
  528TIP3   OH225778   3.131   6.876  17.551 -0.3071  0.3819  0.4724
  528TIP3    H125779   3.130   6.852  17.644  0.1773 -0.3398  0.2974
  528TIP3    H225780   3.224   6.880  17.528 -0.4284 -1.0703 -0.3880
  529TIP3   OH225781   3.535   0.208  17.365 -0.4822 -0.2277 -0.4584
  529TIP3    H125782   3.596   0.277  17.340 -0.0503 -0.1497  0.7164
  529TIP3    H225783   3.455   0.228  17.316 -1.2794  2.6791  1.7015
  530TIP3   OH225784   8.309   6.476  18.614  0.2183 -0.2727  0.0270
  530TIP3    H125785   8.243   6.498  18.681 -0.6466  2.5479 -1.6082
  530TIP3    H225786   8.338   6.388  18.638 -2.4398 -0.7031  2.1864
  531TIP3   OH225787   7.170   2.380  16.611 -0.1419 -0.2709 -0.0248
  531TIP3    H125788   7.261   2.357  16.591 -0.0551  0.3706 -0.3963
  531TIP3    H225789   7.122   2.298  16.601  0.0171 -0.1750 -2.1633
  532TIP3   OH225790   4.646   8.187  17.789  0.0402  0.1058 -0.9387
  532TIP3    H125791   4.613   8.262  17.739 -1.8817 -1.3905 -2.0842
  532TIP3    H225792   4.659   8.118  17.723  0.9205 -0.8390  0.1807
  533TIP3   OH225793   0.219   1.758  18.671  0.0846 -0.1034 -0.1713
  533TIP3    H125794   0.190   1.841  18.708  1.0655  0.1868 -0.0140
  533TIP3    H225795   0.141   1.720  18.631 -0.9522 -0.2581  1.8386
  534TIP3   OH225796   4.076   8.310  17.910  0.8183 -0.1508 -0.5861
  534TIP3    H125797   4.038   8.264  17.984  0.9151  0.3805 -0.1977
  534TIP3    H225798   4.171   8.301  17.921  0.9351  2.0788  0.8027
  535TIP3   OH225799   2.949   2.143  18.742  0.7541  0.5596 -0.3297
  535TIP3    H125800   2.947   2.239  18.747 -0.2154  0.4954  1.0296
  535TIP3    H225801   3.041   2.122  18.725  1.0425  1.7111 -0.3175
  536TIP3   OH225802   6.840   2.017  18.221 -0.0123  0.1683 -0.3739
  536TIP3    H125803   6.825   2.112  18.224 -0.4609  0.1254 -1.0714
  536TIP3    H225804   6.789   1.987  18.146  0.1607 -0.6252 -0.1817
  537TIP3   OH225805   2.415   6.277  17.539 -0.7163  0.5775  0.2379
  537TIP3    H125806   2.422   6.191  17.581 -1.6999 -0.0225 -0.7667
  537TIP3    H225807   2.372   6.259  17.455  0.2559  1.8655 -0.5894
  538TIP3   OH225808   6.162   5.033  18.075  0.3713  0.7403  0.4401
  538TIP3    H125809   6.089   5.016  18.015  0.8242 -1.3804  0.4251
  538TIP3    H225810   6.127   5.009  18.161  1.2226 -0.9616  0.3428
  539TIP3   OH225811   4.103   5.376  18.979 -0.0230 -0.1926  0.3827
  539TIP3    H125812   4.118   5.290  18.940  0.4847  0.3475 -0.6787
  539TIP3    H225813   4.009   5.380  18.995 -0.2608 -0.4350 -0.8500
  540TIP3   OH225814   4.162   5.110  17.867  0.6582  0.2067 -0.8844
  540TIP3    H125815   4.132   5.041  17.926  1.6953  0.1499 -0.4128
  540TIP3    H225816   4.235   5.071  17.819  0.0810  0.3874 -1.9316
  541TIP3   OH225817   3.017   4.268  16.694 -0.3725  0.2972 -0.4219
  541TIP3    H125818   3.072   4.313  16.758 -0.7896 -0.1297  0.2454
  541TIP3    H225819   2.969   4.338  16.650 -1.1103  0.5199  0.6863
  542TIP3   OH225820   5.226   6.989  17.535  0.5117  0.7168 -0.6655
  542TIP3    H125821   5.290   6.923  17.510 -0.0355 -0.1943  0.2348
  542TIP3    H225822   5.158   6.983  17.467 -0.0227 -0.3743 -0.0630
  543TIP3   OH225823   1.282   4.948  18.096  0.6974  0.2407 -0.2303
  543TIP3    H125824   1.330   4.867  18.115 -0.4325 -0.8127 -1.6535
  543TIP3    H225825   1.191   4.921  18.085 -0.2256  2.1187  1.8964
  544TIP3   OH225826   1.475   1.594  18.005  0.5172 -0.3188 -0.3771
  544TIP3    H125827   1.496   1.668  17.947 -0.6868 -1.0650 -1.8158
  544TIP3    H225828   1.409   1.544  17.957  1.7529 -2.6921  0.2894
  545TIP3   OH225829   7.187   3.013  19.067 -0.1601  0.2671  0.1188
  545TIP3    H125830   7.174   3.085  19.006 -0.5450 -1.9967 -2.7082
  545TIP3    H225831   7.127   3.032  19.139  0.9640  3.5240  0.3407
  546TIP3   OH225832   7.594   5.130  16.607  0.2359 -0.0984 -0.3962
  546TIP3    H125833   7.563   5.045  16.639  0.4677  0.1842  0.5925
  546TIP3    H225834   7.520   5.189  16.623 -0.2030 -0.2418 -1.7505
  547TIP3   OH225835   2.873   5.632  18.141  0.0579  0.0445  0.6054
  547TIP3    H125836   2.838   5.563  18.085  1.0207  1.0235 -1.2584
  547TIP3    H225837   2.862   5.597  18.230 -1.3964 -1.5939 -0.1527
  548TIP3   OH225838   8.218   4.838  17.951  0.3022 -0.3397 -0.3540
  548TIP3    H125839   8.138   4.822  18.000 -0.9962  0.8421 -1.9561
  548TIP3    H225840   8.218   4.771  17.882  1.7148 -1.5188  0.7285
  549TIP3   OH225841   0.193   7.932  17.513  0.7685 -0.3340  0.9233
  549TIP3    H125842   0.139   7.857  17.538  0.0349  0.0784  0.5982
  549TIP3    H225843   0.192   7.932  17.418  0.8716  0.0167  0.9213
  550TIP3   OH225844   1.326   5.075  18.621 -0.0133  0.3907  0.8264
  550TIP3    H125845   1.359   5.122  18.545  0.1205  0.4207  0.9039
  550TIP3    H225846   1.345   5.132  18.695 -1.1836  0.9006  0.7605
  551TIP3   OH225847   8.270   7.348  18.520  0.3009  0.0324  0.3296
  551TIP3    H125848   8.317   7.414  18.469  0.4330 -1.0813 -1.0202
  551TIP3    H225849   8.199   7.319  18.463  0.2332 -0.9843  0.9068
  552TIP3   OH225850   2.080   1.101  18.698  0.0300  0.4194 -0.1536
  552TIP3    H125851   1.991   1.083  18.666 -1.4845 -0.3313  3.8801
  552TIP3    H225852   2.115   1.015  18.720  0.1250  0.9476  1.9588
  553TIP3   OH225853   4.285   3.715  18.108  0.0265  0.0935 -0.4369
  553TIP3    H125854   4.238   3.673  18.179  1.4781 -1.7833 -0.5232
  553TIP3    H225855   4.372   3.731  18.142  0.6495 -0.5265 -1.6752
  554TIP3   OH225856   5.779   7.885  18.364 -0.3468 -0.0822 -0.2573
  554TIP3    H125857   5.796   7.809  18.308 -0.2536 -0.1154 -0.1835
  554TIP3    H225858   5.852   7.886  18.426 -0.2944  0.1286 -0.3233
  555TIP3   OH225859   5.470   5.857  18.455 -0.4124  1.2062  0.0412
  555TIP3    H125860   5.440   5.771  18.485  1.0905  0.3066 -0.9105
  555TIP3    H225861   5.420   5.874  18.376  1.1006 -0.0628 -1.2630
  556TIP3   OH225862   3.349   0.280  18.320  0.6654 -0.1310 -0.0766
  556TIP3    H125863   3.404   0.342  18.272  1.2377 -1.1936 -0.8192
  556TIP3    H225864   3.260   0.315  18.310  0.9888  0.6259 -0.3812
  557TIP3   OH225865   6.986   7.033  18.829  0.2110  0.2128 -0.2079
  557TIP3    H125866   6.902   6.994  18.802  0.1464 -2.5126  3.1778
  557TIP3    H225867   6.963   7.086  18.906  1.4153  0.7159 -0.1817
  558TIP3   OH225868   8.079   6.215  16.944  0.0174 -0.3590 -0.1054
  558TIP3    H125869   8.132   6.147  16.903  0.4009  0.3106 -0.7386
  558TIP3    H225870   8.138   6.290  16.951 -0.5932  0.1162 -0.0074
  559TIP3   OH225871   5.184   7.808  16.796 -0.2494 -0.1212  0.3953
  559TIP3    H125872   5.237   7.804  16.876 -0.2860  1.5864  0.5333
  559TIP3    H225873   5.159   7.717  16.780  2.1239 -0.9028  0.7181
  560TIP3   OH225874   1.518   7.740  16.844 -0.7633 -0.1192  0.5705
  560TIP3    H125875   1.590   7.690  16.805 -0.4853 -0.8151  1.9211
  560TIP3    H225876   1.544   7.832  16.832  0.2815 -0.3555  0.8778
  561TIP3   OH225877   6.943   6.446  17.803 -0.2488 -0.1706 -0.0218
  561TIP3    H125878   6.959   6.530  17.760 -0.1687 -0.2771 -0.2029
  561TIP3    H225879   6.849   6.430  17.790 -0.4748  0.3694  0.8844
  562TIP3   OH225880   0.835   3.474  18.313 -0.0628 -0.1441  0.5024
  562TIP3    H125881   0.867   3.387  18.336  1.0120 -0.5596 -2.2446
  562TIP3    H225882   0.912   3.530  18.314 -0.1777  0.0622 -0.8227
  563TIP3   OH225883   4.898   5.095  18.245  0.0948  0.0917 -0.2736
  563TIP3    H125884   4.820   5.042  18.228 -0.7583  1.9967 -3.0504
  563TIP3    H225885   4.865   5.175  18.284  1.2232 -0.6831  2.5223
  564TIP3   OH225886   0.626   0.602  17.531 -0.0275  0.5360 -0.3636
  564TIP3    H125887   0.684   0.677  17.543 -0.9676  1.0051  1.6087
  564TIP3    H225888   0.682   0.526  17.544  0.3337  0.9742  0.7542
  565TIP3   OH225889   8.304   7.470  17.025  0.0856 -0.2823 -0.2685
  565TIP3    H125890   8.392   7.464  17.064  0.2953 -0.5328 -0.7698
  565TIP3    H225891   8.279   7.379  17.008  0.8925 -0.1255 -2.6622
  566TIP3   OH225892   4.151   2.127  17.777 -0.0656  0.0855  0.3446
  566TIP3    H125893   4.126   2.191  17.844 -2.7308  0.3442 -0.7963
  566TIP3    H225894   4.098   2.049  17.798 -1.7873  0.5311 -1.9826
  567TIP3   OH225895   2.856   0.986  18.662 -0.4210 -0.1540 -0.0346
  567TIP3    H125896   2.950   0.994  18.681 -0.0995 -1.4543 -0.8784
  567TIP3    H225897   2.842   0.891  18.657 -2.3242 -0.1028  2.5258
  568TIP3   OH225898   2.249   7.147  17.666  0.6227  0.2139 -0.0109
  568TIP3    H125899   2.193   7.214  17.627  1.3127  0.2503 -0.9873
  568TIP3    H225900   2.334   7.191  17.677  0.3985  0.2653  1.7585
  569TIP3   OH225901   5.443   4.968  17.614 -0.4690 -0.1623 -0.0627
  569TIP3    H125902   5.454   5.056  17.649 -2.1469  1.3303 -2.8954
  569TIP3    H225903   5.365   4.934  17.658 -0.1939  0.0123  0.5702
  570TIP3   OH225904   7.262   3.939  18.032 -0.4375 -0.2742  0.2827
  570TIP3    H125905   7.284   3.846  18.028 -2.8101 -0.9395  1.2609
  570TIP3    H225906   7.284   3.973  17.945  1.8403 -1.3556  0.3606
  571TIP3   OH225907   4.419   4.542  18.235 -0.5106  0.0761 -0.1827
  571TIP3    H125908   4.488   4.539  18.302 -0.0974 -1.3279 -0.6376
  571TIP3    H225909   4.339   4.556  18.284 -0.1140 -0.1100  0.5437
  572TIP3   OH225910   0.203   2.321  18.060 -0.2112  0.6182 -0.3923
  572TIP3    H125911   0.220   2.263  18.134 -3.0729 -0.4812 -0.4753
  572TIP3    H225912   0.283   2.372  18.050  2.2063 -2.7851  0.1382
  573TIP3   OH225913   6.194   4.267  16.510  0.5891 -0.2266 -0.0830
  573TIP3    H125914   6.196   4.241  16.602 -0.3453 -0.2382 -0.0542
  573TIP3    H225915   6.178   4.361  16.512  0.2977 -0.2720 -0.2325
  574TIP3   OH225916   3.186   2.483  17.170  0.3711 -0.0747 -0.5528
  574TIP3    H125917   3.188   2.481  17.075 -0.8955 -1.5895 -0.5972
  574TIP3    H225918   3.233   2.404  17.197  1.0565  0.5391  0.1148
  575TIP3   OH225919   7.604   2.324  17.432  0.0649  0.2885 -0.1456
  575TIP3    H125920   7.528   2.357  17.481 -0.4859 -0.5162 -0.4372
  575TIP3    H225921   7.675   2.322  17.496 -0.5526 -0.4041  0.5331
  576TIP3   OH225922   0.754   1.134  17.542 -0.4295 -0.4887 -0.8228
  576TIP3    H125923   0.741   1.216  17.590 -1.2425 -1.1950  0.2138
  576TIP3    H225924   0.824   1.153  17.480  0.1174  0.6846  0.1215
  577TIP3   OH225925   6.185   2.260  17.097 -0.2955  0.4740 -0.0286
  577TIP3    H125926   6.193   2.355  17.102 -0.9634  0.5212  0.3047
  577TIP3    H225927   6.273   2.229  17.078 -0.4893  1.3614 -2.9631
  578TIP3   OH225928   2.711   4.705  17.575 -0.2209 -0.2936  0.2913
  578TIP3    H125929   2.733   4.622  17.533  0.5023 -0.4917  1.0503
  578TIP3    H225930   2.794   4.737  17.611  0.0053  1.8600 -1.8663
  579TIP3   OH225931   5.988   2.770  17.521  0.3315  0.1092  0.1157
  579TIP3    H125932   5.987   2.675  17.518 -0.3735  0.1175 -0.4468
  579TIP3    H225933   6.046   2.792  17.594  3.5200 -0.6840 -1.9781
  580TIP3   OH225934   6.287   6.852  17.592 -0.5137  0.3687 -0.0786
  580TIP3    H125935   6.265   6.924  17.650 -1.0024 -0.3593  0.6688
  580TIP3    H225936   6.204   6.827  17.551 -0.4065  0.0435 -0.1071
  581TIP3   OH225937   0.670   2.496  18.773 -0.0658 -0.1870 -0.1099
  581TIP3    H125938   0.586   2.503  18.727 -0.7631 -1.2077  0.9658
  581TIP3    H225939   0.731   2.468  18.705 -0.4789  0.9894 -1.0063
  582TIP3   OH225940   2.542   0.525  18.322 -0.0103 -0.5034 -0.1165
  582TIP3    H125941   2.532   0.601  18.378  0.0440 -0.7104  0.1757
  582TIP3    H225942   2.532   0.559  18.233  0.4134 -0.0895 -0.0090
  583TIP3   OH225943   7.066   6.831  16.854 -0.1960  0.0702  0.4183
  583TIP3    H125944   6.990   6.842  16.797 -1.8377 -1.0021  2.2466
  583TIP3    H225945   7.124   6.904  16.832 -0.9108 -0.0711 -2.2634
  584TIP3   OH225946   5.064   4.920  17.553  0.2737 -0.2237 -0.5356
  584TIP3    H125947   5.112   4.908  17.634 -1.2959 -2.9461  0.1136
  584TIP3    H225948   4.974   4.894  17.574 -0.4932  0.3019 -2.8065
  585TIP3   OH225949   4.228   6.584  18.744  0.6187  0.4355 -0.3179
  585TIP3    H125950   4.148   6.586  18.692  0.0148 -2.9635  0.2720
  585TIP3    H225951   4.200   6.610  18.832 -0.2797 -2.1550  0.2460
  586TIP3   OH225952   5.162   2.002  17.736 -0.1180  0.6697 -0.3190
  586TIP3    H125953   5.145   1.939  17.806 -1.2435  1.8839  0.5469
  586TIP3    H225954   5.097   1.981  17.668  0.5071 -0.0483 -0.7126
  587TIP3   OH225955   4.820   3.643  18.514  0.2305  0.0378  0.3088
  587TIP3    H125956   4.747   3.669  18.569 -1.2515 -0.4047 -1.3621
  587TIP3    H225957   4.834   3.718  18.456 -1.0072 -0.9980 -1.4344
  588TIP3   OH225958   6.509   7.103  17.442 -0.2690  0.4667  0.1959
  588TIP3    H125959   6.441   7.067  17.498  1.2614 -0.7076  1.3889
  588TIP3    H225960   6.538   7.182  17.487 -0.5502  0.7266 -0.0818
  589TIP3   OH225961   0.952   8.262  18.227 -0.2858 -0.4736 -0.4449
  589TIP3    H125962   1.010   8.215  18.287 -1.2448  0.5073  1.3352
  589TIP3    H225963   0.926   8.197  18.162 -0.9177 -2.2177  1.4501
  590TIP3   OH225964   2.406   1.541  18.712  0.1053 -0.1295  0.0000
  590TIP3    H125965   2.486   1.579  18.746  0.5735 -2.8937  2.3386
  590TIP3    H225966   2.435   1.468  18.657 -0.7951 -0.2900 -0.2860
  591TIP3   OH225967   5.879   4.211  18.638  0.5797 -0.6182  0.0169
  591TIP3    H125968   5.883   4.266  18.716 -1.4495 -0.9466  0.3850
  591TIP3    H225969   5.913   4.126  18.667 -0.0564 -0.7049  0.5167
  592TIP3   OH225970   2.014   6.896  16.713 -0.3936  0.5405 -0.0728
  592TIP3    H125971   1.950   6.959  16.746 -1.7068 -0.3642 -0.7820
  592TIP3    H225972   2.099   6.938  16.726 -1.1994  2.2336 -0.0877
  593TIP3   OH225973   7.109   7.388  17.658 -0.1178  0.3058 -0.2609
  593TIP3    H125974   7.176   7.431  17.711  0.4221 -1.3607  0.5074
  593TIP3    H225975   7.032   7.383  17.715  0.2772 -0.9597  0.2072
  594TIP3   OH225976   2.652   7.055  18.001 -0.0663 -0.6243 -0.6625
  594TIP3    H125977   2.644   6.971  18.046 -0.6250  0.8729  2.2970
  594TIP3    H225978   2.562   7.079  17.980 -0.5179  1.0592  2.4661
  595TIP3   OH225979   3.094   3.142  18.587  0.6181  0.4284  0.3233
  595TIP3    H125980   3.070   3.162  18.678 -2.1915  3.5267 -0.9193
  595TIP3    H225981   3.061   3.053  18.573  1.3459 -0.2274  2.3117
  596TIP3   OH225982   6.393   1.660  18.852  0.2006 -0.1358  0.1991
  596TIP3    H125983   6.441   1.636  18.932  0.8520  2.2592  0.6096
  596TIP3    H225984   6.302   1.638  18.872  0.7573 -2.6007  0.3013
  597TIP3   OH225985   6.523   7.592  18.041 -0.4145  0.0358  0.5212
  597TIP3    H125986   6.472   7.672  18.049  0.0562  0.3730  0.2036
  597TIP3    H225987   6.606   7.612  18.085 -0.3165 -0.2935  0.4884
  598TIP3   OH225988   7.445   1.787  18.797 -0.0138 -0.1204  0.1136
  598TIP3    H125989   7.490   1.861  18.755 -0.6492  0.4555  0.4273
  598TIP3    H225990   7.444   1.809  18.890  2.5229 -1.9789  0.7054
  599TIP3   OH225991   4.696   3.532  17.963  0.6250  0.4128 -0.0994
  599TIP3    H125992   4.752   3.477  18.018  0.2049  1.2624  1.2502
  599TIP3    H225993   4.630   3.472  17.927  0.9427 -0.1774  0.2884
  600TIP3   OH225994   4.901   4.450  18.528  0.6623 -0.0035  0.0175
  600TIP3    H125995   4.917   4.357  18.513  1.5775  0.1881 -0.2834
  600TIP3    H225996   4.972   4.479  18.585  0.4516  0.5385  0.0199
  601TIP3   OH225997   5.781   0.465  17.395  0.1072  0.0125 -0.0223
  601TIP3    H125998   5.811   0.489  17.307 -1.8434  0.3007 -0.6436
  601TIP3    H225999   5.689   0.443  17.385  0.0809 -0.9472  1.7943
  602TIP3   OH226000   8.081   5.664  18.449 -0.7675 -0.4464  0.2675
  602TIP3    H126001   8.170   5.684  18.478 -1.2842 -0.4590  1.9862
  602TIP3    H226002   8.055   5.740  18.396  0.3636 -0.6064 -0.5570
  603TIP3   OH226003   6.490   2.652  17.542  0.2176 -0.6218 -0.2904
  603TIP3    H126004   6.425   2.623  17.478  0.7316  0.9768 -1.6049
  603TIP3    H226005   6.438   2.697  17.610 -0.2519 -1.6177  0.0392
  604TIP3   OH226006   0.726   6.653  17.638 -0.3096 -0.5186  0.1434
  604TIP3    H126007   0.797   6.639  17.701 -0.9450 -1.5131  0.6763
  604TIP3    H226008   0.744   6.592  17.567 -0.2227 -0.2298 -0.0819
  605TIP3   OH226009   0.098   1.926  17.639  0.4504 -0.2638 -0.2144
  605TIP3    H126010   0.092   1.951  17.731  1.3350  0.5449 -0.3606
  605TIP3    H226011   0.189   1.942  17.615  0.0690  0.2325 -1.4225
  606TIP3   OH226012   6.668   1.873  16.942 -0.0041 -1.1187  0.1886
  606TIP3    H126013   6.721   1.943  16.982  1.2037 -1.4417 -0.7672
  606TIP3    H226014   6.721   1.794  16.954 -1.5317 -1.9784  1.5966
  607TIP3   OH226015   0.042   3.862  17.204 -0.0875  0.0706  0.9453
  607TIP3    H126016   0.080   3.939  17.245  0.1537  0.0301  0.8017
  607TIP3    H226017   0.002   3.895  17.123  0.2006  0.0158  0.7774
  608TIP3   OH226018   1.020   3.839  18.418 -0.7757  0.3626 -0.5591
  608TIP3    H126019   1.016   3.773  18.487 -0.8424 -1.0770 -1.8628
  608TIP3    H226020   0.942   3.893  18.431 -0.7197  0.1989  0.5453
  609TIP3   OH226021   6.122   7.078  17.836 -0.3880  0.4937  0.4979
  609TIP3    H126022   6.117   7.145  17.905 -0.0715  0.3017  0.7064
  609TIP3    H226023   6.115   7.128  17.755 -1.9059  0.6295  0.6689
  610TIP3   OH226024   2.676   8.341  17.179  0.0983  0.8805  0.2390
  610TIP3    H126025   2.732   8.279  17.132 -1.6000 -1.7084  1.3606
  610TIP3    H226026   2.663   8.413  17.118 -0.2670 -1.2981 -2.4382
  611TIP3   OH226027   0.582   7.388  17.131 -0.3845  0.1760  0.3006
  611TIP3    H126028   0.634   7.417  17.206 -0.1913  0.5953  0.0093
  611TIP3    H226029   0.506   7.344  17.170  1.3434 -2.6537  0.7639
  612TIP3   OH226030   2.808   8.164  17.917 -0.3178  0.1127 -0.5961
  612TIP3    H126031   2.828   8.177  17.824  0.3583 -1.0664 -0.6397
  612TIP3    H226032   2.712   8.160  17.920 -0.3549  0.3882 -1.2121
  613TIP3   OH226033   7.814   6.742  18.796 -0.5879 -0.2156  0.2626
  613TIP3    H126034   7.887   6.805  18.798 -0.3600 -0.4463 -0.4161
  613TIP3    H226035   7.847   6.665  18.840 -1.0128  0.2786  1.4770
  614TIP3   OH226036   7.305   3.189  17.671 -0.5258 -0.5792  0.5684
  614TIP3    H126037   7.273   3.119  17.614 -1.2536  0.8642 -0.8860
  614TIP3    H226038   7.313   3.265  17.613  1.1001  0.3267  1.9069
  615TIP3   OH226039   2.466   8.128  17.169 -0.3579  0.4167 -0.2015
  615TIP3    H126040   2.438   8.166  17.085  2.0997  0.1437 -1.2397
  615TIP3    H226041   2.547   8.175  17.190  0.8697 -1.7666  0.2711
  616TIP3   OH226042   3.414   7.199  17.837 -0.0239  0.4512 -0.1697
  616TIP3    H126043   3.491   7.256  17.832 -0.2082  0.6013 -3.2367
  616TIP3    H226044   3.450   7.111  17.840  0.2535  0.5595 -0.2541
  617TIP3   OH226045   8.317   6.109  16.792  0.1156  0.0145  0.5577
  617TIP3    H126046   8.377   6.058  16.737 -2.6878 -2.5451 -0.4157
  617TIP3    H226047   8.324   6.198  16.759  2.0510 -0.5225 -0.6750
  618TIP3   OH226048   3.818   5.708  17.998  0.2644  0.5463 -0.1716
  618TIP3    H126049   3.777   5.752  18.072 -1.2195 -2.3078  0.8372
  618TIP3    H226050   3.910   5.735  18.003 -0.4452  3.1896  0.4911
  619TIP3   OH226051   5.211   4.652  17.063 -0.0698 -0.1652 -0.2088
  619TIP3    H126052   5.241   4.575  17.110  1.1639 -0.2829 -1.1144
  619TIP3    H226053   5.199   4.719  17.131  1.9523 -0.2348  0.2963
  620TIP3   OH226054   2.996   3.495  18.912  0.4704 -0.2576 -0.4697
  620TIP3    H126055   3.082   3.488  18.870  1.1416 -0.5243  0.9075
  620TIP3    H226056   2.985   3.589  18.927  0.6762 -0.2545 -0.3369
  621TIP3   OH226057   5.075   7.459  18.552 -0.1950 -0.3244  0.5773
  621TIP3    H126058   5.030   7.517  18.490 -0.9602 -0.6539  0.8035
  621TIP3    H226059   5.119   7.518  18.613  1.0529  0.0083 -0.6067
  622TIP3   OH226060   3.520   1.361  17.844  0.8703  0.0827  0.3696
  622TIP3    H126061   3.567   1.374  17.926  0.6797 -1.5202  0.7583
  622TIP3    H226062   3.488   1.271  17.848 -0.5725  0.5032 -0.7423
  623TIP3   OH226063   3.014   7.620  18.023 -0.2722 -0.2119  0.3567
  623TIP3    H126064   2.966   7.551  18.069  0.9834  0.6311  3.1355
  623TIP3    H226065   3.061   7.667  18.092  1.8317  1.1393 -1.8271
  624TIP3   OH226066   7.779   6.896  17.761 -1.3241  0.2624  0.2018
  624TIP3    H126067   7.706   6.943  17.720 -0.5315  0.8214 -0.5943
  624TIP3    H226068   7.812   6.838  17.692 -0.3618  0.7698  0.2228
  625TIP3   OH226069   5.839   4.969  18.091  0.1706  0.5571  0.3810
  625TIP3    H126070   5.834   5.040  18.155 -1.5444  0.7824  0.0614
  625TIP3    H226071   5.803   5.008  18.011  0.4422 -0.2927 -0.1543
  626TIP3   OH226072   6.653   8.251  18.334  0.2894  0.1275 -0.1106
  626TIP3    H126073   6.713   8.224  18.265 -0.3677  1.6329 -1.3376
  626TIP3    H226074   6.633   8.343  18.314 -2.3681 -0.2805  0.2263
  627TIP3   OH226075   2.499   5.911  17.364  0.5569 -0.2076 -0.4489
  627TIP3    H126076   2.444   5.834  17.350  0.5333 -0.4342  0.7624
  627TIP3    H226077   2.443   5.985  17.341 -0.1857 -0.4525  0.4786
  628TIP3   OH226078   7.949   7.388  17.021 -0.1404  0.5543 -0.4511
  628TIP3    H126079   7.951   7.447  17.096 -0.2167 -0.1708  0.1339
  628TIP3    H226080   8.042   7.371  17.002 -0.1239  0.0113  0.0768
  629TIP3   OH226081   2.343   8.154  16.895 -0.1719  0.0819  0.1237
  629TIP3    H126082   2.250   8.163  16.875 -0.6276 -0.6836  1.7292
  629TIP3    H226083   2.371   8.243  16.918 -0.7530  0.1552  0.5718
  630TIP3   OH226084   4.846   8.064  17.931  0.3978  0.7463  0.0571
  630TIP3    H126085   4.916   8.071  17.866 -1.1262  1.5122 -1.5629
  630TIP3    H226086   4.776   8.119  17.898 -1.2043 -0.4035  1.3578
  631TIP3   OH226087   7.537   0.613  18.568  0.1308 -0.3480  0.2781
  631TIP3    H126088   7.620   0.661  18.570 -0.4145  0.6251  1.4138
  631TIP3    H226089   7.477   0.670  18.520 -0.2676 -0.3346  0.7776
  632TIP3   OH226090   6.460   4.740  18.721 -0.2832  0.4505 -0.1838
  632TIP3    H126091   6.524   4.706  18.660 -1.5242  1.1619 -1.9642
  632TIP3    H226092   6.429   4.663  18.769 -0.4255 -0.3912 -1.5832
  633TIP3   OH226093   2.966   0.991  17.545 -0.3102 -1.0203 -0.2214
  633TIP3    H126094   3.003   0.908  17.576 -0.6157 -0.9303  0.4063
  633TIP3    H226095   2.871   0.979  17.553 -0.3347 -0.2100  0.9879
  634TIP3   OH226096   1.761   7.382  16.384  0.7323  0.4067 -0.0492
  634TIP3    H126097   1.803   7.463  16.412 -0.1631  1.7207 -2.1938
  634TIP3    H226098   1.764   7.386  16.288 -1.4468 -0.9309 -0.2454
  635TIP3   OH226099   7.773   7.489  17.337 -0.4067 -0.4714 -0.2204
  635TIP3    H126100   7.829   7.566  17.323 -1.1494  0.2568  0.7386
  635TIP3    H226101   7.825   7.432  17.394 -0.9996  0.6851  1.5762
  636TIP3   OH226102   6.954   6.657  18.306  0.3152  0.0283 -0.3691
  636TIP3    H126103   6.981   6.652  18.214 -1.2154 -3.6451 -0.7806
  636TIP3    H226104   6.886   6.591  18.315 -0.6107  1.2324  3.1514
  637TIP3   OH226105   7.882   6.302  17.890  0.2204 -0.3442  0.4390
  637TIP3    H126106   7.930   6.231  17.849 -0.7138 -0.8949  0.2719
  637TIP3    H226107   7.811   6.322  17.829  1.9752  2.6045 -0.8794
  638TIP3   OH226108   5.951   1.674  17.217  0.1510 -0.1476 -0.6589
  638TIP3    H126109   5.971   1.611  17.148  0.5575  0.2376 -0.8977
  638TIP3    H226110   5.938   1.620  17.295  1.8393 -0.4555 -0.5556
  639TIP3   OH226111   2.299   6.769  18.168  0.2539  0.0685  0.5002
  639TIP3    H126112   2.313   6.721  18.250  0.6716  0.6108  0.7550
  639TIP3    H226113   2.245   6.845  18.194  2.0236  1.3224  0.6607
  640TIP3   OH226114   5.895   1.939  18.152 -0.0335  0.3372 -0.4866
  640TIP3    H126115   5.806   1.946  18.118 -1.0757 -3.1374  1.0922
  640TIP3    H226116   5.948   1.912  18.077 -1.0404 -0.9772 -0.7599
  641TIP3   OH226117   3.296   1.672  18.530 -0.6044 -0.3719 -0.2647
  641TIP3    H126118   3.376   1.664  18.582 -1.3014 -3.1501  0.5400
  641TIP3    H226119   3.227   1.686  18.594 -1.3809 -3.1596 -0.3735
  642TIP3   OH226120   8.336   8.170  17.818  0.1941 -0.0571  0.2798
  642TIP3    H126121   8.244   8.166  17.793  0.3860  1.9274 -1.0132
  642TIP3    H226122   8.379   8.213  17.744  2.4534 -2.2994  0.1791
  643TIP3   OH226123   1.648   6.924  18.342 -0.2492  1.1956  0.1083
  643TIP3    H126124   1.556   6.899  18.350 -0.6980  0.4738 -4.4541
  643TIP3    H226125   1.646   7.010  18.301  1.1520  1.4924  0.6162
  644TIP3   OH226126   1.544   2.437  18.237  0.6645 -0.7606  0.1406
  644TIP3    H126127   1.565   2.531  18.230 -0.0786 -0.5597  0.5300
  644TIP3    H226128   1.614   2.394  18.188  0.9125  0.0090 -0.2117
  645TIP3   OH226129   2.896   2.831  18.880  0.0486 -0.2885  0.4062
  645TIP3    H126130   2.919   2.750  18.926 -1.5094 -1.1480 -0.2721
  645TIP3    H226131   2.943   2.825  18.797  1.5572  0.4960  1.1659
  646TIP3   OH226132   3.570   0.664  18.622  0.3246 -0.0674 -0.2508
  646TIP3    H126133   3.626   0.696  18.692  0.0821 -0.7468  0.2668
  646TIP3    H226134   3.481   0.687  18.650  0.1622 -1.0510  0.0594
  647TIP3   OH226135   6.539   3.507  17.810  0.5307 -0.3767 -0.4965
  647TIP3    H126136   6.631   3.481  17.798  0.9084  1.1039 -1.0138
  647TIP3    H226137   6.489   3.426  17.797  1.8484 -1.6361  1.6456
  648TIP3   OH226138   8.341   5.501  18.825 -0.1266 -0.6050  0.0372
  648TIP3    H126139   8.322   5.448  18.747 -0.1299  0.8312 -0.9740
  648TIP3    H226140   8.256   5.531  18.855 -0.0720 -0.6335  0.2234
  649TIP3   OH226141   5.121   3.648  19.191 -0.5207  0.2923 -0.1858
  649TIP3    H126142   5.052   3.712  19.175 -0.1671  1.1884  1.5735
  649TIP3    H226143   5.192   3.699  19.231  0.0101 -1.0780  0.6979
  650TIP3   OH226144   1.823   5.664  18.479  0.1095  0.2544 -0.8265
  650TIP3    H126145   1.877   5.743  18.467  0.7684  0.0713  0.7224
  650TIP3    H226146   1.793   5.643  18.391 -0.4018  2.4504 -1.2475
  651TIP3   OH226147   6.768   7.804  18.591  0.2303 -0.5369  0.1547
  651TIP3    H126148   6.741   7.896  18.590 -1.2903 -0.9358 -1.8613
  651TIP3    H226149   6.839   7.801  18.656 -0.8406  1.6844  1.5621
  652TIP3   OH226150   5.338   6.087  17.894 -0.5138  0.6670  0.2380
  652TIP3    H126151   5.309   6.091  17.985 -0.1855 -0.6510  0.4211
  652TIP3    H226152   5.432   6.067  17.899 -0.6986 -0.4383 -0.3836
  653TIP3   OH226153   2.495   6.949  17.383  0.5597  0.3652  0.3052
  653TIP3    H126154   2.577   6.958  17.432  0.1918 -1.1941  1.2872
  653TIP3    H226155   2.438   6.900  17.443 -0.7068  0.4656 -0.7978
  654TIP3   OH226156   5.114   3.007  18.173 -0.4402  0.6085  0.3584
  654TIP3    H126157   5.095   2.993  18.080  0.2795 -0.9878  0.4247
  654TIP3    H226158   5.030   3.034  18.211 -0.7340  1.2909 -0.7434
  655TIP3   OH226159   6.870   7.266  16.590  0.3810  0.1616 -0.5247
  655TIP3    H126160   6.839   7.353  16.616 -1.7487 -0.7680  0.2456
  655TIP3    H226161   6.955   7.258  16.632 -0.7048  0.7354  1.9941
  656TIP3   OH226162   4.714   3.718  17.758 -0.2706 -0.2236 -0.1183
  656TIP3    H126163   4.783   3.772  17.798  0.3750 -2.4949  2.0823
  656TIP3    H226164   4.712   3.638  17.811 -2.3012 -1.6918 -2.2098
  657TIP3   OH226165   7.353   2.116  18.523  0.4183 -0.5499  0.5587
  657TIP3    H126166   7.260   2.131  18.544  0.5424  0.5278  0.4042
  657TIP3    H226167   7.378   2.042  18.578 -0.3434 -0.3899  1.1441
  658TIP3   OH226168   7.874   4.847  17.181  0.3777  0.3562 -0.0601
  658TIP3    H126169   7.926   4.888  17.250 -0.1386 -0.7870  1.0322
  658TIP3    H226170   7.937   4.796  17.130  0.2487 -2.1046  2.0471
  659TIP3   OH226171   4.338   2.594  16.384  0.2513 -0.2387 -0.3107
  659TIP3    H126172   4.277   2.662  16.412 -0.6088 -1.7468  1.6972
  659TIP3    H226173   4.413   2.642  16.351 -0.7181  1.6831  0.1167
  660TIP3   OH226174   6.082   1.799  17.612  0.1583 -0.2294 -0.0126
  660TIP3    H126175   6.149   1.733  17.598 -0.2522 -1.0899  1.7257
  660TIP3    H226176   6.008   1.771  17.558  0.3852 -0.5627 -0.1510
  661TIP3   OH226177   7.531   0.927  17.109 -0.2577 -0.1745  0.1135
  661TIP3    H126178   7.508   1.019  17.098 -0.1490 -0.3358 -2.0613
  661TIP3    H226179   7.627   0.927  17.117 -0.3244 -0.0521  0.9493
  662TIP3   OH226180   8.267   5.952  18.798  0.8488  0.4905 -0.6966
  662TIP3    H126181   8.244   5.864  18.827  2.5222 -0.4471 -1.9862
  662TIP3    H226182   8.214   5.966  18.719  1.3926  0.1446 -1.1351
  663TIP3   OH226183   4.076   0.416  18.297 -0.4117  0.4899 -0.2159
  663TIP3    H126184   3.991   0.371  18.289 -0.3201  0.1096  0.8215
  663TIP3    H226185   4.131   0.353  18.344  0.0359  1.2720  0.3229
  664TIP3   OH226186   7.518   5.910  17.505  0.4395 -0.5455 -1.0899
  664TIP3    H126187   7.493   5.972  17.574 -1.0761 -1.0424 -1.1525
  664TIP3    H226188   7.609   5.932  17.485  0.9074 -0.3374  1.0082
  665TIP3   OH226189   3.319   2.069  18.132 -0.1923 -0.0295 -0.1349
  665TIP3    H126190   3.250   2.106  18.187 -0.9602 -1.0704 -0.3853
  665TIP3    H226191   3.391   2.132  18.140 -0.1733 -0.2672  2.2935
  666TIP3   OH226192   1.136   6.373  18.911 -0.0782  0.3626  0.4599
  666TIP3    H126193   1.173   6.360  18.824 -2.6861  2.9045 -1.2386
  666TIP3    H226194   1.211   6.369  18.970  1.8726 -0.9304 -1.9180
  667TIP3   OH226195   1.771   0.957  17.266  0.2451 -0.1726 -0.1496
  667TIP3    H126196   1.848   0.902  17.253  0.4393 -1.2308  3.9894
  667TIP3    H226197   1.801   1.045  17.244  2.5731 -0.6197  0.8595
  668TIP3   OH226198   1.300   0.972  16.840 -0.5136 -0.1704 -0.0844
  668TIP3    H126199   1.235   0.907  16.813 -0.1794 -0.5664  0.0451
  668TIP3    H226200   1.262   1.056  16.816 -0.3275 -0.4924 -1.6321
  669TIP3   OH226201   0.856   6.090  17.631  0.7246  0.1414 -0.4571
  669TIP3    H126202   0.895   6.087  17.544  1.1853 -3.3577 -0.2731
  669TIP3    H226203   0.816   6.004  17.642 -2.1607  1.5823  1.6037
  670TIP3   OH226204   3.057   7.163  18.225 -0.1712 -0.3016 -0.2552
  670TIP3    H126205   2.965   7.189  18.216 -0.9700 -3.3339 -2.3016
  670TIP3    H226206   3.102   7.211  18.155 -0.8615 -1.2080 -1.3639
  671TIP3   OH226207   0.113   2.972  18.387  0.4051  0.3833  0.2523
  671TIP3    H126208   0.193   2.926  18.360 -0.0028  0.1730 -0.6417
  671TIP3    H226209   0.080   3.012  18.306 -0.2689  0.6624  0.6585
  672TIP3   OH226210   2.930   1.394  18.764 -0.4438 -0.6881  0.2516
  672TIP3    H126211   2.897   1.452  18.696 -0.1039  1.1068  1.5209
  672TIP3    H226212   2.860   1.331  18.779 -1.3587  0.1773 -0.3016
  673TIP3   OH226213   4.456   6.506  17.386 -0.1561  0.5639 -0.0996
  673TIP3    H126214   4.376   6.461  17.414 -0.1920  1.3711  1.1940
  673TIP3    H226215   4.527   6.452  17.419 -0.1278 -0.4073 -1.6617
  674TIP3   OH226216   1.996   2.249  16.962 -0.4127  0.2046 -0.1093
  674TIP3    H126217   2.067   2.223  17.020 -0.7136 -2.1414 -0.6651
  674TIP3    H226218   1.986   2.343  16.976  3.3310  0.8414 -0.5895
  675TIP3   OH226219   0.045   5.388  18.032  0.4729 -0.2332 -0.0687
  675TIP3    H126220  -0.029   5.420  18.085 -0.4228 -0.9831 -0.8326
  675TIP3    H226221   0.102   5.344  18.095 -0.6607 -1.2575  0.2809
  676TIP3   OH226222   7.703   0.753  18.246  0.3244 -0.2967  0.3818
  676TIP3    H126223   7.719   0.806  18.167  1.7379 -1.5190 -0.2029
  676TIP3    H226224   7.623   0.704  18.226 -0.3086  0.6846  0.4390
  677TIP3   OH226225   4.286   6.270  17.586  0.1317  0.0724  0.3551
  677TIP3    H126226   4.240   6.304  17.509  0.2071  0.7013  0.5843
  677TIP3    H226227   4.238   6.191  17.610 -0.2995  0.2439  0.0650
  678TIP3   OH226228   7.578   4.954  17.081  0.0925 -0.1936 -0.2929
  678TIP3    H126229   7.503   4.929  17.027  0.4578  3.5983 -2.9564
  678TIP3    H226230   7.652   4.909  17.041 -0.1886 -0.5042 -0.4633
  679TIP3   OH226231   2.042   3.132  18.834 -0.0038  0.5415  0.1003
  679TIP3    H126232   2.050   3.225  18.815 -0.1702  0.5140 -0.1042
  679TIP3    H226233   2.132   3.099  18.831  0.1711  0.8813  1.1586
  680TIP3   OH226234   5.500   1.524  18.367  0.1084 -0.2130 -0.1336
  680TIP3    H126235   5.594   1.537  18.376  0.3227 -1.0504 -0.9113
  680TIP3    H226236   5.466   1.528  18.456  0.7927  0.6917  0.0984
  681TIP3   OH226237   2.906   0.806  17.900 -0.1423 -0.2641  0.5763
  681TIP3    H126238   2.876   0.772  17.816  1.1966 -3.2465  1.1691
  681TIP3    H226239   2.827   0.808  17.955 -0.8059  0.6156 -0.3570
  682TIP3   OH226240   1.555   0.780  18.151 -0.0355  0.0006  0.0451
  682TIP3    H126241   1.468   0.744  18.136 -0.1467 -1.1951  3.0382
  682TIP3    H226242   1.540   0.873  18.167 -0.7747 -0.2060  0.5774
  683TIP3   OH226243   2.967   6.429  18.476 -0.6324 -0.7282  0.0538
  683TIP3    H126244   3.007   6.346  18.452 -0.4005  0.1120 -2.8336
  683TIP3    H226245   2.873   6.412  18.476 -0.5874 -1.0022 -0.5494
  684TIP3   OH226246   8.161   3.904  18.318 -0.4872 -0.1116 -0.2574
  684TIP3    H126247   8.218   3.901  18.395  0.7512  0.4651 -1.1210
  684TIP3    H226248   8.142   3.997  18.306  0.2603 -0.0762 -1.2951
  685TIP3   OH226249   1.563   2.318  17.420  0.3670  0.4319  1.0213
  685TIP3    H126250   1.509   2.305  17.498  2.3101  0.0846  2.4074
  685TIP3    H226251   1.645   2.271  17.440  1.1988  0.9605 -0.9295
  686TIP3   OH226252   6.731   8.400  17.750 -0.2750  0.4010  0.0034
  686TIP3    H126253   6.762   8.373  17.664 -1.6143 -1.5672  0.0606
  686TIP3    H226254   6.648   8.444  17.733  0.6315  2.2650  0.1423
  687TIP3   OH226255   0.537   4.447  18.976  0.0221 -0.2975 -0.1750
  687TIP3    H126256   0.628   4.426  18.956  0.3799 -0.2995  1.3513
  687TIP3    H226257   0.540   4.536  19.010 -0.6982  0.0670 -1.0169
  688TIP3   OH226258   4.823   0.383  17.595  0.3380 -0.4431  0.1190
  688TIP3    H126259   4.823   0.353  17.504  1.3670 -0.3327  0.0748
  688TIP3    H226260   4.770   0.318  17.641  0.2008 -0.7657 -0.4804
  689TIP3   OH226261   4.942   5.710  18.787 -0.2261  0.5831  0.2731
  689TIP3    H126262   4.975   5.719  18.698 -2.6484  0.3004 -0.7236
  689TIP3    H226263   4.893   5.790  18.803 -1.1416 -0.0499  0.7279
  690TIP3   OH226264   8.351   5.465  17.797  0.5176  0.4131  0.3255
  690TIP3    H126265   8.396   5.411  17.862 -2.4475 -1.1606  1.2998
  690TIP3    H226266   8.275   5.412  17.772 -0.2549  2.4415 -1.9149
  691TIP3   OH226267   1.066   2.696  17.238  0.4517 -0.3038 -0.0492
  691TIP3    H126268   1.159   2.696  17.261  0.7836 -2.0546 -1.2153
  691TIP3    H226269   1.065   2.720  17.146 -0.5017  2.0942  0.5016
  692TIP3   OH226270   1.970   6.352  16.319  0.3463  0.1175 -0.3118
  692TIP3    H126271   1.911   6.372  16.247 -1.5461  1.2681  1.4589
  692TIP3    H226272   2.047   6.407  16.303  0.3320 -0.2603 -1.8292
  693TIP3   OH226273   3.787   4.763  18.651  0.2445  0.2547 -0.1634
  693TIP3    H126274   3.883   4.762  18.657  0.3261  2.1854 -0.4639
  693TIP3    H226275   3.766   4.851  18.618 -1.5674 -0.5997 -1.4359
  694TIP3   OH226276   0.642   8.060  17.413  0.5603  0.7467 -0.1433
  694TIP3    H126277   0.588   7.989  17.447  1.2593  0.0224 -0.5168
  694TIP3    H226278   0.676   8.027  17.329  1.9790  0.9811  0.3141
  695TIP3   OH226279   6.406   2.367  17.429 -0.2539 -0.1290 -0.9715
  695TIP3    H126280   6.480   2.315  17.460  0.1538  0.3152 -1.1979
  695TIP3    H226281   6.440   2.415  17.354 -0.4314  1.0174 -0.3260
  696TIP3   OH226282   5.785   5.059  17.493 -0.2276  0.1183 -0.4943
  696TIP3    H126283   5.839   5.129  17.528  1.9871 -1.5157 -0.4559
  696TIP3    H226284   5.739   5.023  17.569  0.9111 -0.3536 -0.0134
  697TIP3   OH226285   7.914   1.978  16.790 -0.2839 -0.4013 -0.2564
  697TIP3    H126286   7.967   2.057  16.785  0.0121 -0.6132 -0.4370
  697TIP3    H226287   7.878   1.979  16.879 -0.1733 -0.1353 -0.2148
  698TIP3   OH226288   8.315   3.608  18.705  0.2947 -0.1771  0.1976
  698TIP3    H126289   8.351   3.672  18.766  0.4686 -0.1032  0.0196
  698TIP3    H226290   8.383   3.541  18.698  0.0515 -0.4568  0.4969
  699TIP3   OH226291   4.081   4.641  17.383 -0.4752  0.2205  0.0067
  699TIP3    H126292   4.103   4.730  17.356 -2.7914  0.4071 -1.6369
  699TIP3    H226293   4.112   4.586  17.311 -2.0504  0.1327 -0.6527
  700TIP3   OH226294   6.889   7.439  16.830  0.0159 -0.0263  0.2246
  700TIP3    H126295   6.927   7.512  16.880  0.3622  0.8747 -1.2984
  700TIP3    H226296   6.964   7.382  16.810 -0.1597 -0.5082  0.9122
  701TIP3   OH226297   0.016   0.208  17.566 -0.3442  0.2246  0.7535
  701TIP3    H126298   0.045   0.270  17.499 -1.5183 -0.4782 -0.4694
  701TIP3    H226299  -0.072   0.183  17.539 -0.8599 -0.1112  2.5834
  702TIP3   OH226300   1.993   6.915  17.094 -0.3471 -0.4829  0.2042
  702TIP3    H126301   2.049   6.955  17.161 -3.0123  0.5431  2.0177
  702TIP3    H226302   1.981   6.983  17.029  1.1872 -1.0361 -0.7166
  703TIP3   OH226303   2.245   5.836  17.184 -0.0464 -0.1403  0.2670
  703TIP3    H126304   2.235   5.924  17.147  1.0353  0.8969  2.2321
  703TIP3    H226305   2.271   5.781  17.110  1.6829  1.7293 -0.6098
  704TIP3   OH226306   6.013   5.406  17.845 -0.1469 -0.2891  0.0017
  704TIP3    H126307   5.993   5.387  17.937 -0.3050 -2.5000 -0.4523
  704TIP3    H226308   6.105   5.431  17.846 -0.5357  1.2689  0.9387
  705TIP3   OH226309   8.376   4.229  17.042 -0.0459 -1.1143 -0.0096
  705TIP3    H126310   8.289   4.262  17.066  0.1275 -1.8530  1.8533
  705TIP3    H226311   8.426   4.307  17.018 -1.2825 -0.7163 -1.3966
  706TIP3   OH226312   3.520   6.638  18.721  0.4022  0.0520 -0.3291
  706TIP3    H126313   3.595   6.697  18.716  0.5776 -0.2652 -1.9513
  706TIP3    H226314   3.559   6.552  18.735  0.2035  0.1378  0.8907
  707TIP3   OH226315   6.032   3.584  17.588  0.0876 -0.2873 -0.5067
  707TIP3    H126316   5.986   3.540  17.660  0.6266 -0.9745 -0.5612
  707TIP3    H226317   6.080   3.655  17.630  0.2144 -0.5408 -0.2174
  708TIP3   OH226318   6.441   1.759  18.588  0.1783  0.3853  0.1764
  708TIP3    H126319   6.528   1.788  18.617 -0.3460 -0.5452  3.0244
  708TIP3    H226320   6.404   1.714  18.665 -0.2008 -5.3190 -2.8345
  709TIP3   OH226321   1.641   3.575  17.888 -0.0127  0.1039  0.5489
  709TIP3    H126322   1.684   3.647  17.933  0.6436  0.1118 -0.0778
  709TIP3    H226323   1.610   3.518  17.959  2.0812 -0.5228  1.0478
  710TIP3   OH226324   5.898   1.925  18.775  0.0745 -0.5982  0.1708
  710TIP3    H126325   5.919   1.892  18.687  0.0176 -1.5558  0.4952
  710TIP3    H226326   5.903   2.020  18.767 -0.4145 -0.6500 -0.9916
  711TIP3   OH226327   6.103   1.125  18.914  0.5750  0.1455 -0.0744
  711TIP3    H126328   6.053   1.205  18.928  0.6316  0.0079  1.0122
  711TIP3    H226329   6.039   1.062  18.881  0.3354  0.3681 -0.0391
  712TIP3   OH226330   4.339   4.381  17.604 -0.2792 -0.0396  0.3913
  712TIP3    H126331   4.354   4.396  17.511  1.6058  1.1420  0.8397
  712TIP3    H226332   4.318   4.467  17.640  1.5471  0.0124  1.4578
  713TIP3   OH226333   6.120   0.243  17.083  0.6860 -0.2882 -0.2169
  713TIP3    H126334   6.117   0.165  17.026 -0.9735 -0.3840 -0.0583
  713TIP3    H226335   6.062   0.221  17.156 -0.0314  1.1844 -0.3023
  714TIP3   OH226336   2.069   6.595  17.320 -0.0978  0.1461 -0.0611
  714TIP3    H126337   2.151   6.644  17.330  0.9696 -1.4467 -0.5772
  714TIP3    H226338   2.083   6.515  17.371 -0.7516 -0.8089 -1.3251
  715TIP3   OH226339   0.019   4.045  17.669  0.5452 -0.3442  0.4503
  715TIP3    H126340  -0.029   4.087  17.598  3.3752  2.3547 -0.1017
  715TIP3    H226341   0.061   3.969  17.628  0.7302  0.1793 -0.3628
  716TIP3   OH226342   7.543   4.887  17.346  0.1475 -0.0586 -0.2088
  716TIP3    H126343   7.490   4.965  17.365  0.0742 -0.1300 -0.1198
  716TIP3    H226344   7.588   4.909  17.264  2.7524  1.4243  1.4782
  717TIP3   OH226345   6.572   0.332  16.493  0.1504  0.2810  0.3786
  717TIP3    H126346   6.508   0.282  16.543  0.0110  0.2466  0.1650
  717TIP3    H226347   6.586   0.281  16.413  1.1539 -0.1991  0.8422
  718TIP3   OH226348   2.486   1.048  17.922  0.5362  0.4722  0.0765
  718TIP3    H126349   2.521   1.096  17.998  0.4489  2.0346 -0.8206
  718TIP3    H226350   2.461   1.117  17.860  0.3593 -0.7649 -1.2711
  719TIP3   OH226351   6.632   3.656  18.736 -0.1974 -0.2422  0.9361
  719TIP3    H126352   6.633   3.568  18.773  1.1945 -0.4517  0.4399
  719TIP3    H226353   6.708   3.659  18.678  0.4791  1.6429  1.8290
  720TIP3   OH226354   4.194   7.291  16.564  0.7607  0.1871  0.4307
  720TIP3    H126355   4.169   7.241  16.487 -0.4947 -0.4375  1.1984
  720TIP3    H226356   4.258   7.236  16.609  1.2212  0.3893  0.0321
  721TIP3   OH226357   6.869   3.903  16.965 -0.7081 -0.0408  0.1692
  721TIP3    H126358   6.809   3.832  16.987  0.3046 -1.0970 -0.3286
  721TIP3    H226359   6.842   3.933  16.879 -0.3418 -0.7441 -0.2025
  722TIP3   OH226360   2.424   2.582  17.379  0.1933  0.0201 -0.5288
  722TIP3    H126361   2.410   2.530  17.458  0.1208 -3.5096 -2.6303
  722TIP3    H226362   2.514   2.612  17.385  1.4135 -3.2786 -0.6109
  723TIP3   OH226363   1.290   2.353  18.268  0.1216  0.2323 -0.0240
  723TIP3    H126364   1.290   2.276  18.211 -0.8420 -0.6586  1.0980
  723TIP3    H226365   1.380   2.384  18.267  1.1860 -2.4312  1.4023
  724TIP3   OH226366   4.746   7.430  18.037  0.0497 -0.2737  0.5730
  724TIP3    H126367   4.679   7.406  18.101 -0.6056 -0.3041 -0.1030
  724TIP3    H226368   4.810   7.481  18.087 -0.8789  0.4242  1.0912
  725TIP3   OH226369   6.146   4.327  17.437  0.5370  0.2524  0.0635
  725TIP3    H126370   6.144   4.319  17.532 -1.4539  0.9389  0.1349
  725TIP3    H226371   6.071   4.274  17.407  2.2359 -1.5404 -1.3110
  726TIP3   OH226372   0.186   6.433  17.582 -0.0823  0.3946 -0.2186
  726TIP3    H126373   0.138   6.421  17.664 -0.2048 -2.6285 -0.6225
  726TIP3    H226374   0.278   6.421  17.606 -0.2208 -1.9389 -0.6779
  727TIP3   OH226375   3.243   3.961  16.455 -0.5130  0.6202 -0.5160
  727TIP3    H126376   3.327   3.989  16.491  0.4239 -0.5410 -1.7240
  727TIP3    H226377   3.206   4.041  16.415 -0.1289  1.1953  0.2609
  728TIP3   OH226378   7.412   4.051  17.526  0.2198  0.1511 -0.5119
  728TIP3    H126379   7.331   4.041  17.477 -0.3966 -0.5309  0.5936
  728TIP3    H226380   7.410   4.141  17.558 -2.6360 -1.0824  3.6322
  729TIP3   OH226381   1.510   8.175  18.297 -0.2021  0.2829  0.3599
  729TIP3    H126382   1.508   8.143  18.387  0.7124 -0.8569  0.0139
  729TIP3    H226383   1.546   8.264  18.304  0.9357 -0.2032  1.0414
  730TIP3   OH226384   6.851   8.321  17.524  0.3599  0.0371 -0.8361
  730TIP3    H126385   6.860   8.232  17.491  2.0126  0.4030 -1.4895
  730TIP3    H226386   6.797   8.366  17.460 -1.5681 -0.7728  0.1391
  731TIP3   OH226387   2.497   5.512  19.059 -0.2984 -0.1414  0.9745
  731TIP3    H126388   2.435   5.525  19.131 -0.6962 -2.3167  1.0699
  731TIP3    H226389   2.528   5.601  19.039 -2.9730  0.9691  1.3113
  732TIP3   OH226390   1.822   0.228  18.209  0.9632 -0.6742 -0.4380
  732TIP3    H126391   1.839   0.314  18.171 -0.3395 -0.7740 -1.3021
  732TIP3    H226392   1.799   0.246  18.300  1.4470 -0.1860 -0.4101
  733TIP3   OH226393   6.920   5.918  16.695 -0.1730 -1.1636 -0.0046
  733TIP3    H126394   6.872   5.877  16.622 -0.4635 -0.5820 -0.1519
  733TIP3    H226395   6.859   5.984  16.729  0.1937 -1.0206  0.3793
  734TIP3   OH226396   5.563   7.459  17.578  0.2993 -0.0527  0.0122
  734TIP3    H126397   5.596   7.462  17.668  1.5476 -1.2654 -0.3712
  734TIP3    H226398   5.468   7.450  17.588  0.0557  2.8590  1.1432
  735TIP3   OH226399   6.333   0.559  18.134 -0.8091 -0.1686  0.5433
  735TIP3    H126400   6.422   0.555  18.097 -0.8426  2.4816 -0.0283
  735TIP3    H226401   6.284   0.492  18.086  0.4021 -0.3195 -0.5427
  736TIP3   OH226402   1.657   7.932  18.845 -0.0348  0.1455 -0.0576
  736TIP3    H126403   1.704   7.866  18.897  0.0962 -2.3764 -3.0594
  736TIP3    H226404   1.725   7.989  18.811  0.0506  0.7718  1.1237
  737TIP3   OH226405   0.444   7.947  18.671  0.3356  0.1974  0.0415
  737TIP3    H126406   0.444   7.851  18.673 -1.7044  0.1612  0.7268
  737TIP3    H226407   0.493   7.969  18.592 -0.5929 -1.4809 -1.0632
  738TIP3   OH226408   7.212   3.785  17.382  0.3603  0.0003  0.4109
  738TIP3    H126409   7.211   3.868  17.334  0.6828 -1.8997 -3.3084
  738TIP3    H226410   7.120   3.761  17.389  0.2424  0.7600  1.8092
  739TIP3   OH226411   1.080   5.886  17.974 -0.5624 -0.0127  0.0969
  739TIP3    H126412   1.043   5.858  17.890 -0.5054 -0.8345  0.3354
  739TIP3    H226413   1.136   5.961  17.952 -1.8585  0.8509 -0.3545
  740TIP3   OH226414   6.671   2.096  17.893 -0.4220 -0.0648  0.3167
  740TIP3    H126415   6.666   2.021  17.952  0.0203 -0.6014 -0.3146
  740TIP3    H226416   6.754   2.085  17.847 -0.5205  0.6198 -0.0412
  741TIP3   OH226417   2.837   6.974  17.796 -0.2083  0.2430 -0.2638
  741TIP3    H126418   2.780   7.004  17.866  0.2417 -0.4373  0.4087
  741TIP3    H226419   2.841   6.879  17.807  0.3720  0.1910 -0.8249
  742TIP3   OH226420   7.520   4.628  17.035  0.1601  0.4181 -0.2363
  742TIP3    H126421   7.542   4.542  17.000 -1.5642  0.7320 -2.3144
  742TIP3    H226422   7.516   4.615  17.130  0.3756 -1.6786 -0.4630
  743TIP3   OH226423   1.374   6.871  18.328 -0.1824 -0.2646  0.1777
  743TIP3    H126424   1.297   6.815  18.319 -1.0266  0.6161  1.4555
  743TIP3    H226425   1.348   6.954  18.288  0.2925 -0.1219  0.1604
  744TIP3   OH226426   3.465   2.648  17.081 -0.2471  0.1413 -0.1709
  744TIP3    H126427   3.522   2.599  17.140 -1.2260 -0.1847  0.5343
  744TIP3    H226428   3.479   2.740  17.105  0.7993  0.1565 -0.7712
  745TIP3   OH226429   5.203   3.174  17.110  0.0414  0.1205  0.4021
  745TIP3    H126430   5.284   3.174  17.060 -0.2437 -3.5279 -0.3558
  745TIP3    H226431   5.135   3.191  17.045 -0.0562 -0.8728  0.2305
  746TIP3   OH226432   6.387   4.438  17.618  0.4515 -0.0244  0.6828
  746TIP3    H126433   6.297   4.459  17.591  0.3812  0.0101  0.9417
  746TIP3    H226434   6.411   4.509  17.678  0.7240  0.0749  0.4607
  747TIP3   OH226435   7.831   4.021  19.151  0.3353 -0.4496 -0.1715
  747TIP3    H126436   7.914   4.042  19.194  0.2331  0.5538 -0.4326
  747TIP3    H226437   7.764   4.057  19.209  0.1190 -0.5089 -0.3821
  748TIP3   OH226438   4.025   5.917  17.488  0.5608 -0.1306 -0.4046
  748TIP3    H126439   4.053   5.827  17.470  0.5662 -0.4208  0.9430
  748TIP3    H226440   3.929   5.913  17.488  0.5528 -0.0188 -0.8521
  749TIP3   OH226441   5.961   7.997  16.812 -0.2399  0.1449  0.2154
  749TIP3    H126442   6.051   7.962  16.812 -0.8278 -1.4474  0.1458
  749TIP3    H226443   5.924   7.967  16.895 -1.1459 -0.4227 -0.3785
  750TIP3   OH226444   1.193   7.843  18.199  0.1845 -0.0161 -0.2796
  750TIP3    H126445   1.234   7.765  18.237  0.7547  0.2164 -0.4143
  750TIP3    H226446   1.110   7.851  18.245  1.3873  1.0069  1.8552
  751TIP3   OH226447   6.228   3.379  17.178  0.3057  0.7635  0.8192
  751TIP3    H126448   6.176   3.394  17.257 -0.5771 -0.5290  0.5003
  751TIP3    H226449   6.238   3.284  17.173  0.9955  0.8768 -0.2274
  752TIP3   OH226450   6.599   4.538  18.997 -0.4095  0.3798  0.1913
  752TIP3    H126451   6.636   4.535  19.085 -3.3035 -1.0359  1.5150
  752TIP3    H226452   6.632   4.458  18.955 -1.2770 -0.4957  1.0971
  753TIP3   OH226453   5.442   3.557  18.009 -0.1633 -0.2834 -0.6532
  753TIP3    H126454   5.485   3.540  17.925  1.1118 -1.4512  0.1986
  753TIP3    H226455   5.486   3.499  18.071 -1.1179  0.5091  0.8248
  754TIP3   OH226456   5.243   5.849  19.093 -0.3127 -0.3297  0.6213
  754TIP3    H126457   5.185   5.776  19.071 -1.3262  0.8220 -0.6936
  754TIP3    H226458   5.264   5.836  19.186 -1.7160 -1.4484  0.8072
  755TIP3   OH226459   8.233   7.210  16.964  0.5758  0.6177  0.0939
  755TIP3    H126460   8.251   7.117  16.972 -0.7299  0.4411  1.4193
  755TIP3    H226461   8.247   7.230  16.871  0.6665 -0.9282 -0.2431
  756TIP3   OH226462   2.008   5.963  17.686 -0.3213  0.1636  0.2963
  756TIP3    H126463   2.093   6.007  17.694  1.9544 -3.7575  0.5172
  756TIP3    H226464   1.972   5.996  17.603  0.2863  3.4769  1.1940
  757TIP3   OH226465   2.728   7.435  17.218 -0.1402  0.4073  0.2209
  757TIP3    H126466   2.693   7.512  17.263  0.6947  0.4534  0.8208
  757TIP3    H226467   2.781   7.391  17.284 -1.8605 -1.5751  0.3552
  758TIP3   OH226468   6.988   7.034  17.414 -0.1788  0.2442  0.2031
  758TIP3    H126469   6.924   7.048  17.484 -1.0301 -0.1013 -0.4760
  758TIP3    H226470   7.042   7.112  17.414 -1.3646  1.0924  0.0319
  759TIP3   OH226471   8.113   5.308  17.748  0.4443 -0.4378  0.7924
  759TIP3    H126472   8.043   5.359  17.790  1.0556 -0.3731  1.7718
  759TIP3    H226473   8.088   5.217  17.763  0.5744 -0.4147  1.1589
  760TIP3   OH226474   4.390   5.759  17.450 -0.1957  0.1884  0.2122
  760TIP3    H126475   4.372   5.713  17.532 -0.0339  1.3059  0.8976
  760TIP3    H226476   4.326   5.724  17.388 -1.2192  0.3018  1.1780
  761TIP3   OH226477   6.207   3.909  18.125 -0.2868  0.8567  0.0409
  761TIP3    H126478   6.204   3.863  18.042 -1.4074 -1.2215  1.1588
  761TIP3    H226479   6.151   3.986  18.112 -0.6603  0.4164 -1.0427
  762TIP3   OH226480   0.329   3.168  19.361  0.4265 -0.1069 -0.4148
  762TIP3    H126481   0.329   3.231  19.290 -1.4978  0.4112 -0.0165
  762TIP3    H226482   0.245   3.123  19.353  0.6946 -0.8798  0.8023
  763TIP3   OH226483   7.087   8.157  18.718  0.3486 -0.0908  0.0340
  763TIP3    H126484   7.044   8.139  18.635  0.7250  0.6477 -0.3338
  763TIP3    H226485   7.049   8.239  18.748  0.7611  0.0388  0.2143
  764TIP3   OH226486   5.851   5.940  17.688 -0.3768  0.2096 -0.0923
  764TIP3    H126487   5.783   6.000  17.717 -0.7056  1.1167 -2.5225
  764TIP3    H226488   5.818   5.853  17.711 -2.0887  0.6771 -0.6650
  765TIP3   OH226489   0.508   5.580  18.790  0.3542  0.5946  0.2199
  765TIP3    H126490   0.590   5.562  18.743  0.0944 -1.0531  0.3220
  765TIP3    H226491   0.532   5.646  18.855  1.7270 -0.1362  0.5116
  766TIP3   OH226492   8.007   3.074  16.903  0.3705  0.4383  0.2579
  766TIP3    H126493   7.965   3.003  16.855 -0.1986  0.1950  1.0831
  766TIP3    H226494   8.013   3.146  16.840  1.4643 -0.4984 -0.7574
  767TIP3   OH226495   1.249   0.468  18.745 -0.1438  0.0718 -0.0234
  767TIP3    H126496   1.221   0.401  18.683  1.4567 -0.1003 -0.6047
  767TIP3    H226497   1.271   0.544  18.691  1.0128  0.0102  0.3310
  768TIP3   OH226498   7.588   6.048  17.786 -0.2417  0.4140  0.7193
  768TIP3    H126499   7.589   6.057  17.881 -1.4116  0.0908  0.7712
  768TIP3    H226500   7.623   6.131  17.754 -0.2343  0.6900  1.4172
  769TIP3   OH226501   7.948   8.006  17.042  0.5167 -0.3188  0.2876
  769TIP3    H126502   8.025   7.975  17.089  1.6016 -0.1649 -1.2941
  769TIP3    H226503   7.897   7.928  17.026  1.1764 -0.6824 -0.0819
  770TIP3   OH226504   1.760   0.273  18.486 -0.8694  0.0842  0.1239
  770TIP3    H126505   1.808   0.340  18.534 -0.6744 -0.6152  0.9233
  770TIP3    H226506   1.669   0.283  18.515 -0.8899  0.2090  0.0125
  771TIP3   OH226507   5.447   6.301  16.525 -0.1100  0.0897  0.3621
  771TIP3    H126508   5.391   6.224  16.519 -0.3218  0.1876  1.0534
  771TIP3    H226509   5.499   6.299  16.444 -0.7121 -0.3045 -0.0200
  772TIP3   OH226510   0.384   6.228  19.012 -0.5827 -0.1074  0.5683
  772TIP3    H126511   0.367   6.160  18.946 -2.0454 -0.3019  1.1168
  772TIP3    H226512   0.302   6.276  19.018  0.7216  2.4897 -0.6236
  773TIP3   OH226513   7.758   2.362  17.184 -0.0620  0.1257 -0.3407
  773TIP3    H126514   7.713   2.442  17.156  1.0820  0.7908 -0.3072
  773TIP3    H226515   7.741   2.356  17.278  0.8780  1.0104 -0.1041
  774TIP3   OH226516   6.179   7.312  16.852  0.1883  0.0354 -0.0981
  774TIP3    H126517   6.238   7.278  16.784 -0.0640  0.1086 -0.3579
  774TIP3    H226518   6.112   7.245  16.861 -1.1334  1.0740 -1.6583
  775TIP3   OH226519   7.258   5.663  18.177 -0.2606 -0.4111  0.4038
  775TIP3    H126520   7.238   5.606  18.251  0.5584  0.4409  1.3259
  775TIP3    H226521   7.178   5.664  18.124 -1.1917 -0.3374  1.7646
  776TIP3   OH226522   2.499   7.865  17.240 -0.3279  0.6135 -0.1466
  776TIP3    H126523   2.482   7.949  17.198 -0.8870  0.5027 -0.1449
  776TIP3    H226524   2.474   7.878  17.331 -3.0751 -0.3284 -0.6734
  777TIP3   OH226525   6.478   7.706  17.690 -0.1737 -0.3853  0.4229
  777TIP3    H126526   6.420   7.766  17.736 -0.2011 -1.0015  1.2048
  777TIP3    H226527   6.430   7.680  17.612  0.2855  1.4863 -0.5491
  778TIP3   OH226528   8.077   5.908  16.710  0.1910  0.0070 -0.0776
  778TIP3    H126529   8.060   5.971  16.640  0.2586 -0.6620 -0.7051
  778TIP3    H226530   7.990   5.888  16.745  0.2812  1.5531  1.1278
  779TIP3   OH226531   4.632   5.207  17.319  0.1916  0.7727 -0.0936
  779TIP3    H126532   4.628   5.192  17.414  2.8965 -0.5099 -0.0805
  779TIP3    H226533   4.557   5.159  17.284 -0.5324  0.7939  1.3519
  780TIP3   OH226534   8.148   1.051  18.465 -0.1649  0.3937 -0.5403
  780TIP3    H126535   8.184   0.974  18.421  1.1850  0.7547 -0.1054
  780TIP3    H226536   8.199   1.059  18.545  0.1600  2.0954 -0.8771
  781TIP3   OH226537   6.883   0.051  18.622 -0.0081  0.1454  0.0192
  781TIP3    H126538   6.910   0.104  18.696  0.9372 -0.8918  0.4654
  781TIP3    H226539   6.946  -0.022  18.621  1.0118  0.9310 -2.7320
  782TIP3   OH226540   6.913   1.059  16.552  0.6626  0.0130 -0.3185
  782TIP3    H126541   6.837   1.092  16.600  0.4808 -2.1296  0.9857
  782TIP3    H226542   6.988   1.103  16.592  0.2357  1.4816 -1.0357
  783TIP3   OH226543   4.373   5.802  18.427  0.2448 -0.0014  0.6122
  783TIP3    H126544   4.367   5.724  18.372  0.9043 -0.1927  0.7991
  783TIP3    H226545   4.323   5.868  18.380  1.3078  0.0177 -0.5484
  784TIP3   OH226546   5.654   3.164  16.614 -0.1280  0.7312 -0.0262
  784TIP3    H126547   5.701   3.088  16.646 -1.0883  0.5615  1.0759
  784TIP3    H226548   5.678   3.171  16.522 -0.1379 -0.9887 -0.1863
  785TIP3   OH226549   2.287   1.198  17.252  0.4102  0.7116 -0.0565
  785TIP3    H126550   2.250   1.186  17.339  0.3049  1.5776  0.0202
  785TIP3    H226551   2.235   1.267  17.212  0.7703  0.6646 -0.6248
  786TIP3   OH226552   4.044   6.605  17.438 -0.2492  0.4971  0.0757
  786TIP3    H126553   4.057   6.700  17.438 -1.8930  0.7548 -0.4394
  786TIP3    H226554   4.034   6.582  17.531 -1.9316  1.1725  0.0865
  787TIP3   OH226555   4.460   1.875  18.722 -0.1604  0.1090 -0.1719
  787TIP3    H126556   4.512   1.858  18.643 -2.3138  2.1987 -2.2453
  787TIP3    H226557   4.494   1.958  18.755 -1.2822  0.8750 -0.8508
  788TIP3   OH226558   7.875   3.696  19.127  0.2113 -0.0940 -0.3108
  788TIP3    H126559   7.828   3.779  19.136  0.5645  0.0715 -0.0159
  788TIP3    H226560   7.960   3.720  19.090  0.4075 -0.2963  0.0036
  789TIP3   OH226561   6.985   6.092  17.691  0.0307 -0.1818  0.2551
  789TIP3    H126562   6.937   6.153  17.634 -0.1863 -0.6449 -0.0673
  789TIP3    H226563   7.030   6.148  17.754 -0.6595  0.2881  0.3481
  790TIP3   OH226564   3.225   4.940  18.740  0.5309 -0.2339 -0.3818
  790TIP3    H126565   3.175   4.859  18.745  0.2855 -0.0727  4.8734
  790TIP3    H226566   3.163   5.008  18.769  1.5094  1.4309 -2.0047
  791TIP3   OH226567   1.956   0.400  18.649  0.1482  0.1329 -0.2832
  791TIP3    H126568   2.024   0.392  18.582  0.2167  1.0544 -0.3332
  791TIP3    H226569   1.943   0.311  18.681 -0.4849 -0.4604 -2.1046
  792TIP3   OH226570   6.964   5.518  17.395 -0.0367 -0.1771  0.1274
  792TIP3    H126571   7.027   5.464  17.347 -0.5745 -0.7459  0.0542
  792TIP3    H226572   6.950   5.594  17.338 -0.7044 -0.8706 -0.6623
  793TIP3   OH226573   7.316   4.791  19.029  0.4913 -0.2905 -0.2101
  793TIP3    H126574   7.331   4.713  19.082  0.0335 -0.9834 -1.0970
  793TIP3    H226575   7.288   4.759  18.944  0.6474  0.8308 -0.7087
  794TIP3   OH226576   7.697   2.239  17.708  0.2204  0.5505 -0.7033
  794TIP3    H126577   7.787   2.255  17.678  0.6139 -1.3635 -0.6909
  794TIP3    H226578   7.700   2.253  17.802  0.1340  1.9099 -0.8859
  795TIP3   OH226579   1.083   0.785  16.791  0.0247  0.0528  0.4359
  795TIP3    H126580   1.056   0.716  16.851 -0.6121  0.3862  0.5417
  795TIP3    H226581   1.031   0.770  16.712 -0.9035  1.0080  0.8307
  796TIP3   OH226582   1.163   6.687  17.651  0.2941 -0.1939  0.2175
  796TIP3    H126583   1.123   6.622  17.709 -0.9047  0.0538 -0.3088
  796TIP3    H226584   1.255   6.659  17.645  0.1308 -1.0166  1.1178
  797TIP3   OH226585   0.085   5.230  16.930 -0.1907 -0.6107 -0.5904
  797TIP3    H126586   0.068   5.324  16.929  0.3438 -0.4730  0.8251
  797TIP3    H226587   0.000   5.190  16.911 -0.5135  0.1377 -0.7683
  798TIP3   OH226588   7.328   2.693  17.711 -0.1406 -0.0372 -0.1075
  798TIP3    H126589   7.242   2.725  17.739  0.5353  0.8980  1.0214
  798TIP3    H226590   7.334   2.606  17.750 -1.0676 -0.6306 -1.2453
  799TIP3   OH226591   7.253   4.188  18.579  0.3296  0.0564  0.2905
  799TIP3    H126592   7.250   4.247  18.504 -1.0511 -1.5842 -1.0190
  799TIP3    H226593   7.291   4.107  18.545  0.2623 -0.5280  1.5225
  800TIP3   OH226594   3.979   4.353  18.251  0.1260 -0.3916  0.4324
  800TIP3    H126595   4.061   4.382  18.291  0.5254 -0.4740 -0.3081
  800TIP3    H226596   3.952   4.426  18.195  0.5003 -0.9555 -0.5061
  801TIP3   OH226597   0.085   6.101  18.983  0.1269 -0.6340 -0.1937
  801TIP3    H126598   0.052   6.069  18.899 -0.4692  0.1293 -0.2573
  801TIP3    H226599   0.068   6.195  18.981  3.1104  0.0159 -0.6155
  802TIP3   OH226600   0.973   6.170  17.362  0.1308 -0.3977  0.3980
  802TIP3    H126601   1.053   6.177  17.310 -1.1464  3.5409 -1.4508
  802TIP3    H226602   0.903   6.156  17.297 -1.1468  1.2292  1.3368
  803TIP3   OH226603   6.626   4.088  17.885 -0.0666 -0.6319  0.5022
  803TIP3    H126604   6.720   4.069  17.887 -0.1615 -1.2808 -0.5353
  803TIP3    H226605   6.614   4.139  17.805 -0.6955 -1.1304  0.2664
  804TIP3   OH226606   4.046   0.832  16.909  0.1742 -0.3555 -0.3919
  804TIP3    H126607   3.971   0.786  16.871  0.2572 -0.2268 -0.7142
  804TIP3    H226608   4.032   0.826  17.003 -1.1228  1.1281 -0.4581
  805TIP3   OH226609   8.217   1.106  18.769 -0.2776  0.1473  0.5140
  805TIP3    H126610   8.239   1.180  18.825 -1.8695 -1.1193  2.9485
  805TIP3    H226611   8.121   1.103  18.768 -0.2732 -0.9303 -0.8637
  806TIP3   OH226612   7.825   2.900  16.822 -0.0583  0.1076 -0.0967
  806TIP3    H126613   7.823   2.809  16.853 -1.8891  0.9774  2.7637
  806TIP3    H226614   7.735   2.919  16.798  0.1140  1.4340  0.2385
  807TIP3   OH226615   4.395   3.554  17.766  0.1957  0.2907  0.1985
  807TIP3    H126616   4.383   3.635  17.717  0.2365 -0.2902 -0.7936
  807TIP3    H226617   4.323   3.555  17.830 -0.1841  0.8077 -0.2196
  808TIP3   OH226618   1.955   5.534  17.734  0.4224  1.3053 -0.2502
  808TIP3    H126619   2.028   5.596  17.743 -0.7330  2.6901 -0.0687
  808TIP3    H226620   1.967   5.495  17.647  1.8061  0.9216  0.0923
  809TIP3   OH226621   5.210   4.929  17.001  0.1257 -0.3836 -0.3614
  809TIP3    H126622   5.196   4.841  16.964  0.1788 -0.5002 -0.1023
  809TIP3    H226623   5.125   4.971  16.994  0.1897 -0.3204 -0.8409
  810TIP3   OH226624   2.548   1.429  18.254 -0.1536  0.0662 -0.6069
  810TIP3    H126625   2.472   1.485  18.271 -0.6929 -1.0028  0.7393
  810TIP3    H226626   2.518   1.341  18.277  2.1118 -0.1305  2.2106
  811TIP3   OH226627   5.478   5.733  17.421 -0.1159  0.2521 -0.6188
  811TIP3    H126628   5.417   5.799  17.389 -1.0212 -1.0836 -1.8081
  811TIP3    H226629   5.524   5.775  17.494 -2.5585  1.2574  0.4377
  812TIP3   OH226630   2.605   8.431  18.376 -0.2770 -0.1133 -0.0475
  812TIP3    H126631   2.551   8.464  18.448  1.1316 -0.5009  1.2351
  812TIP3    H226632   2.590   8.337  18.376  0.8086 -0.3131  0.7281
  813TIP3   OH226633   7.814   7.833  17.377  0.0059  0.7173 -0.0880
  813TIP3    H126634   7.722   7.808  17.370  0.0705  0.4876 -0.1388
  813TIP3    H226635   7.859   7.778  17.313  0.2577  0.4062  0.3469
  814TIP3   OH226636   8.158   6.618  18.081  0.3641 -0.0175  0.5685
  814TIP3    H126637   8.183   6.616  18.173  0.5296  1.1874  0.5678
  814TIP3    H226638   8.085   6.556  18.074  0.0180  0.2645  1.6085
  815TIP3   OH226639   7.125   6.280  16.816 -0.0222 -0.3379  0.7229
  815TIP3    H126640   7.128   6.214  16.746  1.3426 -1.4292  1.7418
  815TIP3    H226641   7.032   6.288  16.838 -0.4897  0.1233 -1.2620
  816TIP3   OH226642   8.424   3.834  17.487 -0.4476  0.0576 -0.3704
  816TIP3    H126643   8.426   3.846  17.392  0.4833  1.0360 -0.2576
  816TIP3    H226644   8.338   3.865  17.513 -0.7360 -0.2776 -0.9063
  817TIP3   OH226645   0.143   5.486  17.579 -0.6463  0.1938  0.0305
  817TIP3    H126646   0.101   5.475  17.664  0.4811  1.3583  0.7804
  817TIP3    H226647   0.188   5.570  17.585  0.0213 -0.0164 -1.4757
  818TIP3   OH226648   4.045   0.651  18.125  0.6501  0.2314  0.3856
  818TIP3    H126649   4.037   0.733  18.174  1.4457 -0.8372  2.4355
  818TIP3    H226650   4.028   0.583  18.190 -0.8936 -1.2475 -1.4622
  819TIP3   OH226651   4.997   4.189  19.173  0.2487 -0.5970 -0.5936
  819TIP3    H126652   5.017   4.281  19.193 -0.9597 -0.9747  2.9761
  819TIP3    H226653   4.940   4.194  19.096 -2.0840  1.9836  1.0948
  820TIP3   OH226654   6.313   1.459  16.301  0.1658 -0.3893  0.4450
  820TIP3    H126655   6.347   1.372  16.323  1.9238  0.5148  1.5172
  820TIP3    H226656   6.346   1.476  16.213 -1.4407 -1.3673 -0.3963
  821TIP3   OH226657   8.120   5.143  18.969 -0.2144  0.9041  0.2154
  821TIP3    H126658   8.091   5.090  18.894 -0.6236 -0.8124  1.5145
  821TIP3    H226659   8.045   5.143  19.028  0.4482  1.3658  1.0631
  822TIP3   OH226660   5.079   3.493  16.882  0.0851  0.4421 -0.4124
  822TIP3    H126661   5.070   3.403  16.914 -1.6189  0.4542 -0.7115
  822TIP3    H226662   5.000   3.506  16.828  0.2096  2.1747 -0.2247
  823TIP3   OH226663   4.358   2.619  16.973  0.2902 -0.4580 -0.0451
  823TIP3    H126664   4.425   2.670  17.019 -0.3539 -0.6813  1.1837
  823TIP3    H226665   4.343   2.666  16.891 -0.2429  1.3152  1.0316
  824TIP3   OH226666   6.278   2.325  18.579  0.0821  0.5451 -0.0762
  824TIP3    H126667   6.346   2.270  18.619  0.2007  0.2390 -0.6928
  824TIP3    H226668   6.323   2.370  18.508 -0.0811  1.2477  0.2522
  825TIP3   OH226669   5.132   0.522  18.099  0.0191 -0.5872 -0.2309
  825TIP3    H126670   5.127   0.433  18.134 -0.9562 -0.1147  0.9105
  825TIP3    H226671   5.137   0.578  18.176 -1.6879  0.4709 -0.8362
  826TIP3   OH226672   2.532   4.095  18.641 -0.4751  0.6414  0.0937
  826TIP3    H126673   2.507   4.033  18.573  0.7875  0.1556  0.0463
  826TIP3    H226674   2.492   4.061  18.721  0.0642 -0.1628  0.0380
  827TIP3   OH226675   6.682   6.886  18.214 -0.1791 -0.6322  0.5363
  827TIP3    H126676   6.642   6.879  18.127 -1.1176  0.0296  0.8998
  827TIP3    H226677   6.622   6.838  18.272 -0.0048 -0.3497  0.9518
  828TIP3   OH226678   2.606   4.574  18.759  0.2461  0.2258 -0.3327
  828TIP3    H126679   2.571   4.654  18.720  0.0713  0.2385 -0.1544
  828TIP3    H226680   2.531   4.514  18.762  0.3759  0.0547 -0.4645
  829TIP3   OH226681   6.361   1.193  16.447 -0.0833 -0.6942  0.4729
  829TIP3    H126682   6.450   1.180  16.480 -0.5355 -0.2912  1.9299
  829TIP3    H226683   6.322   1.106  16.447 -0.0202 -0.7270  0.8844
  830TIP3   OH226684   3.854   0.379  17.708 -0.3211 -0.2040  0.4947
  830TIP3    H126685   3.787   0.442  17.736  0.2461  1.9074 -2.4295
  830TIP3    H226686   3.928   0.433  17.682  1.2579 -2.2969  0.4179
  831TIP3   OH226687   7.729   3.725  17.708 -0.1140 -0.3166  1.0071
  831TIP3    H126688   7.651   3.774  17.733 -0.2125 -0.6973  1.4542
  831TIP3    H226689   7.698   3.636  17.694 -0.3289  0.0930 -1.7625
  832TIP3   OH226690   8.218   4.763  16.658  0.3801 -0.0829 -0.2194
  832TIP3    H126691   8.157   4.829  16.687  0.7798  0.2698 -0.1734
  832TIP3    H226692   8.291   4.768  16.720  0.5454 -0.3641 -0.3864
  833TIP3   OH226693   3.777   4.107  17.100  0.1003  0.4437  0.2708
  833TIP3    H126694   3.754   4.168  17.030 -0.5621 -0.4446 -0.3038
  833TIP3    H226695   3.734   4.025  17.076 -2.2908  0.7549  2.9560
  834TIP3   OH226696   6.986   1.426  16.808 -0.0619  0.0902  0.3546
  834TIP3    H126697   6.909   1.411  16.863  0.8492 -0.6572  1.4763
  834TIP3    H226698   7.058   1.438  16.870  0.4386  2.7775 -0.5888
  835TIP3   OH226699   5.260   3.918  18.289 -0.0565 -0.2326 -0.6811
  835TIP3    H126700   5.198   3.876  18.228 -1.1616  1.8944 -1.1390
  835TIP3    H226701   5.248   4.012  18.273  0.2740  0.3824  2.1926
  836TIP3   OH226702   6.790   8.292  17.047 -0.1767  0.5718  0.7090
  836TIP3    H126703   6.880   8.290  17.013 -0.0924  0.5067  0.9317
  836TIP3    H226704   6.742   8.346  16.984  0.1589  1.1450  0.9361
  837TIP3   OH226705   1.549   2.890  18.079  0.2936  0.5250 -0.3126
  837TIP3    H126706   1.609   2.956  18.114 -0.9182  1.8002 -0.5387
  837TIP3    H226707   1.579   2.875  17.989  2.0572 -1.1061  0.4854
  838TIP3   OH226708   5.305   6.186  18.159  0.1420  0.0802  0.1715
  838TIP3    H126709   5.311   6.270  18.114 -1.5030  0.9091  1.3915
  838TIP3    H226710   5.354   6.198  18.240  2.8391 -1.3101 -1.1369
  839TIP3   OH226711   5.171   4.430  18.663  0.1227 -0.1630  0.0997
  839TIP3    H126712   5.184   4.427  18.569 -1.1584  0.8378 -0.1364
  839TIP3    H226713   5.258   4.447  18.699  0.3941  0.8840 -0.9971
  840TIP3   OH226714   7.358   7.557  17.201 -0.3247 -0.2607  0.1558
  840TIP3    H126715   7.303   7.601  17.137 -0.5595  0.2477  0.6928
  840TIP3    H226716   7.320   7.470  17.210  0.0900 -0.5566 -0.8537
  841TIP3   OH226717   0.440   4.997  18.456 -0.4215  0.1428  0.8330
  841TIP3    H126718   0.433   4.977  18.549 -1.5459  1.8500  1.1637
  841TIP3    H226719   0.423   5.091  18.450  0.8588  0.3210 -0.9750
  842TIP3   OH226720   2.372   0.434  18.697 -0.1734  0.1948  0.5169
  842TIP3    H126721   2.360   0.517  18.652  0.0538 -0.0562 -0.0109
  842TIP3    H226722   2.371   0.457  18.790 -5.0089  0.2308  0.7163
  843TIP3   OH226723   7.532   2.933  18.877  0.2227 -0.3174  0.2334
  843TIP3    H126724   7.543   2.989  18.953 -0.2744  0.9120 -0.5813
  843TIP3    H226725   7.572   2.981  18.805 -1.5029 -0.3230 -0.7733
  844TIP3   OH226726   0.979   5.612  18.046  0.3129 -0.1274 -0.3345
  844TIP3    H126727   0.922   5.613  18.123  0.9834  0.0104  0.1743
  844TIP3    H226728   0.979   5.702  18.015 -0.3004 -0.2723 -0.7539
  845TIP3   OH226729   2.678   0.456  17.276  0.1911 -0.1815  0.1275
  845TIP3    H126730   2.665   0.551  17.283  0.5761 -0.1386  0.2624
  845TIP3    H226731   2.631   0.432  17.196 -0.8155 -0.0474  0.6628
  846TIP3   OH226732   4.174   6.740  17.946  0.1008 -0.0238 -0.5020
  846TIP3    H126733   4.115   6.666  17.962  2.5581 -1.6988  1.8684
  846TIP3    H226734   4.215   6.756  18.031  1.5019  2.4293 -1.5503
  847TIP3   OH226735   2.828   1.124  17.197 -0.1898 -0.0604 -0.2480
  847TIP3    H126736   2.752   1.142  17.253 -0.2292  0.1246 -0.3604
  847TIP3    H226737   2.798   1.146  17.109  0.2264  0.7161 -0.1998
  848TIP3   OH226738   4.229   2.919  17.273 -0.0314  0.7318 -0.2035
  848TIP3    H126739   4.289   2.973  17.222  0.2024  0.1466 -0.5546
  848TIP3    H226740   4.274   2.835  17.282  0.1709  0.9649  1.3968
  849TIP3   OH226741   6.092   5.162  16.791  0.3050 -0.4852 -0.5836
  849TIP3    H126742   6.151   5.091  16.816  0.2302 -0.0476  0.9273
  849TIP3    H226743   6.012   5.144  16.840  0.0553  0.2885 -0.7007
  850TIP3   OH226744   5.138   1.513  16.437 -0.0256 -0.2088 -1.0734
  850TIP3    H126745   5.084   1.559  16.501  0.3651 -1.9756  0.6367
  850TIP3    H226746   5.206   1.577  16.413  0.5661  0.1574  1.2789
  851TIP3   OH226747   8.395   6.124  18.365 -0.2468 -0.3288  0.3632
  851TIP3    H126748   8.440   6.169  18.437 -0.5675 -0.2227  0.4957
  851TIP3    H226749   8.348   6.193  18.319 -0.3558 -0.4565  0.2824
  852TIP3   OH226750   6.836   6.057  17.984  0.3285  0.2188 -0.4857
  852TIP3    H126751   6.840   6.127  17.919  1.6995  0.5498 -0.0834
  852TIP3    H226752   6.854   6.100  18.068 -0.1940 -0.4007 -0.0424
  853TIP3   OH226753   4.071   8.295  17.631  0.0339  0.1238 -0.5221
  853TIP3    H126754   4.056   8.235  17.704  2.6742  0.1792  0.1694
  853TIP3    H226755   4.092   8.238  17.557  0.8127  0.1396 -0.3188
  854TIP3   OH226756   7.320   5.411  17.203  0.0105 -0.1306 -0.3538
  854TIP3    H126757   7.357   5.329  17.170  1.2930  0.3420 -0.1779
  854TIP3    H226758   7.233   5.387  17.234  0.3193 -1.4155 -0.3893
  855TIP3   OH226759   8.221   4.348  17.293  0.8408 -0.5710  0.4250
  855TIP3    H126760   8.182   4.420  17.342  2.1194  0.1767  0.3784
  855TIP3    H226761   8.163   4.335  17.219  2.0333  2.3384 -1.1577
  856TIP3   OH226762   4.430   0.783  17.141 -0.0279 -0.2373  0.2229
  856TIP3    H126763   4.431   0.846  17.213  1.2041 -0.5487  0.4990
  856TIP3    H226764   4.368   0.715  17.169 -0.0491 -0.0298  0.6867
  857TIP3   OH226765   2.407   7.811  18.395 -0.3999  0.0091 -0.4494
  857TIP3    H126766   2.422   7.718  18.413 -0.4743 -0.0913 -0.8919
  857TIP3    H226767   2.337   7.812  18.330 -0.4086  0.3773 -0.4372
  858TIP3   OH226768   7.841   5.405  17.315 -1.0941 -0.1003 -0.2254
  858TIP3    H126769   7.756   5.424  17.275 -1.1679  1.2043  0.5059
  858TIP3    H226770   7.902   5.465  17.271 -1.1103  1.0959  1.3062
  859TIP3   OH226771   6.676   3.208  17.843 -0.3220 -0.5161 -0.0200
  859TIP3    H126772   6.641   3.265  17.911  0.5309  0.8027 -0.6583
  859TIP3    H226773   6.765   3.188  17.872 -0.5604 -1.4423  0.1253
  860TIP3   OH226774   1.971   2.766  17.635 -0.0244 -0.0210  0.3203
  860TIP3    H126775   1.876   2.770  17.644 -0.2828  0.5848 -1.9263
  860TIP3    H226776   1.985   2.735  17.545  1.8967  0.2478  0.4832
  861TIP3   OH226777   6.181   0.093  18.676  0.2901  0.2829 -0.3022
  861TIP3    H126778   6.217   0.160  18.618 -0.5526 -0.3980 -1.6531
  861TIP3    H226779   6.245   0.021  18.673  0.6323  0.5565  0.2502
  862TIP3   OH226780   7.636   3.957  18.090  0.0356  0.1193 -0.0458
  862TIP3    H126781   7.662   4.044  18.120 -0.7960  0.3327  0.0882
  862TIP3    H226782   7.623   3.966  17.996  0.1862  0.0714 -0.0730
  863TIP3   OH226783   8.069   6.461  16.662  0.0014  0.4914 -0.4790
  863TIP3    H126784   8.066   6.554  16.682  0.3001  0.3104  0.4593
  863TIP3    H226785   8.138   6.426  16.718  0.6368 -0.1194 -1.5986
  864TIP3   OH226786   1.860   0.363  17.554 -0.2512 -0.4384 -0.2752
  864TIP3    H126787   1.880   0.443  17.505 -0.6856  0.5802  1.1469
  864TIP3    H226788   1.765   0.366  17.567 -0.4809 -1.9080 -1.3625
  865TIP3   OH226789   7.943   5.063  18.087 -0.3196 -0.2404 -0.2868
  865TIP3    H126790   8.025   5.097  18.050 -0.8756  0.5031 -0.8547
  865TIP3    H226791   7.876   5.084  18.021 -1.6924  2.7865  1.8308
  866TIP3   OH226792   8.417   3.027  18.766  0.5200  0.6066 -0.9419
  866TIP3    H126793   8.326   3.022  18.738  0.2421  0.2407 -0.0108
  866TIP3    H226794   8.412   3.055  18.858  1.1919 -2.1476  0.0268
  867TIP3   OH226795   0.284   4.872  19.005  0.4723  0.3440  0.0973
  867TIP3    H126796   0.217   4.927  18.966 -0.4833 -1.5225 -1.0027
  867TIP3    H226797   0.264   4.873  19.099 -0.9373  0.0078 -0.1878
  868TIP3   OH226798   1.693   7.263  18.483  0.1647 -0.4083 -0.4790
  868TIP3    H126799   1.779   7.237  18.517  0.9076  2.1927 -0.1652
  868TIP3    H226800   1.710   7.294  18.394 -0.3558  0.4531 -0.2923
  869TIP3   OH226801   0.949   1.266  17.375 -0.0134  0.5210  0.7151
  869TIP3    H126802   0.919   1.356  17.388  0.0275  0.8442 -1.1136
  869TIP3    H226803   1.043   1.270  17.390 -0.2249  0.4154  2.2195
  870TIP3   OH226804   1.014   8.432  17.843  0.3293  0.2832  0.4260
  870TIP3    H126805   1.069   8.365  17.883  0.2576 -0.2695 -0.3791
  870TIP3    H226806   1.003   8.403  17.752  0.3600  1.4181  0.0397
  871TIP3   OH226807   4.463   2.792  18.524  0.1046  0.7072  0.1531
  871TIP3    H126808   4.475   2.880  18.488 -0.6330  0.7627  0.0181
  871TIP3    H226809   4.372   2.792  18.555 -0.6253 -0.6793 -1.7810
  872TIP3   OH226810   8.410   4.344  18.348 -0.4560  0.5439 -0.1266
  872TIP3    H126811   8.317   4.340  18.370 -0.3735  0.6649  0.2415
  872TIP3    H226812   8.412   4.332  18.253 -0.9309  1.5835 -0.2838
  873TIP3   OH226813   8.395   7.562  18.420  0.0303 -0.0101 -0.3819
  873TIP3    H126814   8.345   7.641  18.401 -1.9268 -0.8880  0.7940
  873TIP3    H226815   8.467   7.592  18.476 -1.3323  0.8096  0.9948
  874TIP3   OH226816   7.006   5.103  18.433 -0.6211 -0.0108 -0.2529
  874TIP3    H126817   6.976   5.180  18.483  0.9448  0.7180 -0.3635
  874TIP3    H226818   7.101   5.114  18.429 -0.3997 -1.8283 -0.5292
  875TIP3   OH226819   2.516   7.862  17.520  0.4978  0.0784  0.4109
  875TIP3    H126820   2.472   7.839  17.602  0.6732 -1.7133  0.0452
  875TIP3    H226821   2.531   7.956  17.526 -1.2092  0.3146  1.5975
  876TIP3   OH226822   3.923   0.239  17.971 -0.2255  0.1524  0.2145
  876TIP3    H126823   3.859   0.219  18.039  1.1948  0.6502  1.7786
  876TIP3    H226824   3.879   0.300  17.912 -1.5775 -0.4917  0.5304
  877TIP3   OH226825   6.299   2.158  17.902  0.1076 -0.4489  0.1234
  877TIP3    H126826   6.261   2.130  17.818 -0.0768  1.8247 -0.6131
  877TIP3    H226827   6.328   2.077  17.943  0.0242 -1.6565 -2.0553
  878TIP3   OH226828   7.493   5.802  17.120 -0.4066 -0.6672  0.0638
  878TIP3    H126829   7.447   5.877  17.156 -0.8607 -0.6360 -0.5585
  878TIP3    H226830   7.431   5.729  17.128  0.1936 -1.0920  1.0762
  879TIP3   OH226831   7.871   3.420  19.081  1.2195  0.3062 -0.2251
  879TIP3    H126832   7.791   3.401  19.032  1.2229  0.3757 -0.2585
  879TIP3    H226833   7.872   3.515  19.089  2.2876  0.4911 -1.9068
  880TIP3   OH226834   2.313   2.633  18.002  0.1321 -0.2671 -0.1649
  880TIP3    H126835   2.321   2.612  17.909 -0.4073 -2.0003  0.1512
  880TIP3    H226836   2.220   2.620  18.021  0.7697 -3.7436  1.3944
  881TIP3   OH226837   6.751   5.118  19.045 -0.0755 -0.8350  0.4547
  881TIP3    H126838   6.758   5.032  19.003 -1.2664  0.2360 -2.1813
  881TIP3    H226839   6.785   5.179  18.980  0.0395  0.7709  1.9544
  882TIP3   OH226840   2.731   5.650  18.498 -0.2893  0.4438 -0.5155
  882TIP3    H126841   2.773   5.688  18.575  1.3220  1.1605 -1.6886
  882TIP3    H226842   2.714   5.725  18.440 -1.2841 -0.1036 -0.9691
  883TIP3   OH226843   2.770   4.282  18.060 -0.0801  0.0560  0.0334
  883TIP3    H126844   2.805   4.259  18.146  0.9095 -1.1294 -0.6432
  883TIP3    H226845   2.840   4.331  18.017  0.3111 -1.2105 -0.8521
  884TIP3   OH226846   0.687   4.527  17.574  0.4027  0.5081 -0.1381
  884TIP3    H126847   0.749   4.527  17.648 -0.4799 -3.3682  0.8196
  884TIP3    H226848   0.605   4.557  17.612  0.6426  1.3947 -0.3096
  885TIP3   OH226849   4.813   3.400  18.419 -0.1718  0.2594 -0.5276
  885TIP3    H126850   4.803   3.485  18.463 -1.4050  0.3574 -0.9677
  885TIP3    H226851   4.737   3.394  18.361  0.1035 -0.9856 -0.7782
  886TIP3   OH226852   4.148   1.991  16.734 -0.0542  0.1071 -1.5433
  886TIP3    H126853   4.072   1.966  16.681 -2.4540 -1.0417  2.0954
  886TIP3    H226854   4.163   1.917  16.792  0.8702  2.1369  1.0052
  887TIP3   OH226855   2.845   1.202  18.470  0.3544 -0.4075 -0.0260
  887TIP3    H126856   2.841   1.142  18.544 -0.6444 -0.7614 -0.3425
  887TIP3    H226857   2.765   1.254  18.478  0.8043  0.3227 -0.2206
  888TIP3   OH226858   0.251   1.376  18.642 -0.1881 -0.1899  0.2544
  888TIP3    H126859   0.156   1.386  18.638 -0.5091 -2.6115 -0.3151
  888TIP3    H226860   0.282   1.450  18.694 -2.4796  0.1985  1.1754
  889TIP3   OH226861   4.367   0.215  17.901 -0.0437 -0.6332  0.1239
  889TIP3    H126862   4.297   0.259  17.950  0.2089  0.8108 -0.7709
  889TIP3    H226863   4.418   0.171  17.969  0.9022  2.1481  1.3651
  890TIP3   OH226864   1.224   2.996  18.066  0.2682  0.0537 -0.8350
  890TIP3    H126865   1.268   2.913  18.083 -3.7225 -2.1335 -0.1004
  890TIP3    H226866   1.207   3.033  18.153 -2.5622 -1.1235 -0.7884
  891TIP3   OH226867   6.370   3.462  17.430  0.3031 -0.6458  0.4888
  891TIP3    H126868   6.339   3.420  17.350 -1.0991  0.3315  0.4967
  891TIP3    H226869   6.364   3.394  17.497  1.5069 -1.4761 -0.2146
  892TIP3   OH226870   2.342   3.626  17.731 -0.1506  0.1952 -0.4076
  892TIP3    H126871   2.347   3.577  17.813 -0.0093 -0.2814 -0.6944
  892TIP3    H226872   2.272   3.583  17.681 -0.7209  0.9327 -0.2475
  893TIP3   OH226873   8.213   5.096  18.279 -0.2089 -0.4884 -0.3241
  893TIP3    H126874   8.187   5.145  18.201 -1.1859 -0.5239 -0.0296
  893TIP3    H226875   8.249   5.162  18.338 -0.8850 -0.2243 -0.2021
  894TIP3   OH226876   6.188   8.134  17.122 -0.5636  0.0576  0.0110
  894TIP3    H126877   6.146   8.186  17.054 -0.2579 -0.0781 -0.2853
  894TIP3    H226878   6.267   8.099  17.080 -1.1608 -1.2799 -0.0523
  895TIP3   OH226879   7.385   7.895  17.595 -0.7374  0.3463 -0.3956
  895TIP3    H126880   7.465   7.855  17.629 -3.0764 -1.9820  3.0585
  895TIP3    H226881   7.370   7.853  17.511  0.6771 -0.6138 -0.1926
  896TIP3   OH226882   4.050   1.619  17.052 -0.0019 -0.1707 -0.4592
  896TIP3    H126883   4.069   1.528  17.030 -0.8888 -0.0741 -1.7428
  896TIP3    H226884   3.981   1.614  17.118  0.1981 -0.4232 -0.2670
  897TIP3   OH226885   7.109   0.801  17.058 -0.0317  0.2021 -0.9397
  897TIP3    H126886   7.088   0.853  17.135 -0.1454 -0.6447 -0.3809
  897TIP3    H226887   7.087   0.857  16.984 -1.5355  0.4256 -0.3668
  898TIP3   OH226888   6.567   4.971  19.204 -0.5230  0.3679 -0.1778
  898TIP3    H126889   6.478   4.995  19.180 -0.4857 -0.0189 -0.7341
  898TIP3    H226890   6.619   5.049  19.187 -0.6088  0.3039 -0.7625
  899TIP3   OH226891   0.196   0.297  16.888  0.0031 -0.5945  0.4304
  899TIP3    H126892   0.165   0.303  16.798  4.1341 -1.3341 -1.2699
  899TIP3    H226893   0.143   0.361  16.936 -1.3392  0.9869 -2.8369
  900TIP3   OH226894   7.721   4.439  17.909 -0.0738  0.1520 -0.3320
  900TIP3    H126895   7.670   4.487  17.844  0.2888  0.6465 -0.2563
  900TIP3    H226896   7.747   4.505  17.973 -1.3112 -0.5084  0.8888
  901TIP3   OH226897   2.886   1.275  17.544  0.6920  0.1407 -0.1532
  901TIP3    H126898   2.958   1.215  17.562 -0.1384 -1.2083 -1.1983
  901TIP3    H226899   2.896   1.298  17.452  0.0768  0.3652 -0.1673
  902TIP3   OH226900   0.088   6.369  16.926  0.4297  0.4516 -0.3308
  902TIP3    H126901   0.167   6.379  16.873 -0.8014  0.9014 -2.1859
  902TIP3    H226902   0.115   6.318  17.002  2.4637  0.5178 -0.9716
  903TIP3   OH226903   7.510   8.191  17.856  0.2206 -0.2770 -0.4395
  903TIP3    H126904   7.520   8.285  17.864 -1.5910 -0.2090  2.0632
  903TIP3    H226905   7.600   8.157  17.859  0.9555  1.3373 -2.1733
  904TIP3   OH226906   0.346   6.929  17.695 -0.3907 -0.1196 -0.4111
  904TIP3    H126907   0.396   6.848  17.692  0.4944  0.4268 -0.7779
  904TIP3    H226908   0.401   6.991  17.742 -1.4499  0.0275  0.6804
  905TIP3   OH226909   0.282   5.398  17.095  0.3254  0.3065  0.4494
  905TIP3    H126910   0.234   5.408  17.177  0.5155  0.2710  0.5649
  905TIP3    H226911   0.215   5.405  17.027  0.3918  2.1251  0.5280
  906TIP3   OH226912   5.409   1.316  18.203 -0.2597 -0.1373 -0.1529
  906TIP3    H126913   5.337   1.263  18.238 -0.8764  0.8410  0.0937
  906TIP3    H226914   5.440   1.366  18.278 -0.8356  1.1310 -0.7278
  907TIP3   OH226915   0.662   8.057  18.130 -0.7042 -0.2903 -0.4720
  907TIP3    H126916   0.656   7.965  18.157 -0.5540  0.0012  0.6244
  907TIP3    H226917   0.703   8.055  18.044 -0.1116 -1.2194 -0.1814
  908TIP3   OH226918   2.750   3.333  18.229 -0.5814  0.2016 -0.0287
  908TIP3    H126919   2.686   3.272  18.191 -1.7198  0.6461  1.1073
  908TIP3    H226920   2.811   3.277  18.276 -0.5515 -0.1739 -0.5003
  909TIP3   OH226921   4.447   0.103  17.038 -0.6379  0.2967 -0.0102
  909TIP3    H126922   4.480   0.184  17.078  0.1461  0.3024 -0.6581
  909TIP3    H226923   4.518   0.040  17.047 -0.9392 -0.0831 -0.2364
  910TIP3   OH226924   6.928   0.328  17.714 -0.0924 -0.2536  0.3511
  910TIP3    H126925   6.834   0.345  17.705  0.0696  0.2987 -0.4040
  910TIP3    H226926   6.966   0.415  17.730  0.4943 -0.1917 -1.2284
  911TIP3   OH226927   7.225   3.010  17.480 -0.1826 -0.0054  0.3738
  911TIP3    H126928   7.220   3.035  17.388 -1.8068  0.7267  0.6153
  911TIP3    H226929   7.143   2.963  17.497  0.8356 -1.6160  1.0632
  912TIP3   OH226930   6.907   1.775  16.544 -0.0313  0.6099 -0.4256
  912TIP3    H126931   6.881   1.845  16.603  1.2825  0.5576  0.2463
  912TIP3    H226932   6.906   1.815  16.457 -0.0505  1.2371 -0.1381
  913TIP3   OH226933   7.149   6.004  18.806 -0.0416 -0.1207 -0.1369
  913TIP3    H126934   7.116   6.075  18.862 -0.5273 -2.8256  3.3511
  913TIP3    H226935   7.245   6.010  18.814 -0.0727  0.3125 -0.0675
  914TIP3   OH226936   2.651   2.747  18.737 -0.5181 -0.2432  0.3243
  914TIP3    H126937   2.714   2.799  18.786  2.6556 -0.2099 -3.3245
  914TIP3    H226938   2.580   2.808  18.716 -1.2774  0.0893  3.3711
  915TIP3   OH226939   2.239   4.782  17.097  0.2055  0.4504 -0.5880
  915TIP3    H126940   2.239   4.796  17.002  0.7545 -1.2169 -0.8784
  915TIP3    H226941   2.210   4.865  17.134  3.2527  2.3348 -2.0116
  916TIP3   OH226942   8.199   0.271  18.080 -0.2404  0.0288 -0.2950
  916TIP3    H126943   8.282   0.235  18.049  1.0948 -0.0046  3.0056
  916TIP3    H226944   8.168   0.324  18.006  3.3645  1.1448 -1.2245
  917TIP3   OH226945   5.778   3.612  16.484 -0.0531  0.2497  0.4214
  917TIP3    H126946   5.804   3.674  16.553 -2.1075 -0.5156  1.9972
  917TIP3    H226947   5.693   3.579  16.513 -0.3502 -1.1512 -1.8408
  918TIP3   OH226948   2.856   0.659  17.679  0.3485 -0.0706  0.0776
  918TIP3    H126949   2.844   0.683  17.587 -1.1935 -0.9294  0.0243
  918TIP3    H226950   2.904   0.576  17.676  0.5244  0.0313  0.0607
  919TIP3   OH226951   3.055   4.479  17.923 -0.1158 -0.3294  0.2600
  919TIP3    H126952   3.134   4.529  17.906 -0.0198 -0.5003  0.2020
  919TIP3    H226953   3.053   4.468  18.018 -0.6911  0.6905  0.3763
  920TIP3   OH226954   3.883   3.005  18.360  0.4199 -0.3804  0.0266
  920TIP3    H126955   3.978   3.015  18.369  0.4318 -0.2745 -0.1999
  920TIP3    H226956   3.871   2.920  18.318  0.3364 -1.1544  1.5458
  921TIP3   OH226957   1.585   4.279  18.422  0.1294 -0.6961 -0.0492
  921TIP3    H126958   1.514   4.215  18.432 -0.7670  0.2608 -0.0780
  921TIP3    H226959   1.542   4.357  18.386  1.1906 -0.0773 -0.0216
  922TIP3   OH226960   7.613   4.133  17.086 -0.1101 -0.2122 -0.2115
  922TIP3    H126961   7.588   4.129  16.993  1.2419 -1.8053 -0.5548
  922TIP3    H226962   7.703   4.163  17.085 -0.3623  0.6154  0.6779
  923TIP3   OH226963   2.417   7.548  17.499  0.5051  0.0502 -0.4228
  923TIP3    H126964   2.434   7.457  17.476 -0.6697 -0.8106  1.8974
  923TIP3    H226965   2.486   7.597  17.453  0.6955 -1.8705 -2.3487
  924TIP3   OH226966   6.271   4.169  17.898 -0.0887 -0.1879  0.6514
  924TIP3    H126967   6.342   4.108  17.877  0.4597  0.8330 -0.6511
  924TIP3    H226968   6.266   4.227  17.822 -1.4924  0.5510  1.2625
  925TIP3   OH226969   4.624   6.341  17.879  0.2151  0.4213 -0.4668
  925TIP3    H126970   4.540   6.385  17.870 -0.4662 -1.0314 -1.5197
  925TIP3    H226971   4.677   6.374  17.806 -0.1370 -0.1708 -0.9895
  926TIP3   OH226972   3.691   0.693  18.065  0.9291  0.0529  0.1560
  926TIP3    H126973   3.731   0.779  18.081 -0.9356  0.7931  1.2609
  926TIP3    H226974   3.716   0.641  18.141 -1.1779  0.9572  1.5800
  927TIP3   OH226975   7.221   2.971  18.519  0.1772  0.0812 -0.0176
  927TIP3    H126976   7.290   2.946  18.579  0.2143  1.1421  0.3949
  927TIP3    H226977   7.265   2.984  18.435  0.1825 -1.0294 -0.1997
  928TIP3   OH226978   2.109   2.331  17.855 -0.2317 -0.0339 -0.0803
  928TIP3    H126979   2.113   2.237  17.838  1.5404  0.2152 -1.3320
  928TIP3    H226980   2.105   2.338  17.950 -1.0471 -1.3611  0.0086
  929TIP3   OH226981   6.400   1.871  16.949  0.2801 -0.2293 -0.3557
  929TIP3    H126982   6.488   1.855  16.914 -0.6003 -0.3501 -2.6604
  929TIP3    H226983   6.394   1.966  16.957  0.3628 -0.1691 -0.9573
  930TIP3   OH226984   8.382   3.780  19.321  0.8843  0.2201 -0.2465
  930TIP3    H126985   8.355   3.693  19.347  1.5371 -0.3657 -1.4143
  930TIP3    H226986   8.331   3.840  19.376 -0.7799 -0.8620 -0.5510
  931TIP3   OH226987   2.502   3.072  18.940 -0.2346  0.3326  0.2177
  931TIP3    H126988   2.590   3.066  18.977 -0.5473 -2.1310  0.7248
  931TIP3    H226989   2.457   3.134  18.998  0.7907  0.6522  0.7120
  932TIP3   OH226990   2.982   2.308  16.977  0.0164  0.3636 -0.4733
  932TIP3    H126991   3.021   2.322  17.063  0.4870 -0.3331 -0.5632
  932TIP3    H226992   2.962   2.395  16.945 -2.0736  0.5921  1.2043
  933TIP3   OH226993   2.074   0.033  17.447  0.2357 -0.4969  0.2043
  933TIP3    H126994   2.121   0.027  17.530 -0.7416 -2.0685  0.6884
  933TIP3    H226995   2.115   0.107  17.401  0.9715  0.2338  1.9572
  934TIP3   OH226996   1.267   1.790  18.560 -0.1722  0.7099  0.1047
  934TIP3    H126997   1.213   1.863  18.530 -2.8157 -1.0104  0.2412
  934TIP3    H226998   1.215   1.750  18.631 -0.1647 -2.7074 -1.6118
  935TIP3   OH226999   2.938   3.015  17.950 -0.4666  0.0613  0.2747
  935TIP3    H127000   2.893   2.961  18.014  0.2264 -0.0946  0.6464
  935TIP3    H227001   3.011   3.054  17.999 -0.9642  1.3603  0.0208
  936TIP3   OH227002   7.179   0.771  18.639  0.4562  0.2045 -0.2242
  936TIP3    H127003   7.136   0.701  18.590  1.3713  0.3976 -1.3345
  936TIP3    H227004   7.107   0.817  18.684 -0.2194 -1.0080 -0.0171
  937TIP3   OH227005   3.467   0.275  17.831  0.1233 -0.1953 -0.3268
  937TIP3    H127006   3.436   0.332  17.761  1.3364  1.3753  0.3741
  937TIP3    H227007   3.524   0.212  17.788 -0.7981 -0.5710 -1.0278
  938TIP3   OH227008   0.649   6.137  19.081  0.1148  0.3539 -0.4733
  938TIP3    H127009   0.559   6.165  19.069  0.3350  1.1024 -0.4752
  938TIP3    H227010   0.659   6.061  19.024 -0.4639  0.3699 -0.6034
  939TIP3   OH227011   5.856   7.898  16.384 -0.5959  0.9288 -0.1926
  939TIP3    H127012   5.927   7.882  16.322 -1.0952  0.8668 -0.7524
  939TIP3    H227013   5.876   7.985  16.421 -0.8404  1.4157 -1.1864
  940TIP3   OH227014   6.168   6.159  17.434  0.1881 -0.4219 -0.0428
  940TIP3    H127015   6.203   6.188  17.350  0.4192  2.1655  0.8543
  940TIP3    H227016   6.219   6.208  17.499 -0.7948 -1.4530  1.5704
  941TIP3   OH227017   2.664   2.279  17.345  0.3840 -0.0356  0.5747
  941TIP3    H127018   2.653   2.187  17.321  1.6724  0.3213 -1.5991
  941TIP3    H227019   2.609   2.327  17.284 -0.3196  0.6697  1.7285
  942TIP3   OH227020   7.430   6.077  18.807 -0.0067  0.2638  0.0810
  942TIP3    H127021   7.406   6.170  18.805 -0.3841  0.1666  0.1797
  942TIP3    H227022   7.513   6.076  18.855  1.5572  0.8819 -2.4468
  943TIP3   OH227023   7.199   0.368  17.091 -0.2723 -0.7599  0.0566
  943TIP3    H127024   7.278   0.314  17.081  0.4737 -0.4305  3.1255
  943TIP3    H227025   7.131   0.307  17.118 -0.2174 -0.6248  0.5162
  944TIP3   OH227026   1.556   3.081  17.743 -0.1787  0.0887  0.3114
  944TIP3    H127027   1.486   3.135  17.709  0.3156  0.9687  0.6718
  944TIP3    H227028   1.590   3.129  17.818  1.5225  0.2130 -0.5017
  945TIP3   OH227029   0.228   3.774  17.574  0.5065  0.1312  0.4350
  945TIP3    H127030   0.275   3.838  17.521  0.1026  0.9182  1.0202
  945TIP3    H227031   0.139   3.775  17.540  0.8169 -1.1934 -0.5172
  946TIP3   OH227032   2.946   0.143  17.259 -1.1405  0.2062  0.5097
  946TIP3    H127033   2.861   0.128  17.300 -0.9050  1.6023  1.5811
  946TIP3    H227034   3.010   0.113  17.324 -0.7850 -0.1024  0.0315
  947TIP3   OH227035   3.955   2.629  18.567 -0.6543 -0.2246 -0.3125
  947TIP3    H127036   3.898   2.689  18.615 -0.3081 -1.5368  1.8909
  947TIP3    H227037   3.910   2.544  18.571  0.2618 -0.7478 -0.7543
  948TIP3   OH227038   6.154   8.244  16.864  0.2953  0.7836  0.2223
  948TIP3    H127039   6.245   8.223  16.842  0.2793 -1.2771  1.7226
  948TIP3    H227040   6.103   8.211  16.790  0.6363 -0.5109  0.5274
  949TIP3   OH227041   8.313   3.346  17.819 -0.2496 -0.2440  0.4719
  949TIP3    H127042   8.390   3.401  17.832 -0.4380 -0.1276  1.1418
  949TIP3    H227043   8.268   3.348  17.904 -1.3321  0.2291 -0.1018
  950TIP3   OH227044   0.283   0.523  18.280  0.7562  0.1245 -0.5360
  950TIP3    H127045   0.191   0.545  18.264  0.4892 -0.4529  0.1584
  950TIP3    H227046   0.330   0.566  18.209 -0.0020  0.8147 -0.6447
  951TIP3   OH227047   3.644   5.609  18.328  0.1138  0.4917  0.4610
  951TIP3    H127048   3.581   5.642  18.264  0.0891 -0.6033 -0.1040
  951TIP3    H227049   3.663   5.519  18.299  0.7037  0.2486  1.5418
  952TIP3   OH227050   6.358   3.722  18.923 -0.1631 -0.5533 -0.1449
  952TIP3    H127051   6.439   3.745  18.968 -1.3557 -0.9419  2.3656
  952TIP3    H227052   6.321   3.806  18.896  0.4159 -0.2857 -0.1254
  953TIP3   OH227053   7.142   5.441  19.016  0.2715 -0.4680  0.1869
  953TIP3    H127054   7.166   5.531  18.995 -0.3258 -0.2783  0.3151
  953TIP3    H227055   7.157   5.393  18.935 -1.8114  0.2168 -0.6586
  954TIP3   OH227056   0.212   6.977  17.953  0.2563  0.3348 -0.5432
  954TIP3    H127057   0.219   6.958  17.859 -0.6074 -1.2706 -0.3094
  954TIP3    H227058   0.302   6.972  17.985  0.2658 -1.8531 -0.8096
  955TIP3   OH227059   7.489   2.362  18.042 -0.1593  0.0844  0.3787
  955TIP3    H127060   7.582   2.340  18.035  0.4742  2.7879 -0.8419
  955TIP3    H227061   7.469   2.348  18.135  1.6165 -0.0472  0.7884
  956TIP3   OH227062   4.922   1.433  17.766  0.1137  0.5197  0.1026
  956TIP3    H127063   4.980   1.363  17.735  0.9095  1.4197 -0.5105
  956TIP3    H227064   4.981   1.505  17.787 -0.7218  1.1549  0.3333
  957TIP3   OH227065   3.753   7.642  18.227  0.1575 -0.4871 -0.2061
  957TIP3    H127066   3.716   7.660  18.141 -0.5044 -0.2355  0.1296
  957TIP3    H227067   3.688   7.588  18.271  1.0973 -1.7905 -0.3521
  958TIP3   OH227068   1.991   8.166  18.041  0.4455  0.1457  0.2006
  958TIP3    H127069   1.978   8.253  18.079  1.9374  0.2125  0.5957
  958TIP3    H227070   1.930   8.110  18.089  1.1641  0.5297  1.6080
  959TIP3   OH227071   5.159   1.235  16.505  0.6636 -0.1231 -0.1115
  959TIP3    H127072   5.081   1.186  16.480  0.6588  0.3275 -0.9978
  959TIP3    H227073   5.145   1.323  16.470  0.3755  0.7469  2.0249
  960TIP3   OH227074   6.123   2.589  18.023 -0.4176 -0.1767  0.1388
  960TIP3    H127075   6.201   2.557  17.977 -0.4574  0.6919 -0.5563
  960TIP3    H227076   6.059   2.519  18.011 -0.0979 -0.4081 -0.2538
  961TIP3   OH227077   0.721   3.354  17.491  0.9457 -0.9000 -0.1016
  961TIP3    H127078   0.696   3.377  17.581  0.1050 -1.7158 -0.1117
  961TIP3    H227079   0.639   3.361  17.441  1.1001 -1.9062 -0.5011
  962TIP3   OH227080   3.312   2.261  17.272  0.0422  0.5548  0.1130
  962TIP3    H127081   3.280   2.184  17.225 -1.0721  0.3791  1.1141
  962TIP3    H227082   3.343   2.226  17.356  0.5332  1.0645  0.1494
  963TIP3   OH227083   0.556   1.047  18.256  0.6407  0.3962 -0.6842
  963TIP3    H127084   0.480   1.008  18.299  0.6856  0.6930 -0.3315
  963TIP3    H227085   0.553   1.013  18.166 -1.3113  2.2939 -1.4202
  964TIP3   OH227086   0.038   7.325  17.318 -0.2337 -0.1004 -0.3256
  964TIP3    H127087  -0.014   7.276  17.254 -0.2986 -1.8752  1.0234
  964TIP3    H227088   0.029   7.276  17.399  1.6402  0.8735  0.5307
  965TIP3   OH227089   8.420   1.708  18.584  0.3658 -0.7177  0.1934
  965TIP3    H127090   8.357   1.641  18.611 -1.6321 -0.0260 -2.3221
  965TIP3    H227091   8.398   1.726  18.493  3.3255  0.6653 -0.3607
  966TIP3   OH227092   5.035   1.919  18.354 -0.2172 -0.0264  0.1834
  966TIP3    H127093   5.071   2.004  18.380 -0.8967  0.5033 -0.5679
  966TIP3    H227094   5.070   1.905  18.266 -1.4549  0.2768 -0.3693
  967TIP3   OH227095   1.615   7.729  18.600  0.3974  0.0599 -0.2552
  967TIP3    H127096   1.681   7.668  18.632  0.7718  0.5200 -0.1273
  967TIP3    H227097   1.647   7.815  18.627 -0.6651  0.2316  0.5050
  968TIP3   OH227098   5.388   4.492  17.793 -0.0665  0.2998  0.2469
  968TIP3    H127099   5.481   4.476  17.777  0.6831  1.4404  2.9982
  968TIP3    H227100   5.349   4.405  17.799  1.1923 -0.2367  0.9291
  969TIP3   OH227101   4.355   4.209  17.328 -0.6804  0.3872  0.1610
  969TIP3    H127102   4.322   4.269  17.395 -0.5476  0.5518  0.0812
  969TIP3    H227103   4.322   4.246  17.246  0.9546  1.4159 -0.0647
  970TIP3   OH227104   6.965   0.840  18.805  0.7512 -0.4407 -0.0717
  970TIP3    H127105   7.006   0.926  18.819  0.8023 -0.7682  2.1134
  970TIP3    H227106   6.925   0.818  18.890 -1.8136 -1.2877 -1.3980
  971TIP3   OH227107   3.039   6.272  18.091 -0.1863  0.5155 -0.3164
  971TIP3    H127108   2.962   6.310  18.048  1.2995  0.7475 -2.9872
  971TIP3    H227109   3.038   6.180  18.065 -0.0001  0.3182  0.3488
  972TIP3   OH227110   4.538   1.541  17.647  0.4458 -0.1675 -0.8469
  972TIP3    H127111   4.548   1.591  17.728  2.5614 -2.2311  0.2929
  972TIP3    H227112   4.600   1.468  17.655 -0.2219 -1.2320 -3.7593
  973TIP3   OH227113   8.249   1.395  18.937 -0.1814  0.7531 -0.2696
  973TIP3    H127114   8.320   1.420  18.997 -1.7880  0.9164  1.6858
  973TIP3    H227115   8.193   1.472  18.932 -1.7506 -0.2618  0.6188
  974TIP3   OH227116   0.480   7.143  17.806 -1.1708  0.0680  0.1966
  974TIP3    H127117   0.555   7.134  17.864 -0.0239  0.8299 -1.0975
  974TIP3    H227118   0.462   7.237  17.802 -1.9773 -0.0718  0.2178
  975TIP3   OH227119   1.758   0.783  18.904  0.4942 -0.0624 -0.9028
  975TIP3    H127120   1.739   0.864  18.857 -0.5672  0.5243  0.4570
  975TIP3    H227121   1.761   0.810  18.996  0.2950 -1.5376 -0.4484
  976TIP3   OH227122   8.306   6.374  18.328 -0.3033  0.0074 -0.4627
  976TIP3    H127123   8.293   6.394  18.421  1.2910 -1.4417  0.1303
  976TIP3    H227124   8.372   6.438  18.299  0.5683 -0.6875 -0.0745
  977TIP3   OH227125   7.174   0.234  18.599  0.4198 -0.2625  0.7682
  977TIP3    H127126   7.237   0.299  18.629  0.5015  1.5508 -2.7268
  977TIP3    H227127   7.227   0.166  18.559  0.2303 -0.4706  0.8663
  978TIP3   OH227128   7.334   1.704  17.454 -0.2118 -0.1381 -0.0148
  978TIP3    H127129   7.251   1.660  17.437  0.6900 -1.0618 -2.7501
  978TIP3    H227130   7.390   1.677  17.380  2.1794  1.2469  1.1743
  979TIP3   OH227131   5.443   2.910  18.474 -0.3442 -0.2779 -0.6923
  979TIP3    H127132   5.428   2.949  18.388 -0.9396  2.7635  0.6595
  979TIP3    H227133   5.507   2.968  18.516 -0.6158 -1.2449  1.1759
  980TIP3   OH227134   0.329   8.126  16.946 -0.0563 -0.0872 -0.4938
  980TIP3    H127135   0.344   8.043  16.901 -0.4287 -0.0927 -0.6110
  980TIP3    H227136   0.404   8.136  17.004  0.2288 -0.2763 -0.8246
  981TIP3   OH227137   7.019   7.870  16.672  0.1078  0.0608  0.1338
  981TIP3    H127138   7.072   7.790  16.678 -0.4395 -0.2634  0.6423
  981TIP3    H227139   6.937   7.842  16.631  0.4895  0.6534 -1.0996
  982TIP3   OH227140   4.410   1.972  16.591 -0.2182 -0.2056  0.3143
  982TIP3    H127141   4.467   1.898  16.613  0.9843  1.0630  1.5906
  982TIP3    H227142   4.340   1.969  16.657 -0.3594 -0.3787  0.1606
  983TIP3   OH227143   6.003   4.834  17.785  0.1964  0.3999 -0.2246
  983TIP3    H127144   6.039   4.788  17.861  0.3365  0.6538 -0.1361
  983TIP3    H227145   6.039   4.922  17.791 -0.1894  0.5653 -0.3141
  984TIP3   OH227146   6.165   3.951  17.624 -0.5732  0.5983  0.2022
  984TIP3    H127147   6.253   3.936  17.659 -0.4738 -1.2113 -0.7151
  984TIP3    H227148   6.115   3.982  17.699  0.3990 -0.1411  1.1893
  985TIP3   OH227149   3.866   0.035  17.813  0.1819 -0.8704 -0.2859
  985TIP3    H127150   3.882   0.104  17.877 -0.1607 -0.3032 -0.7985
  985TIP3    H227151   3.931  -0.032  17.833  1.1068 -0.0142 -0.3208
  986TIP3   OH227152   6.692   3.395  18.759 -0.6181 -0.4235  0.2050
  986TIP3    H127153   6.648   3.312  18.776 -1.4816 -0.0422 -0.1063
  986TIP3    H227154   6.699   3.399  18.664  1.0446 -0.9507  0.2869
  987TIP3   OH227155   8.408   6.818  18.072  0.3705 -0.1714 -0.6026
  987TIP3    H127156   8.373   6.759  18.006  0.8073 -0.7427 -0.3331
  987TIP3    H227157   8.379   6.905  18.044  0.5314 -0.4021 -1.5420
  988TIP3   OH227158   4.040   7.552  17.399 -0.0251  0.4739 -0.1555
  988TIP3    H127159   3.991   7.522  17.322  2.6716  0.3260 -1.9387
  988TIP3    H227160   4.023   7.484  17.465  0.9878 -1.8052 -2.0676
  989TIP3   OH227161   7.992   4.498  17.786 -1.0957 -0.3429  0.2870
  989TIP3    H127162   7.907   4.473  17.820 -0.4990 -1.3064  1.1194
  989TIP3    H227163   7.997   4.456  17.700 -0.7358 -1.8270  1.0133
  990TIP3   OH227164   5.036   4.261  18.834  0.4203  0.1474  0.4765
  990TIP3    H127165   5.103   4.194  18.848  2.2699  2.0387  1.1294
  990TIP3    H227166   5.072   4.318  18.766 -0.7691  0.9073  0.4523
  991TIP3   OH227167   3.260   2.594  18.884 -0.2563  0.5318  0.9174
  991TIP3    H127168   3.290   2.503  18.892  2.0355  1.4050  4.9294
  991TIP3    H227169   3.202   2.607  18.960 -1.1952  2.2470 -0.0294
  992TIP3   OH227170   6.794   2.643  18.846 -0.3840  0.2607  0.1200
  992TIP3    H127171   6.798   2.705  18.773 -1.8441  1.1922  0.7898
  992TIP3    H227172   6.701   2.631  18.863 -0.1705 -2.2334 -0.0440
  993TIP3   OH227173   0.372   0.214  18.099  0.1928 -0.5862  0.1091
  993TIP3    H127174   0.465   0.232  18.105  0.7963 -2.6995 -1.6938
  993TIP3    H227175   0.340   0.272  18.030 -0.3054  1.4781  1.9572
  994TIP3   OH227176   5.523   3.096  18.878 -0.0516  0.5337  0.0554
  994TIP3    H127177   5.547   3.093  18.786  1.4574  2.6168  0.3086
  994TIP3    H227178   5.432   3.127  18.878  0.3915  1.9014 -0.7293
  995TIP3   OH227179   1.510   1.887  18.444 -0.2619 -0.5279 -0.2496
  995TIP3    H127180   1.550   1.803  18.421 -0.3608 -1.2840  2.0673
  995TIP3    H227181   1.438   1.864  18.502  0.3483  1.1922  1.2738
  996TIP3   OH227182   6.095   3.573  18.891 -0.0524 -0.2244  0.3083
  996TIP3    H127183   6.076   3.666  18.895 -1.0297 -0.3546 -0.8845
  996TIP3    H227184   6.184   3.565  18.926  0.3948  1.2506 -0.4210
  997TIP3   OH227185   6.928   7.166  17.634  0.6771  0.1049  0.3883
  997TIP3    H127186   6.888   7.242  17.676 -0.2122 -0.4691  0.6127
  997TIP3    H227187   6.956   7.110  17.707 -0.3910 -0.6495  0.2333
  998TIP3   OH227188   4.861   6.743  18.236  0.2930  0.1732  0.2129
  998TIP3    H127189   4.926   6.795  18.187 -1.5368  1.4043 -1.0437
  998TIP3    H227190   4.860   6.782  18.323  0.6834  0.6450  0.0134
  999TIP3   OH227191   2.902   5.837  16.983  0.1701 -0.2884 -0.2209
  999TIP3    H127192   2.899   5.805  17.073  0.8364  1.9553  0.6806
  999TIP3    H227193   2.975   5.899  16.982 -1.1947  1.4179 -1.6878
 1000TIP3   OH227194   6.422   8.333  16.824  0.1151  0.1361 -0.0383
 1000TIP3    H127195   6.483   8.382  16.879  0.7259 -0.5905 -0.0461
 1000TIP3    H227196   6.463   8.333  16.738 -1.1140  1.7558 -0.6691
 1001TIP3   OH227197   4.062   0.953  18.335  0.0394 -0.6165  0.3824
 1001TIP3    H127198   4.146   0.980  18.298  0.8672 -1.7676  1.3577
 1001TIP3    H227199   4.065   0.980  18.426 -2.3315  2.9538 -0.4128
 1002TIP3   OH227200   2.557   5.574  17.904  0.8754  0.1498 -0.1373
 1002TIP3    H127201   2.555   5.626  17.823 -0.6895  0.0214 -0.2234
 1002TIP3    H227202   2.466   5.543  17.914  1.5524 -1.8251  0.3881
 1003TIP3   OH227203   5.744   4.334  18.233  0.0278  0.1697  0.0276
 1003TIP3    H127204   5.779   4.387  18.304 -0.2975  0.7726 -0.2584
 1003TIP3    H227205   5.806   4.347  18.161 -0.6438  1.0720 -0.4109
 1004TIP3   OH227206   7.294   6.993  18.977  0.5846  0.5771 -0.1700
 1004TIP3    H127207   7.315   6.954  18.892 -0.5419 -0.6165  0.0707
 1004TIP3    H227208   7.223   6.939  19.011 -0.9912  2.7975  0.2473
 1005TIP3   OH227209   3.467   5.974  17.657 -0.6700 -0.0357 -0.3061
 1005TIP3    H127210   3.551   5.997  17.696  0.1559 -1.7435 -1.0011
 1005TIP3    H227211   3.490   5.925  17.578 -2.3037 -1.8807  0.2971
 1006TIP3   OH227212   7.423   6.610  17.440 -0.0048 -0.5265 -0.1068
 1006TIP3    H127213   7.462   6.685  17.396 -2.3364 -1.2066 -3.7998
 1006TIP3    H227214   7.329   6.629  17.440 -0.6454 -3.2491 -0.9420
 1007TIP3   OH227215   7.638   2.897  18.285 -0.6818 -0.0750 -0.2875
 1007TIP3    H127216   7.567   2.935  18.232 -1.0640 -1.4508 -0.8101
 1007TIP3    H227217   7.710   2.886  18.223  0.8680  3.3385  0.6837
 1008TIP3   OH227218   0.793   7.556  18.700 -0.2127  0.4379 -0.4321
 1008TIP3    H127219   0.865   7.614  18.724 -0.2697 -0.4544  2.2795
 1008TIP3    H227220   0.714   7.609  18.710 -0.1466  0.4416  0.0678
 1009TIP3   OH227221   7.783   0.826  17.093 -0.4890  0.4941  0.5388
 1009TIP3    H127222   7.780   0.765  17.020 -1.2865  0.0313  0.9497
 1009TIP3    H227223   7.875   0.827  17.120 -0.8970 -2.9498  2.5375
 1010TIP3   OH227224   4.323   4.629  18.672 -0.1843  0.1912 -0.8753
 1010TIP3    H127225   4.378   4.555  18.647 -1.2897 -0.4415 -1.5365
 1010TIP3    H227226   4.338   4.694  18.604  0.3854  0.3760 -0.5826
 1011TIP3   OH227227   1.201   4.303  18.889 -0.0501 -0.1601 -0.0298
 1011TIP3    H127228   1.162   4.391  18.889  0.9613  0.3012  0.1527
 1011TIP3    H227229   1.253   4.300  18.809  3.1066  0.9050  1.8093
 1012TIP3   OH227230   0.589   4.782  16.927  0.3853  0.4910 -0.3189
 1012TIP3    H127231   0.661   4.811  16.871 -0.0656  0.8165 -0.7360
 1012TIP3    H227232   0.510   4.813  16.883  0.0648  2.0942  1.2399
 1013TIP3   OH227233   6.249   5.103  17.084  0.1080 -0.1549  0.1214
 1013TIP3    H127234   6.284   5.036  17.143  0.8028 -0.4447 -0.6022
 1013TIP3    H227235   6.282   5.078  16.997 -0.2132  0.7267 -0.2629
 1014TIP3   OH227236   1.340   6.960  18.673 -0.3459  0.6521 -0.4925
 1014TIP3    H127237   1.353   7.040  18.725 -1.4088  0.8495 -0.5188
 1014TIP3    H227238   1.380   6.979  18.588  0.9361  0.5185  0.0597
 1015TIP3   OH227239   3.550   2.237  18.074 -0.4412  0.8159 -0.2861
 1015TIP3    H127240   3.642   2.239  18.098 -0.3410 -1.2622 -0.2572
 1015TIP3    H227241   3.550   2.240  17.978 -0.4399  2.1603 -0.2544
 1016TIP3   OH227242   2.197   1.385  18.417 -0.4237  0.1507 -0.0551
 1016TIP3    H127243   2.191   1.396  18.512  1.4257  1.3384 -0.0365
 1016TIP3    H227244   2.280   1.339  18.403 -0.2412  0.7735 -1.1363
 1017TIP3   OH227245   1.487   7.480  17.999  0.0568  0.2439  0.3381
 1017TIP3    H127246   1.431   7.524  17.936  0.8503  0.6353 -0.1132
 1017TIP3    H227247   1.508   7.396  17.958  0.9741  0.6995 -0.1711
 1018TIP3   OH227248   4.095   7.455  17.800  0.2482 -0.1972 -0.3253
 1018TIP3    H127249   4.161   7.523  17.787  1.8349 -1.2823  1.4929
 1018TIP3    H227250   4.021   7.501  17.839  0.4391  0.8188 -1.1064
 1019TIP3   OH227251   2.358   7.249  18.183  0.3912  0.2261  0.1284
 1019TIP3    H127252   2.376   7.158  18.206 -0.1963  0.4145  1.4358
 1019TIP3    H227253   2.370   7.253  18.088 -1.8460 -1.7611 -0.3141
 1020TIP3   OH227254   7.401   6.763  17.123 -0.3428  0.1134  0.2055
 1020TIP3    H127255   7.326   6.792  17.072  0.6548  2.5954 -0.0077
 1020TIP3    H227256   7.385   6.797  17.211  0.1282 -0.0716  0.3672
 1021TIP3   OH227257   1.409   6.114  16.795 -0.0781  0.4113  0.5443
 1021TIP3    H127258   1.365   6.198  16.793 -1.5136 -0.2860  1.0539
 1021TIP3    H227259   1.338   6.049  16.790  0.8286 -0.7644  1.8088
 1022TIP3   OH227260   0.116   2.263  18.587 -0.7546 -0.1325  0.2891
 1022TIP3    H127261   0.030   2.222  18.597 -0.9139 -0.3223 -1.5496
 1022TIP3    H227262   0.125   2.318  18.665 -1.5910 -1.7513  1.5830
 1023TIP3   OH227263   5.862   2.711  18.807  0.0422 -0.5754 -0.0067
 1023TIP3    H127264   5.776   2.743  18.835  0.1554  1.6639 -1.9594
 1023TIP3    H227265   5.924   2.771  18.848  0.7867 -2.3280  1.5943
 1024TIP3   OH227266   3.612   5.950  18.294  0.1922 -0.2031 -0.3232
 1024TIP3    H127267   3.621   5.908  18.379 -0.5387 -0.4866 -0.3761
 1024TIP3    H227268   3.526   5.922  18.262  0.1427  0.4839 -0.8307
 1025TIP3   OH227269   6.811   4.344  17.848 -0.3103 -0.4814  0.1956
 1025TIP3    H127270   6.766   4.347  17.764  0.6808 -1.3562 -0.3803
 1025TIP3    H227271   6.881   4.409  17.841  0.2638 -1.1054  0.0437
 1026TIP3   OH227272   2.561   6.055  16.566 -0.0691  0.5511  0.5491
 1026TIP3    H127273   2.639   6.064  16.511 -0.2895  2.4797  0.4755
 1026TIP3    H227274   2.595   6.035  16.653  0.3543 -0.9675  0.0815
 1027TIP3   OH227275   6.820   0.511  17.954  0.1216  0.1575 -0.4360
 1027TIP3    H127276   6.799   0.429  17.998  1.1697  0.6920  1.1260
 1027TIP3    H227277   6.896   0.490  17.899 -0.3228 -0.1798 -0.9287
 1028TIP3   OH227278   1.972   2.919  17.020 -0.0595  0.5642  0.0827
 1028TIP3    H127279   2.016   2.999  16.992 -0.3782  0.3873 -0.9590
 1028TIP3    H227280   2.024   2.848  16.984  0.9352  0.2327  2.0578
 1029TIP3   OH227281   1.016   5.755  17.737 -0.2928 -0.0041 -0.0536
 1029TIP3    H127282   1.036   5.662  17.725  0.7114  0.2934 -0.8672
 1029TIP3    H227283   0.929   5.756  17.776 -0.1940 -1.2954  0.2444
 1030TIP3   OH227284   0.762   6.350  18.429 -0.0328 -0.0744  0.1128
 1030TIP3    H127285   0.764   6.437  18.390  0.6255 -0.6129 -1.1086
 1030TIP3    H227286   0.740   6.291  18.356  0.3322 -1.0206  0.7388
 1031TIP3   OH227287   5.843   4.331  17.045  0.0028 -0.2581 -0.0996
 1031TIP3    H127288   5.917   4.381  17.011 -1.0095  1.6071  0.3093
 1031TIP3    H227289   5.879   4.244  17.063  1.8635  0.3408 -0.7045
 1032TIP3   OH227290   7.498   1.623  17.959 -0.0556 -0.1382  0.1102
 1032TIP3    H127291   7.469   1.701  18.006 -0.5322  1.1964 -2.2134
 1032TIP3    H227292   7.593   1.626  17.963 -0.0746  0.5485  0.0961
 1033TIP3   OH227293   6.341   3.129  17.193  0.6012  0.5213  0.0899
 1033TIP3    H127294   6.315   3.039  17.173  1.1486  0.6568 -1.3134
 1033TIP3    H227295   6.384   3.123  17.279 -0.2829 -0.3723  0.4844
 1034TIP3   OH227296   1.054   7.477  17.648 -0.4987 -0.1800  0.0444
 1034TIP3    H127297   1.002   7.456  17.570  0.1314 -0.7004 -0.2472
 1034TIP3    H227298   1.007   7.436  17.720 -1.6340  1.1566  0.0989
 1035TIP3   OH227299   6.544   1.173  17.698 -0.2332 -0.3315  0.2157
 1035TIP3    H127300   6.572   1.114  17.628 -1.8989  0.1275 -0.8902
 1035TIP3    H227301   6.554   1.122  17.778  1.7366 -0.8652 -0.3096
 1036TIP3   OH227302   4.662   0.674  18.497 -0.1236 -0.0072  0.6171
 1036TIP3    H127303   4.757   0.679  18.507 -0.0006 -0.9283 -0.0362
 1036TIP3    H227304   4.630   0.754  18.539  0.9407  0.3733  0.7383
 1037TIP3   OH227305   4.413   0.175  17.309 -0.1090 -0.6032 -0.0004
 1037TIP3    H127306   4.317   0.175  17.305 -0.1567  2.2349 -1.5314
 1037TIP3    H227307   4.433   0.200  17.399 -0.8826  0.5701 -0.1346
 1038TIP3   OH227308   4.543   1.256  17.958 -0.3443 -0.2237  0.3090
 1038TIP3    H127309   4.512   1.345  17.978 -0.8795 -0.2059 -0.5369
 1038TIP3    H227310   4.591   1.266  17.876  0.6260 -0.5180  0.8314
 1039TIP3   OH227311   7.230   5.845  17.399 -0.1048  0.6061 -0.1763
 1039TIP3    H127312   7.295   5.913  17.417 -0.5793  0.7311  1.1497
 1039TIP3    H227313   7.183   5.833  17.482 -0.5998 -0.7390 -0.6157
 1040TIP3   OH227314   5.352   6.026  18.903  0.2183 -0.7734 -0.3056
 1040TIP3    H127315   5.319   5.973  18.976  1.6928 -1.8347 -0.3620
 1040TIP3    H227316   5.284   6.019  18.836 -0.6659 -0.6713  0.5579
 1041TIP3   OH227317   1.125   1.971  18.429  0.3652 -0.0121  0.0319
 1041TIP3    H127318   1.033   1.988  18.447  0.6208  0.0785  1.4477
 1041TIP3    H227319   1.135   1.983  18.335 -1.3360 -1.3443 -0.3532
 1042TIP3   OH227320   6.475   4.737  17.866 -0.1298  0.0121  0.1644
 1042TIP3    H127321   6.529   4.775  17.796 -1.6234 -1.4831 -1.8947
 1042TIP3    H227322   6.417   4.808  17.893  0.0774  0.4529 -0.5278
 1043TIP3   OH227323   3.112   3.240  18.065 -0.1487  0.0237 -0.2506
 1043TIP3    H127324   3.121   3.306  18.135 -0.4132  0.5635 -0.7188
 1043TIP3    H227325   3.099   3.158  18.112 -1.6624  0.5696  0.3435
 1044TIP3   OH227326   1.078   7.479  18.880  0.0729  0.3539  0.2299
 1044TIP3    H127327   1.160   7.517  18.847  0.0270  0.2798  0.0327
 1044TIP3    H227328   1.018   7.554  18.887 -0.0973  0.2835 -0.4034
 1045TIP3   OH227329   5.712   7.011  17.567 -0.1976  0.4422 -0.3449
 1045TIP3    H127330   5.651   6.995  17.639 -1.1372 -1.3414 -1.4623
 1045TIP3    H227331   5.665   7.072  17.510 -0.7598 -0.5244 -0.9429
 1046TIP3   OH227332   3.003   6.731  17.071 -0.3456 -0.2539  0.6371
 1046TIP3    H127333   3.085   6.683  17.060  0.3693  1.2390 -1.2662
 1046TIP3    H227334   3.028   6.811  17.116 -1.0506 -0.4373  1.3792
 1047TIP3   OH227335   6.402   3.056  17.486  0.1820 -0.2850 -0.0142
 1047TIP3    H127336   6.349   2.979  17.466  1.0949 -1.4705  1.8485
 1047TIP3    H227337   6.455   3.030  17.561  0.9041  2.0044  0.3522
 1048TIP3   OH227338   7.545   2.653  18.062  0.2722  0.4359 -0.1279
 1048TIP3    H127339   7.544   2.625  18.154  1.2411  0.2293 -0.1797
 1048TIP3    H227340   7.500   2.583  18.015  3.8804 -1.8584 -0.4675
 1049TIP3   OH227341   5.493   8.091  17.139 -0.0401  0.6559 -0.0725
 1049TIP3    H127342   5.477   8.064  17.048  2.7274 -0.0471 -0.4417
 1049TIP3    H227343   5.522   8.182  17.132  0.6965  0.4345  0.0238
 1050TIP3   OH227344   7.911   4.317  17.311 -0.2263 -0.0864 -0.4550
 1050TIP3    H127345   7.903   4.309  17.216  0.2917  1.0033 -0.5996
 1050TIP3    H227346   7.822   4.338  17.341 -0.3634 -0.2911 -0.7126
 1051TIP3   OH227347   7.786   8.105  17.868  0.3141 -0.0314  0.0070
 1051TIP3    H127348   7.773   8.017  17.831 -1.2640  1.0694 -2.2249
 1051TIP3    H227349   7.804   8.088  17.961 -0.3898 -2.6973 -0.2394
 1052TIP3   OH227350   6.834   1.689  17.667  0.6075  0.2786  0.0364
 1052TIP3    H127351   6.876   1.721  17.588 -0.8025 -0.6328 -1.1377
 1052TIP3    H227352   6.751   1.653  17.637  0.9333 -2.0154  1.6149
 1053TIP3   OH227353   4.078   4.934  18.059  0.3055  0.4063  0.1542
 1053TIP3    H127354   4.048   4.948  18.149  3.0001  0.9798  1.0596
 1053TIP3    H227355   4.121   4.849  18.061 -1.0000 -0.3188 -1.0366
 1054TIP3   OH227356   0.958   5.171  17.712 -0.0768 -0.3225 -0.1076
 1054TIP3    H127357   0.967   5.076  17.722  0.4712 -0.2434  0.2036
 1054TIP3    H227358   0.867   5.189  17.736 -0.0513 -0.7098  0.2970
 1055TIP3   OH227359   7.326   5.018  17.876  0.0206 -0.0392 -0.2753
 1055TIP3    H127360   7.270   5.056  17.808  0.4745  0.3992 -0.4114
 1055TIP3    H227361   7.299   5.061  17.957  2.0890  2.4126 -0.7409
 1056TIP3   OH227362   6.753   7.211  17.260 -0.2429  0.7551 -0.2138
 1056TIP3    H127363   6.730   7.146  17.193  0.9738 -1.1746  1.1165
 1056TIP3    H227364   6.682   7.206  17.323  0.3310 -0.0768  0.3926
 1057TIP3   OH227365   7.745   4.812  17.524 -0.5809 -0.0458 -0.2446
 1057TIP3    H127366   7.703   4.798  17.609 -0.1071  0.7399  0.1208
 1057TIP3    H227367   7.674   4.844  17.468 -0.7320  0.1541  0.0548
 1058TIP3   OH227368   3.480   4.621  18.752  0.8019  0.3036 -0.4293
 1058TIP3    H127369   3.552   4.575  18.796  0.1737 -0.4018 -0.1161
 1058TIP3    H227370   3.441   4.555  18.695  0.5669  0.7584 -0.7965
 1059TIP3   OH227371   7.053   0.975  18.371 -0.2791  0.2233 -0.1216
 1059TIP3    H127372   7.107   0.939  18.442  0.9009 -0.7703 -1.4677
 1059TIP3    H227373   7.059   1.070  18.382 -1.5321  0.1132  2.1032
 1060TIP3   OH227374   3.658   6.667  17.709 -0.1119  0.0871 -0.1755
 1060TIP3    H127375   3.617   6.738  17.759  1.8107  0.4093  1.0589
 1060TIP3    H227376   3.740   6.705  17.677  0.1972 -1.1124 -0.8533
 1061TIP3   OH227377   1.872   1.484  17.915  0.8948 -0.1393  0.4498
 1061TIP3    H127378   1.825   1.519  17.991  0.0788 -0.3862  0.0688
 1061TIP3    H227379   1.825   1.404  17.892  1.5018 -0.3851  0.0584
 1062TIP3   OH227380   0.694   0.047  18.665  0.1071  0.1019  0.3000
 1062TIP3    H127381   0.664   0.135  18.641  1.0808  0.7520  1.4094
 1062TIP3    H227382   0.614  -0.006  18.667 -0.4468  0.8743 -0.6916
 1063TIP3   OH227383   0.689   7.629  17.924 -0.4927  0.2640  0.5114
 1063TIP3    H127384   0.737   7.701  17.881 -0.8657  0.8620  1.0751
 1063TIP3    H227385   0.678   7.659  18.014 -2.3541  0.3650  0.2833
 1064TIP3   OH227386   1.391   5.622  17.562 -0.4156  0.6678  0.1159
 1064TIP3    H127387   1.320   5.685  17.568 -1.3975 -0.1105 -2.1251
 1064TIP3    H227388   1.444   5.653  17.489  1.1421  0.7918  1.2502
 1065TIP3   OH227389   2.570   4.951  17.555  0.0149  0.0468  0.7968
 1065TIP3    H127390   2.572   4.991  17.642 -0.5968  0.3511  0.6733
 1065TIP3    H227391   2.606   4.863  17.569  1.1061  0.5155  1.1165
 1066TIP3   OH227392   2.297   1.762  17.181 -0.5492  0.3379 -0.1228
 1066TIP3    H127393   2.393   1.765  17.181 -0.5186  0.2172  1.3862
 1066TIP3    H227394   2.270   1.847  17.216 -0.9513 -0.0073  0.4256
 1067TIP3   OH227395   2.700   7.279  16.733  0.2835 -0.0846  0.2718
 1067TIP3    H127396   2.745   7.351  16.689 -0.8878  1.7006  1.8412
 1067TIP3    H227397   2.638   7.321  16.793 -0.1251 -2.3913  1.6377
 1068TIP3   OH227398   4.608   2.081  16.888 -0.3556 -0.0524  0.2655
 1068TIP3    H127399   4.613   2.036  16.973  0.2193  3.1456  2.0807
 1068TIP3    H227400   4.526   2.131  16.893  0.0321  0.7123 -0.7834
 1069TIP3   OH227401   7.375   7.301  18.940  0.6225  0.3109  0.0788
 1069TIP3    H127402   7.372   7.205  18.941  1.7848  0.2646  1.3515
 1069TIP3    H227403   7.456   7.322  18.894  1.4332  0.6208  1.6033
 1070TIP3   OH227404   5.193   7.132  17.749  0.1360 -0.5502 -0.0277
 1070TIP3    H127405   5.193   7.083  17.831  1.2469  0.4139  0.5775
 1070TIP3    H227406   5.189   7.065  17.681 -0.7504 -1.3687  0.8051
 1071TIP3   OH227407   1.238   6.534  18.062  0.4483 -0.3598 -0.1400
 1071TIP3    H127408   1.246   6.484  18.143  1.8426  1.0309  0.6518
 1071TIP3    H227409   1.148   6.567  18.063  0.8095  0.7007  1.5496
 1072TIP3   OH227410   1.880   8.216  18.443  0.2223 -0.3711  0.8676
 1072TIP3    H127411   1.923   8.283  18.497 -0.9939 -1.2525  3.0709
 1072TIP3    H227412   1.805   8.262  18.405  1.6544  0.5261 -1.0021
 1073TIP3   OH227413   4.148   7.569  17.064  0.8893  0.7114 -0.2573
 1073TIP3    H127414   4.058   7.602  17.055  0.7849  0.9222  1.2492
 1073TIP3    H227415   4.156   7.501  16.997  0.1659  1.8318 -1.5268
 1074TIP3   OH227416   0.464   6.978  17.031 -0.0776 -0.4779 -0.2498
 1074TIP3    H127417   0.498   6.976  16.941 -0.9430 -0.1430 -0.5938
 1074TIP3    H227418   0.411   7.057  17.034 -0.5114 -0.7946  0.3915
 1075TIP3   OH227419   8.141   8.224  18.347 -0.2365  0.1865  0.0461
 1075TIP3    H127420   8.226   8.253  18.314  0.1868 -1.3048 -0.2063
 1075TIP3    H227421   8.106   8.301  18.393  0.7956  1.1290 -0.6928
 1076TIP3   OH227422   4.550   5.302  16.795  0.2398 -0.2456  0.1581
 1076TIP3    H127423   4.640   5.295  16.763 -0.5330 -2.1780 -1.8948
 1076TIP3    H227424   4.534   5.218  16.839 -0.8517 -0.3472 -0.4041
 1077TIP3   OH227425   8.207   3.258  18.078 -0.2001  0.0070 -0.1264
 1077TIP3    H127426   8.135   3.197  18.066  0.4849 -1.1365  1.3027
 1077TIP3    H227427   8.165   3.342  18.095 -1.1574  0.2307 -3.1088
 1078TIP3   OH227428   1.506   8.190  18.875  0.4019  0.0316 -0.1538
 1078TIP3    H127429   1.413   8.213  18.870  0.4750  0.3696  0.0234
 1078TIP3    H227430   1.509   8.096  18.854  0.2005  0.3730 -1.8497
 1079TIP3   OH227431   7.062   4.269  18.108  0.4131  0.1075 -0.3507
 1079TIP3    H127432   7.069   4.349  18.160  0.7688  0.6070 -1.1460
 1079TIP3    H227433   7.090   4.199  18.167  0.7706  0.6610  0.1369
 1080TIP3   OH227434   5.579   7.833  17.479 -0.0457  0.2290  0.6843
 1080TIP3    H127435   5.648   7.899  17.487 -1.2444  1.6004  0.0987
 1080TIP3    H227436   5.585   7.783  17.560  0.0331  1.9198  1.7775
 1081TIP3   OH227437   3.293   1.188  17.969  0.1598 -0.5836  0.6848
 1081TIP3    H127438   3.329   1.140  17.894 -2.8842 -0.2769 -1.1432
 1081TIP3    H227439   3.275   1.275  17.934 -1.0359 -0.3428  1.8500
 1082TIP3   OH227440   0.353   0.292  18.395 -0.3264  0.1974 -0.0272
 1082TIP3    H127441   0.318   0.368  18.348 -0.4172 -0.2132 -0.6308
 1082TIP3    H227442   0.405   0.245  18.330 -1.4980 -1.0823 -0.0816
 1083TIP3   OH227443   3.646   8.192  17.453 -0.5599  0.1340 -0.2067
 1083TIP3    H127444   3.579   8.126  17.437 -0.3305  0.6055 -3.7522
 1083TIP3    H227445   3.597   8.273  17.470 -0.9173  0.2745 -1.8391
 1084TIP3   OH227446   1.980   7.676  16.654  0.3678  0.4104  0.4857
 1084TIP3    H127447   2.028   7.610  16.703 -0.2618  0.1144  0.7126
 1084TIP3    H227448   2.014   7.759  16.687  1.0599  0.2090  0.3018
 1085TIP3   OH227449   0.307   7.897  17.923 -0.0971 -0.3756 -0.1724
 1085TIP3    H127450   0.217   7.929  17.928 -0.5660 -1.7864  1.0955
 1085TIP3    H227451   0.342   7.910  18.012  2.0434  2.9587 -1.2875
 1086TIP3   OH227452   5.446   8.259  18.738 -0.5828 -0.0647 -0.0060
 1086TIP3    H127453   5.451   8.278  18.832  0.9350 -0.1906 -0.0295
 1086TIP3    H227454   5.524   8.206  18.720 -2.2808 -2.4657 -0.8287
 1087TIP3   OH227455   1.841   4.619  17.606 -0.5257 -0.0437  0.4567
 1087TIP3    H127456   1.843   4.631  17.511  0.3761 -0.0536  0.4665
 1087TIP3    H227457   1.873   4.530  17.619 -0.4143  0.0448  0.7898
 1088TIP3   OH227458   6.092   7.020  18.534  0.1057  0.3813 -0.1666
 1088TIP3    H127459   6.093   7.112  18.561 -0.5304  0.4150 -0.2400
 1088TIP3    H227460   6.085   7.023  18.438  0.7657  0.2547 -0.2242
 1089TIP3   OH227461   6.454   0.049  17.700  0.6538 -0.1409 -0.0705
 1089TIP3    H127462   6.448  -0.004  17.621 -1.4399 -0.7466  0.4364
 1089TIP3    H227463   6.382   0.018  17.756  0.5317  1.9326  1.0380
 1090TIP3   OH227464   5.933   5.166  18.726  0.3078  0.2675  0.4919
 1090TIP3    H127465   5.879   5.203  18.796 -2.1836  2.0742 -2.1657
 1090TIP3    H227466   5.941   5.237  18.662  2.2652 -1.3597 -1.1942
 1091TIP3   OH227467   4.185   1.850  18.674  0.2420 -0.6382  0.6189
 1091TIP3    H127468   4.177   1.880  18.584  0.2453 -2.2217  0.0738
 1091TIP3    H227469   4.278   1.857  18.694  0.1122  0.7241  0.8982
 1092TIP3   OH227470   6.673   3.679  18.398 -0.1088  0.1999  0.2512
 1092TIP3    H127471   6.675   3.742  18.326  1.3062  0.0395  0.1267
 1092TIP3    H227472   6.710   3.726  18.473  0.2327 -0.2412  0.3621
 1093TIP3   OH227473   8.061   6.447  18.820 -0.2631  0.0719 -0.3242
 1093TIP3    H127474   8.079   6.386  18.892 -1.1665  0.3215  0.1258
 1093TIP3    H227475   8.023   6.393  18.751  1.3674 -0.3181 -0.9718
 1094TIP3   OH227476   2.016   7.428  17.330 -0.8688 -0.3550  0.1510
 1094TIP3    H127477   2.012   7.357  17.265  1.1244 -0.1023 -0.3157
 1094TIP3    H227478   1.925   7.447  17.350 -1.4798 -2.3330 -0.5016
 1095TIP3   OH227479   4.454   7.786  17.974 -0.6101 -0.2254  0.2681
 1095TIP3    H127480   4.403   7.833  17.909 -0.6087  0.5720  0.8282
 1095TIP3    H227481   4.545   7.813  17.957 -0.3863 -1.3574 -0.4922
 1096TIP3   OH227482   3.277   6.628  17.011 -0.1905  0.5920 -0.0782
 1096TIP3    H127483   3.275   6.585  16.926 -1.7956 -0.2871  0.3547
 1096TIP3    H227484   3.366   6.615  17.043 -0.3369 -1.5698 -0.3990
 1097TIP3   OH227485   4.693   7.510  18.502  1.2417  0.1809  0.2433
 1097TIP3    H127486   4.642   7.474  18.429  0.7103  0.5709  0.4163
 1097TIP3    H227487   4.747   7.436  18.532  1.4849  0.0241 -0.5517
 1098TIP3   OH227488   3.852   3.245  17.024  0.0436 -0.3541 -0.2292
 1098TIP3    H127489   3.923   3.308  17.034 -1.0708  1.3394 -2.2073
 1098TIP3    H227490   3.845   3.230  16.930 -1.8486 -0.8932 -0.0503
 1099TIP3   OH227491   7.741   5.218  16.413 -0.1236 -0.5710 -0.0055
 1099TIP3    H127492   7.659   5.231  16.367  0.3718  2.6963 -0.1849
 1099TIP3    H227493   7.715   5.183  16.499 -1.4934 -1.4299 -0.7405
 1100TIP3   OH227494   7.524   0.229  17.367 -0.0580 -0.4497  0.1065
 1100TIP3    H127495   7.507   0.276  17.285  2.1839 -2.1992 -1.5005
 1100TIP3    H227496   7.440   0.225  17.411 -1.2207  1.0962 -1.8245
 1101TIP3   OH227497   4.851   7.096  18.353 -0.3369 -0.0204  0.3390
 1101TIP3    H127498   4.844   7.017  18.407  1.9892  1.1000  2.5128
 1101TIP3    H227499   4.762   7.131  18.352 -1.0234 -1.6023  1.0327
 1102TIP3   OH227500   2.701   7.499  16.435  0.2118  0.5419 -0.0794
 1102TIP3    H127501   2.711   7.572  16.374  1.3423 -0.6373 -1.3878
 1102TIP3    H227502   2.617   7.459  16.410  0.4824  0.3005 -0.6319
 1103TIP3   OH227503   1.892   0.782  17.537 -0.4412 -0.0057 -0.0251
 1103TIP3    H127504   1.937   0.806  17.456  1.4313  0.1052  0.9807
 1103TIP3    H227505   1.842   0.703  17.515 -2.1129  1.5016 -1.9246
 1104TIP3   OH227506   3.694   0.661  16.683  0.2624 -0.2018 -0.0876
 1104TIP3    H127507   3.748   0.734  16.654  0.7237 -0.4993  0.0063
 1104TIP3    H227508   3.750   0.584  16.671  0.0258 -0.4609  0.4417
 1105TIP3   OH227509   4.961   2.605  17.852 -0.6916  0.2527  0.5364
 1105TIP3    H127510   5.012   2.627  17.774  0.7625  0.2682  1.4522
 1105TIP3    H227511   4.913   2.685  17.872 -0.8047  0.3591 -0.1509
 1106TIP3   OH227512   2.363   0.562  18.923  0.3097  0.3148 -0.2215
 1106TIP3    H127513   2.386   0.542  19.014  1.3306  0.0767 -0.5185
 1106TIP3    H227514   2.317   0.645  18.928 -0.7872 -0.3215  0.6450
 1107TIP3   OH227515   5.493   0.151  18.307  0.2491  0.0327  0.0672
 1107TIP3    H127516   5.574   0.104  18.289  0.3306  0.5289 -0.9468
 1107TIP3    H227517   5.511   0.201  18.386  1.0468  0.4022 -0.3428
 1108TIP3   OH227518   4.373   1.296  18.289  0.1448  0.1292  0.0651
 1108TIP3    H127519   4.426   1.308  18.368 -0.3062 -0.5812  0.4887
 1108TIP3    H227520   4.386   1.377  18.239  0.8937  0.3476  0.5892
 1109TIP3   OH227521   2.095   4.511  16.783 -0.0043  0.4399  0.0033
 1109TIP3    H127522   2.104   4.420  16.756  1.4307  0.5366  0.0674
 1109TIP3    H227523   2.185   4.543  16.790 -0.4120  1.3895  1.5727
 1110TIP3   OH227524   2.185   0.824  18.735 -0.1085  0.2489  0.1559
 1110TIP3    H127525   2.105   0.773  18.726  0.1415 -0.0912 -0.1886
 1110TIP3    H227526   2.246   0.784  18.672 -0.4754  2.1102 -1.4747
 1111TIP3   OH227527   3.850   7.031  18.917  0.4380  0.3913 -0.0461
 1111TIP3    H127528   3.826   7.046  19.008 -0.4237 -1.1839  0.0144
 1111TIP3    H227529   3.783   7.077  18.866  0.9388  1.3001  0.0765
 1112TIP3   OH227530   5.138   1.593  17.803 -0.3168  0.4288  0.1012
 1112TIP3    H127531   5.150   1.640  17.720 -1.4406 -0.1017 -0.3713
 1112TIP3    H227532   5.226   1.561  17.825 -0.3044 -1.1179 -1.9043
 1113TIP3   OH227533   5.552   3.354  16.759  0.2020  0.1779  0.2786
 1113TIP3    H127534   5.578   3.285  16.697  0.5317 -0.7817  1.4497
 1113TIP3    H227535   5.633   3.380  16.802  0.0038  0.9808  0.1923
 1114TIP3   OH227536   7.796   3.595  18.023  0.0670 -0.0507  0.0940
 1114TIP3    H127537   7.876   3.604  18.075  0.8835  0.1972 -1.1717
 1114TIP3    H227538   7.824   3.549  17.944 -0.7685  1.1683 -0.9443
 1115TIP3   OH227539   2.645   2.111  17.781  0.3855  0.0686  0.7907
 1115TIP3    H127540   2.671   2.165  17.706 -0.7140 -0.1731  0.2051
 1115TIP3    H227541   2.690   2.149  17.856  0.6645  0.9849  0.1732
 1116TIP3   OH227542   6.769   0.324  16.984  0.2803 -0.0356 -0.0747
 1116TIP3    H127543   6.804   0.366  16.905 -2.5961  0.1995 -1.3385
 1116TIP3    H227544   6.685   0.367  16.999 -0.8457 -2.4796  1.0853
 1117TIP3   OH227545   1.686   1.834  16.923  0.5779 -0.5575 -0.0862
 1117TIP3    H127546   1.755   1.895  16.950  0.8434 -0.5208 -0.8339
 1117TIP3    H227547   1.605   1.875  16.954  0.8080 -0.1523 -0.0074
 1118TIP3   OH227548   0.125   8.387  17.946 -0.0100 -0.6257  0.4416
 1118TIP3    H127549   0.213   8.390  17.908  0.9910  0.1784  2.6865
 1118TIP3    H227550   0.139   8.378  18.040 -2.3589 -0.9911  0.8190
 1119TIP3   OH227551   5.799   7.945  17.995  0.3477  0.2619 -0.0242
 1119TIP3    H127552   5.783   8.036  18.022  1.4198  0.2087  0.8620
 1119TIP3    H227553   5.746   7.892  18.054 -0.1013  0.2881 -0.3943
 1120TIP3   OH227554   6.137   2.077  17.684 -0.2325 -0.5726 -0.1678
 1120TIP3    H127555   6.150   2.118  17.599  2.5231  0.4615  0.6687
 1120TIP3    H227556   6.135   1.983  17.665  1.4380 -0.4201 -1.3037
 1121TIP3   OH227557   6.968   4.080  18.977  0.2421  0.1785 -0.9639
 1121TIP3    H127558   6.923   4.143  19.033  1.1636  1.2526 -1.3928
 1121TIP3    H227559   6.998   4.131  18.902  0.4639 -0.9021 -1.6391
 1122TIP3   OH227560   6.791   7.872  17.101 -0.1351  0.3111 -0.1809
 1122TIP3    H127561   6.828   7.956  17.125 -0.9539  0.4394  0.7261
 1122TIP3    H227562   6.785   7.824  17.184  0.4503 -0.6962 -0.6992
 1123TIP3   OH227563   7.304   2.443  17.852 -0.2216 -0.4239 -0.3313
 1123TIP3    H127564   7.354   2.405  17.923  0.4400  0.1956 -0.4542
 1123TIP3    H227565   7.243   2.503  17.895  0.1732 -0.0546 -0.2780
 1124TIP3   OH227566   2.087   6.411  17.113 -0.4834  0.0721 -0.1517
 1124TIP3    H127567   2.049   6.387  17.198  1.9792  0.2765  1.0746
 1124TIP3    H227568   2.110   6.503  17.121  0.2325 -0.0321 -0.8672
 1125TIP3   OH227569   5.414   6.363  16.880  0.3102 -0.4561 -0.0539
 1125TIP3    H127570   5.411   6.328  16.969  1.9069 -1.5764 -0.4138
 1125TIP3    H227571   5.335   6.329  16.839 -0.5996  0.3063  0.9909
 1126TIP3   OH227572   2.262   7.433  18.757 -0.7903  0.1722 -0.6802
 1126TIP3    H127573   2.296   7.382  18.830 -1.4180  1.3395  0.4744
 1126TIP3    H227574   2.181   7.388  18.731 -0.4076 -0.4143 -0.8660
 1127TIP3   OH227575   2.362   4.515  18.498 -0.0603  0.4375  0.0049
 1127TIP3    H127576   2.453   4.490  18.486 -0.0962  0.0272  0.5204
 1127TIP3    H227577   2.313   4.435  18.476 -0.2167  0.2387  1.0069
 1128TIP3   OH227578   7.934   2.195  17.071  0.2225 -0.4422 -0.2856
 1128TIP3    H127579   7.962   2.259  17.006 -0.0572 -0.4610 -0.4254
 1128TIP3    H227580   7.852   2.231  17.107  0.0806 -0.7047 -0.3425
 1129TIP3   OH227581   3.703   5.229  18.691 -0.1260 -0.0286  0.3035
 1129TIP3    H127582   3.642   5.180  18.637 -0.7414  0.4819  0.5282
 1129TIP3    H227583   3.743   5.164  18.748  0.6745 -0.6142 -0.8812
 1130TIP3   OH227584   2.822   6.781  17.369 -0.0457  0.1308  0.4696
 1130TIP3    H127585   2.850   6.859  17.321 -0.5042  0.9404  1.4788
 1130TIP3    H227586   2.757   6.813  17.432 -0.5055 -1.1224  0.6726
 1131TIP3   OH227587   7.489   6.502  17.707  0.4536 -0.0457  0.1052
 1131TIP3    H127588   7.461   6.554  17.632 -2.4916  1.4813  2.0722
 1131TIP3    H227589   7.498   6.565  17.778  2.0816 -1.5861  1.3729
 1132TIP3   OH227590   8.251   7.924  17.008 -0.2066  0.2208  0.4602
 1132TIP3    H127591   8.238   7.867  17.084  1.5172 -0.5331  0.2485
 1132TIP3    H227592   8.341   7.956  17.018 -0.8598  2.2795  0.1254
 1133TIP3   OH227593   2.556   2.977  17.627  0.2474  0.0792 -0.3205
 1133TIP3    H127594   2.538   3.038  17.555 -0.5576  1.0482  0.6690
 1133TIP3    H227595   2.509   2.898  17.603 -0.3188  0.5175 -0.6891
 1134TIP3   OH227596   4.950   7.887  17.055 -0.0928  0.3006  0.2550
 1134TIP3    H127597   4.940   7.793  17.065  1.0280  0.0975 -0.3790
 1134TIP3    H227598   4.870   7.916  17.011 -0.6909 -0.2505  0.9527
 1135TIP3   OH227599   7.203   5.904  17.652  0.3694 -0.1442 -0.2391
 1135TIP3    H127600   7.135   5.968  17.671  0.4728  0.3358 -1.4344
 1135TIP3    H227601   7.256   5.902  17.732 -1.5858 -1.2897  1.1292
 1136TIP3   OH227602   0.905   5.621  17.046 -0.1086  0.2553 -0.2178
 1136TIP3    H127603   0.956   5.674  16.984  0.3346  0.2969  0.1793
 1136TIP3    H227604   0.943   5.533  17.039  0.2806  0.3713  0.3572
 1137TIP3   OH227605   5.793   6.909  18.119 -0.3029  0.2202 -0.1808
 1137TIP3    H127606   5.826   6.842  18.178  1.4061  0.4526 -0.8213
 1137TIP3    H227607   5.700   6.917  18.140  0.1597 -0.0214  2.1335
 1138TIP3   OH227608   0.094   6.357  17.851  0.5672 -0.2400  0.3913
 1138TIP3    H127609   0.129   6.400  17.930  3.0558  0.6614 -1.0634
 1138TIP3    H227610   0.140   6.273  17.847 -0.2467 -0.6915  0.3720
 1139TIP3   OH227611   7.819   1.150  18.147  0.1483  0.1689  0.2166
 1139TIP3    H127612   7.780   1.119  18.065 -0.4437  0.2074  0.4796
 1139TIP3    H227613   7.811   1.245  18.143 -0.8309  0.1210  0.7762
 1140TIP3   OH227614   3.920   3.448  18.166  0.1164 -0.4868 -0.0336
 1140TIP3    H127615   3.829   3.440  18.194  0.2968 -1.5616  0.2708
 1140TIP3    H227616   3.928   3.540  18.138 -1.6140 -0.8419 -1.9930
 1141TIP3   OH227617   8.171   8.154  18.664  0.7432 -0.1443  0.3133
 1141TIP3    H127618   8.212   8.093  18.725 -0.4376 -0.4978  0.7720
 1141TIP3    H227619   8.183   8.113  18.578  1.1238 -0.3681  0.4703
 1142TIP3   OH227620   7.074   5.400  17.633  0.4351  0.1377  0.5206
 1142TIP3    H127621   7.015   5.434  17.565  1.5704 -0.3411 -0.7605
 1142TIP3    H227622   7.123   5.476  17.663 -0.5754  0.4811  1.3605
 1143TIP3   OH227623   5.854   4.394  18.843  0.1729  0.6139 -0.2991
 1143TIP3    H127624   5.822   4.369  18.930  0.6304  1.5379  0.1420
 1143TIP3    H227625   5.813   4.478  18.825  1.7490  1.4782 -0.0295
 1144TIP3   OH227626   3.995   4.940  18.323 -0.7317 -0.0655  0.0422
 1144TIP3    H127627   3.943   4.943  18.404 -1.4300 -1.4539 -0.3253
 1144TIP3    H227628   4.070   4.884  18.345 -0.6062  0.0466 -0.0999
 1145TIP3   OH227629   3.438   1.382  18.154  0.5198 -0.0478 -1.0865
 1145TIP3    H127630   3.398   1.439  18.220  0.6051 -1.2764  0.0810
 1145TIP3    H227631   3.398   1.409  18.071  0.0850  1.2538 -0.4792
 1146TIP3   OH227632   1.898   0.907  18.008  0.2327  0.3567 -0.8454
 1146TIP3    H127633   1.854   0.984  18.045  0.5556  0.4987 -0.7549
 1146TIP3    H227634   1.888   0.917  17.914 -1.5455 -0.5570 -0.8087
 1147TIP3   OH227635   3.175   1.408  18.870 -0.0841  0.3637  0.2930
 1147TIP3    H127636   3.080   1.403  18.860 -0.2865  1.5917  1.3497
 1147TIP3    H227637   3.199   1.492  18.829  0.5492  0.0320 -0.0246
 1148TIP3   OH227638   7.270   7.056  17.192  0.4763 -1.2408  0.1331
 1148TIP3    H127639   7.206   7.061  17.121  0.2580 -3.1567  0.1556
 1148TIP3    H227640   7.226   7.099  17.266  1.2472  2.0865 -1.1330
 1149TIP3   OH227641   1.702   2.695  17.572  0.2696 -0.3710 -0.5472
 1149TIP3    H127642   1.649   2.758  17.524  0.4024 -0.6732 -1.0900
 1149TIP3    H227643   1.640   2.628  17.600  0.5481 -1.4571 -2.3736
 1150TIP3   OH227644   6.020   0.644  16.777 -0.1539 -0.7673 -0.3875
 1150TIP3    H127645   6.012   0.585  16.702  0.0411 -1.2975  0.0030
 1150TIP3    H227646   5.932   0.649  16.813 -0.4968  0.4143 -1.3319
 1151TIP3   OH227647   2.736   7.052  18.722 -0.7238 -0.1956  0.1841
 1151TIP3    H127648   2.811   7.090  18.675 -0.8370  0.9200  0.8527
 1151TIP3    H227649   2.673   7.031  18.653  0.1073 -0.9521 -0.3682
 1152TIP3   OH227650   8.429   0.329  18.598 -0.1288  0.0370  0.3677
 1152TIP3    H127651   8.358   0.357  18.656 -1.2431  1.7902 -1.7132
 1152TIP3    H227652   8.390   0.260  18.545  0.4701 -0.6055  0.7452
 1153TIP3   OH227653   7.749   8.199  17.004 -0.3601 -0.1247 -0.6174
 1153TIP3    H127654   7.815   8.138  17.037 -0.4033 -0.1654 -0.6065
 1153TIP3    H227655   7.800   8.272  16.968 -0.3195  0.1383 -0.0421
 1154TIP3   OH227656   6.896   0.257  17.430  0.3006 -0.2822  0.1311
 1154TIP3    H127657   6.802   0.255  17.411  0.1511  1.0730  0.6683
 1154TIP3    H227658   6.902   0.236  17.523  0.3883  1.1581  0.4702
 1155TIP3   OH227659   6.833   2.599  17.867 -0.5252  0.1058 -0.2130
 1155TIP3    H127660   6.844   2.516  17.914 -0.2984  0.3256  0.1267
 1155TIP3    H227661   6.845   2.666  17.934  0.5749  0.4391 -0.7252
 1156TIP3   OH227662   1.290   4.901  16.823  0.3646  0.1482  0.2996
 1156TIP3    H127663   1.311   4.808  16.820  1.1489  0.3549 -1.9967
 1156TIP3    H227664   1.194   4.904  16.818  0.2346 -0.5423  1.8991
 1157TIP3   OH227665   1.534   6.099  17.563 -0.4442  0.3443  0.8594
 1157TIP3    H127666   1.622   6.130  17.583 -0.5399  0.9551  0.3708
 1157TIP3    H227667   1.478   6.176  17.570 -0.6255  0.3963 -0.7652
 1158TIP3   OH227668   0.571   4.860  18.007 -0.3412  0.1739  0.2518
 1158TIP3    H127669   0.593   4.928  18.071  1.2453 -1.5077  1.5911
 1158TIP3    H227670   0.485   4.886  17.974 -0.1188  2.4186  1.2564
 1159TIP3   OH227671   1.935   6.265  18.162 -0.0787  0.3400 -0.1780
 1159TIP3    H127672   1.881   6.215  18.222 -0.5275 -0.6257 -1.3523
 1159TIP3    H227673   1.979   6.330  18.218 -0.5354 -0.4622  1.1594
 1160TIP3   OH227674   8.243   0.267  18.920 -0.2806  0.0977  0.0751
 1160TIP3    H127675   8.158   0.288  18.958 -0.1867 -1.5093  1.3092
 1160TIP3    H227676   8.301   0.256  18.996  0.2466 -1.9276 -0.5653
 1161TIP3   OH227677   6.914   4.994  17.158 -0.6021 -0.0915  0.4663
 1161TIP3    H127678   6.943   4.905  17.179 -2.5775 -0.9504 -0.1572
 1161TIP3    H227679   6.938   5.046  17.234  1.1565 -1.0038  0.5853
 1162TIP3   OH227680   2.589   6.654  18.497 -0.1547  0.3572 -0.4426
 1162TIP3    H127681   2.644   6.688  18.426  0.7708 -0.0578  0.0611
 1162TIP3    H227682   2.519   6.606  18.452  0.8037 -0.4725 -1.0755
 1163TIP3   OH227683   4.980   5.399  17.638 -0.3973 -0.1054  0.1834
 1163TIP3    H127684   4.928   5.478  17.627 -0.5631 -0.1486  0.6328
 1163TIP3    H227685   4.960   5.345  17.562  1.0730  1.0393 -1.0848
 1164TIP3   OH227686   1.050   3.446  19.258  0.5327  0.4790  0.4422
 1164TIP3    H127687   0.955   3.433  19.264  0.7472 -1.0898  0.9885
 1164TIP3    H227688   1.080   3.445  19.349  0.9064  2.6584  0.3874
 1165TIP3   OH227689   5.472   8.043  16.877 -0.1297  0.5217 -0.1511
 1165TIP3    H127690   5.534   8.112  16.853 -0.0641  1.0982  1.5143
 1165TIP3    H227691   5.399   8.054  16.816 -0.7710  3.0478  0.9226
 1166TIP3   OH227692   7.304   5.006  18.742  0.1428  0.3275  0.4684
 1166TIP3    H127693   7.223   4.960  18.761  0.4589  0.6397  2.8218
 1166TIP3    H227694   7.293   5.037  18.652 -1.4963 -1.3146  0.0385
 1167TIP3   OH227695   6.468   5.950  19.054 -0.4059 -0.1558  0.0441
 1167TIP3    H127696   6.466   5.855  19.069 -1.3085  0.1290  2.0061
 1167TIP3    H227697   6.417   5.987  19.126 -0.4462  1.8121 -0.9323
 1168TIP3   OH227698   6.724   5.592  17.080  0.6093 -0.4941 -0.7368
 1168TIP3    H127699   6.768   5.661  17.030 -0.2809 -1.3902 -2.8633
 1168TIP3    H227700   6.751   5.511  17.037 -0.6535 -1.2597 -0.1286
 1169TIP3   OH227701   0.247   3.436  17.919 -0.0177 -0.1524 -0.2174
 1169TIP3    H127702   0.300   3.356  17.915  1.1240  0.5112  0.9833
 1169TIP3    H227703   0.169   3.410  17.967  1.2068 -0.1333  1.8816
 1170TIP3   OH227704   7.758   3.884  18.613 -0.0697 -0.4764  0.4973
 1170TIP3    H127705   7.719   3.847  18.692  0.8092  0.3860  1.3666
 1170TIP3    H227706   7.796   3.810  18.567 -0.3119 -0.9395  1.0363
 1171TIP3   OH227707   6.005   6.465  18.454 -0.1679  0.2737  0.3884
 1171TIP3    H127708   5.923   6.450  18.501  0.8934 -3.4498  1.3945
 1171TIP3    H227709   6.041   6.545  18.492 -2.9778  1.6900  0.2957
 1172TIP3   OH227710   1.713   7.372  16.684  0.2776 -0.0049 -0.3033
 1172TIP3    H127711   1.712   7.467  16.698  0.9504  0.2399 -1.6676
 1172TIP3    H227712   1.714   7.362  16.589 -1.3825 -1.4287 -0.2247
 1173TIP3   OH227713   4.478   0.745  17.577  0.1384 -0.2867  0.5915
 1173TIP3    H127714   4.495   0.784  17.491 -3.4787  0.5736  0.1100
 1173TIP3    H227715   4.417   0.673  17.559  0.2982 -0.9068  2.3334
 1174TIP3   OH227716   3.174   0.780  17.192 -0.2320  0.2825 -0.1240
 1174TIP3    H127717   3.167   0.870  17.222 -1.4694 -0.3824  1.8040
 1174TIP3    H227718   3.259   0.775  17.150  0.3481  2.0677  0.7372
 1175TIP3   OH227719   5.703   5.241  18.906 -1.3899 -0.1697 -0.8360
 1175TIP3    H127720   5.691   5.332  18.931 -1.1290 -0.1272 -0.8597
 1175TIP3    H227721   5.653   5.231  18.825 -0.8256  0.1449 -1.2295
 1176TIP3   OH227722   1.015   5.028  18.528 -0.1116 -0.2228  0.6910
 1176TIP3    H127723   1.068   5.104  18.507  1.1572 -0.9115  1.2504
 1176TIP3    H227724   1.021   5.020  18.623 -0.2004 -1.0303  0.6377
 1177TIP3   OH227725   0.042   8.072  16.994  0.4744  0.6816 -0.2396
 1177TIP3    H127726   0.007   8.154  17.029  1.1631 -0.0688  2.4386
 1177TIP3    H227727   0.136   8.089  16.983  0.1871  1.1025 -2.5332
 1178TIP3   OH227728   4.507   8.344  17.310 -0.1614  0.4187  0.0030
 1178TIP3    H127729   4.457   8.419  17.277 -1.4636 -0.8124 -0.9728
 1178TIP3    H227730   4.595   8.355  17.273 -0.8698  0.4820 -1.7544
 1179TIP3   OH227731   5.583   6.083  17.375  0.0744  0.0380 -0.3425
 1179TIP3    H127732   5.580   6.178  17.367 -0.6104  0.1454  0.8847
 1179TIP3    H227733   5.609   6.067  17.466 -0.1269 -0.9342 -0.4374
 1180TIP3   OH227734   6.309   5.266  17.766  0.3545 -0.5344  0.2139
 1180TIP3    H127735   6.335   5.357  17.751 -0.1956 -0.4765 -0.4204
 1180TIP3    H227736   6.304   5.228  17.678  0.5479 -1.1743  0.4717
 1181TIP3   OH227737   5.359   3.668  17.611  0.3586 -0.2166  0.0133
 1181TIP3    H127738   5.439   3.626  17.644  0.1749  0.4240  1.3053
 1181TIP3    H227739   5.293   3.651  17.678  0.0952  1.5095  0.2338
 1182TIP3   OH227740   8.378   6.116  19.242 -0.3858  0.3044  0.1541
 1182TIP3    H127741   8.396   6.041  19.299  0.6295  1.8281  1.9251
 1182TIP3    H227742   8.440   6.107  19.170 -0.8590 -0.9825 -0.1289
 1183TIP3   OH227743   6.736   4.308  18.863  0.2113  0.3833 -0.3870
 1183TIP3    H127744   6.699   4.247  18.800  0.9296  0.2326 -0.6690
 1183TIP3    H227745   6.830   4.292  18.861  0.2411  0.2600  0.8365
 1184TIP3   OH227746   8.016   6.062  16.476  0.0748 -0.4842 -0.1364
 1184TIP3    H127747   7.971   6.146  16.468  0.2368 -0.5520 -2.5389
 1184TIP3    H227748   7.946   5.999  16.489 -0.1582 -0.1368  0.3240
 1185TIP3   OH227749   4.916   5.287  17.372 -0.5178 -0.4583  0.6686
 1185TIP3    H127750   4.828   5.257  17.395 -1.5798  1.4980 -0.5124
 1185TIP3    H227751   4.901   5.346  17.297  1.8436 -0.3210  0.2506
 1186TIP3   OH227752   6.205   0.658  17.742  0.3080  0.1448 -0.0949
 1186TIP3    H127753   6.156   0.577  17.735 -1.9811  1.5088 -0.8268
 1186TIP3    H227754   6.249   0.668  17.657  1.1533 -0.6100  0.2342
 1187TIP3   OH227755   2.434   3.627  18.688 -0.1538 -0.0649 -0.5127
 1187TIP3    H127756   2.398   3.708  18.650  0.5628  0.1480 -0.7388
 1187TIP3    H227757   2.411   3.632  18.781 -0.4061  0.2316 -0.5891
 1188TIP3   OH227758   7.640   2.634  17.544  0.0735  0.3895  0.4152
 1188TIP3    H127759   7.732   2.642  17.516  0.0470 -0.8196 -0.0495
 1188TIP3    H227760   7.628   2.541  17.561 -1.7387  0.1197 -1.8979
 1189TIP3   OH227761   7.960   2.429  17.763  0.2596 -0.2185  0.1955
 1189TIP3    H127762   7.921   2.416  17.677 -0.9898  0.4335  0.6402
 1189TIP3    H227763   8.054   2.425  17.748  0.1351  1.7992 -1.5355
 1190TIP3   OH227764   0.869   7.133  16.874 -0.0069 -0.6859 -0.2134
 1190TIP3    H127765   0.886   7.226  16.882  2.8017 -1.1529  0.2050
 1190TIP3    H227766   0.837   7.107  16.961 -0.6015 -0.1779 -0.2718
 1191TIP3   OH227767   6.224   5.395  17.120 -0.0448 -0.2382  0.0493
 1191TIP3    H127768   6.241   5.411  17.213 -4.1358 -1.7125  1.2740
 1191TIP3    H227769   6.254   5.305  17.106 -0.4738 -0.4226  0.2918
 1192TIP3   OH227770   7.034   7.030  17.856 -0.9785 -0.0714  0.1443
 1192TIP3    H127771   6.975   7.039  17.932 -1.3363  2.6199 -0.3434
 1192TIP3    H227772   7.095   7.103  17.866 -0.6908 -0.0051 -1.8621
 1193TIP3   OH227773   1.454   5.871  18.816 -0.4545 -0.5527 -0.3421
 1193TIP3    H127774   1.523   5.886  18.880 -0.3150 -0.5443 -0.4919
 1193TIP3    H227775   1.477   5.927  18.742 -1.3907  0.5394  0.1580
 1194TIP3   OH227776   4.473   2.525  16.653  0.0376  0.2270  0.7322
 1194TIP3    H127777   4.457   2.506  16.560  0.2696  3.2786 -0.0546
 1194TIP3    H227778   4.400   2.582  16.679  0.4761  0.1797  2.1565
 1195TIP3   OH227779   5.182   5.284  18.743 -0.1139 -0.4615  0.1405
 1195TIP3    H127780   5.145   5.359  18.790  0.6759 -0.6695  1.1185
 1195TIP3    H227781   5.137   5.208  18.780 -0.5666 -0.5213 -0.5122
 1196TIP3   OH227782   7.693   4.448  17.443 -0.3034  0.3437 -1.2308
 1196TIP3    H127783   7.664   4.382  17.507  2.7449  1.0251  1.0766
 1196TIP3    H227784   7.612   4.491  17.416 -1.8378 -0.1250  2.0769
 1197TIP3   OH227785   3.335   6.432  17.608 -0.2485 -0.1064 -0.3170
 1197TIP3    H127786   3.369   6.521  17.610 -0.4230 -0.0478  1.9485
 1197TIP3    H227787   3.256   6.438  17.555 -0.2953  1.0982 -0.1442
 1198TIP3   OH227788   2.585   8.192  18.172 -0.2113  0.5843  0.7721
 1198TIP3    H127789   2.510   8.136  18.192 -0.0707  1.1711  3.3560
 1198TIP3    H227790   2.645   8.135  18.124 -2.1316  0.0186 -1.0885
 1199TIP3   OH227791   6.248   4.217  18.475 -0.1107 -0.2945 -0.0647
 1199TIP3    H127792   6.290   4.190  18.394  0.6203  0.4141  0.0604
 1199TIP3    H227793   6.278   4.307  18.488 -1.9460  0.3587 -0.1502
 1200TIP3   OH227794   4.408   3.103  17.124 -0.2198 -0.0668  0.3673
 1200TIP3    H127795   4.352   3.150  17.063 -1.6955  0.2113  1.8727
 1200TIP3    H227796   4.435   3.169  17.188  1.7086 -0.2398 -0.1945
 1201TIP3   OH227797   5.560   4.040  17.288 -0.0269 -0.3411  1.0118
 1201TIP3    H127798   5.602   3.961  17.252 -0.7423 -0.3617  0.1722
 1201TIP3    H227799   5.595   4.048  17.376  1.9396 -0.2140  0.2782
 1202TIP3   OH227800   1.706   7.404  17.454  0.1263  0.3794 -0.0969
 1202TIP3    H127801   1.647   7.370  17.520  0.0806  0.1118 -0.2721
 1202TIP3    H227802   1.733   7.327  17.404 -0.8400  0.7332 -1.1996
 1203TIP3   OH227803   6.518   2.641  16.672 -0.5759 -0.0239 -0.3760
 1203TIP3    H127804   6.501   2.561  16.623  0.5688 -0.8444  0.5210
 1203TIP3    H227805   6.478   2.710  16.619  1.9492 -0.6176 -3.3831
 1204TIP3   OH227806   6.248   6.226  16.705 -0.5509 -0.5085 -0.4823
 1204TIP3    H127807   6.235   6.156  16.641  0.2466  0.0015 -1.2240
 1204TIP3    H227808   6.265   6.304  16.652 -1.7438  0.3316  0.3219
 1205TIP3   OH227809   2.656   7.635  17.380  0.0691 -0.0978 -0.0985
 1205TIP3    H127810   2.697   7.621  17.465  1.1038  1.5917 -0.2591
 1205TIP3    H227811   2.629   7.727  17.381  0.6240  0.1323 -1.7992
 1206TIP3   OH227812   4.885   8.269  18.162  0.0219  0.1954 -0.5635
 1206TIP3    H127813   4.855   8.190  18.207  2.2866 -0.8532 -0.7323
 1206TIP3    H227814   4.805   8.310  18.130 -1.3914 -0.9092  1.3075
 1207TIP3   OH227815   1.351   0.478  17.507  0.6702  0.4492  0.6006
 1207TIP3    H127816   1.258   0.460  17.520  0.5002  1.5938  1.0478
 1207TIP3    H227817   1.369   0.447  17.418 -0.2456  0.6377  0.3379
 1208TIP3   OH227818   3.991   2.012  18.292  0.6260  0.1960 -0.5069
 1208TIP3    H127819   4.055   1.945  18.315 -0.3691 -0.9239 -0.9277
 1208TIP3    H227820   3.912   1.989  18.342  0.2561  1.0332 -0.6760
 1209TIP3   OH227821   5.376   7.889  18.500 -0.1145 -0.4684 -0.1362
 1209TIP3    H127822   5.284   7.914  18.491  0.2160  1.0497  0.3195
 1209TIP3    H227823   5.418   7.925  18.421  0.6391  1.9245  1.2471
 1210TIP3   OH227824   5.832   6.973  16.797 -0.2671 -0.2663 -0.1378
 1210TIP3    H127825   5.912   6.921  16.808  1.3210  2.0125 -0.2837
 1210TIP3    H227826   5.787   6.931  16.723  0.5068 -1.8883  0.2544
 1211TIP3   OH227827   4.228   8.207  16.846  0.1651 -0.1379  0.0346
 1211TIP3    H127828   4.165   8.212  16.774 -0.0820  1.4642  0.3176
 1211TIP3    H227829   4.295   8.146  16.816 -0.3716 -0.1458 -1.1959
 1212TIP3   OH227830   5.746   4.855  18.654 -0.3789  0.1125  0.2081
 1212TIP3    H127831   5.706   4.941  18.647  1.1006  0.8689  0.5136
 1212TIP3    H227832   5.741   4.819  18.566 -2.0113  0.0240  0.3205
 1213TIP3   OH227833   7.942   2.276  18.888  0.2443  0.0700 -0.6678
 1213TIP3    H127834   7.872   2.218  18.855  0.8352  0.1508 -2.1593
 1213TIP3    H227835   7.896   2.346  18.933 -0.4959 -1.6774  1.4898
 1214TIP3   OH227836   6.185   1.865  17.147 -0.0443  0.0523 -0.1973
 1214TIP3    H127837   6.123   1.818  17.091 -0.7500  2.0074 -1.1378
 1214TIP3    H227838   6.265   1.872  17.094  0.0535 -0.0686 -0.0662
 1215TIP3   OH227839   6.236   5.014  16.489  0.4774 -0.1745  0.2041
 1215TIP3    H127840   6.156   4.964  16.477 -0.4807  1.6370 -1.6556
 1215TIP3    H227841   6.306   4.955  16.461 -0.7474 -0.0652 -3.6809
 1216TIP3   OH227842   3.699   6.968  16.782  0.2521  0.0617 -0.0182
 1216TIP3    H127843   3.730   6.900  16.841  0.9142  1.8036  1.7559
 1216TIP3    H227844   3.621   6.932  16.741  1.0464 -2.0413  0.2184
 1217TIP3   OH227845   0.294   8.308  17.720 -0.2718 -0.2652 -0.3691
 1217TIP3    H127846   0.369   8.352  17.760  1.0729 -0.2596 -2.7296
 1217TIP3    H227847   0.322   8.217  17.709 -1.7572 -0.9875  1.3553
 1218TIP3   OH227848   6.886   5.269  18.836 -0.5523  0.0635  0.5690
 1218TIP3    H127849   6.979   5.291  18.837  0.1941 -2.6256 -0.6150
 1218TIP3    H227850   6.879   5.198  18.772 -3.5095  0.4786  0.3057
 1219TIP3   OH227851   5.106   5.903  17.484 -0.0626  0.2188  0.0771
 1219TIP3    H127852   5.176   5.925  17.422  1.0877  1.1452  1.6258
 1219TIP3    H227853   5.153   5.876  17.563 -1.4845 -2.0274  0.2281
 1220TIP3   OH227854   4.007   7.445  18.209 -0.3781 -0.3722  0.5618
 1220TIP3    H127855   3.994   7.501  18.132  1.4447 -0.3530  0.2155
 1220TIP3    H227856   4.046   7.503  18.274  0.5327 -0.9738  0.5674
 1221TIP3   OH227857   0.626   3.725  18.214  0.0212  0.1116  0.4388
 1221TIP3    H127858   0.718   3.735  18.193 -0.2464  0.8208 -0.4351
 1221TIP3    H227859   0.617   3.633  18.240  0.5336 -0.6403 -1.8020
 1222TIP3   OH227860   5.350   2.646  17.091  0.4377 -0.4020 -0.4344
 1222TIP3    H127861   5.404   2.725  17.082 -0.6963  0.4584 -0.0005
 1222TIP3    H227862   5.261   2.680  17.101 -0.1963 -1.7780 -1.2003
 1223TIP3   OH227863   3.553   6.943  18.213  0.0870  0.1930 -0.1587
 1223TIP3    H127864   3.505   6.894  18.147  1.3724 -0.4326 -0.6558
 1223TIP3    H227865   3.622   6.988  18.164  0.1931  0.8485  0.5712
 1224TIP3   OH227866   5.085   0.608  17.044 -0.0997 -0.1958  0.0278
 1224TIP3    H127867   5.173   0.620  17.009 -0.3837 -0.0447 -0.6591
 1224TIP3    H227868   5.029   0.601  16.966 -0.9230  1.3742  0.4375
 1225TIP3   OH227869   7.565   1.984  18.660 -0.5754 -0.4086  0.4542
 1225TIP3    H127870   7.598   1.946  18.578  0.1526  1.6599 -0.2795
 1225TIP3    H227871   7.640   2.033  18.695 -0.8282 -1.3375  2.4736
 1226TIP3   OH227872   8.116   7.955  17.268 -0.1135  0.1803  0.1594
 1226TIP3    H127873   8.041   7.901  17.292  0.1455  0.0920  0.7755
 1226TIP3    H227874   8.184   7.934  17.332 -0.1194  1.4918  0.6347
 1227TIP3   OH227875   5.489   7.813  17.900 -0.3633  0.6914 -0.1542
 1227TIP3    H127876   5.563   7.803  17.840 -1.4304 -1.8988 -1.1871
 1227TIP3    H227877   5.528   7.810  17.987  0.9229  1.3094 -0.6880
 1228TIP3   OH227878   0.189   5.198  19.204  0.0706  0.0818 -0.1656
 1228TIP3    H127879   0.113   5.191  19.263  0.8269  1.5359  1.0443
 1228TIP3    H227880   0.225   5.285  19.221  2.8669 -1.0637  0.3500
 1229TIP3   OH227881   8.206   4.928  17.192 -0.1774  0.0521 -0.1553
 1229TIP3    H127882   8.216   4.924  17.097  0.6259  0.6516 -0.1107
 1229TIP3    H227883   8.218   5.021  17.214 -0.9319  0.0149  0.4787
 1230TIP3   OH227884   6.549   3.622  16.836  0.0016  0.7439  0.4080
 1230TIP3    H127885   6.512   3.709  16.819 -0.3380  0.5539  0.1677
 1230TIP3    H227886   6.485   3.561  16.799 -0.7108  0.3129  2.2243
 1231TIP3   OH227887   4.947   5.805  17.730  0.2283 -0.4700  0.0199
 1231TIP3    H127888   4.946   5.736  17.797  0.6134 -0.2600  0.2421
 1231TIP3    H227889   5.040   5.818  17.711  0.1783  0.3350  0.3264
 1232TIP3   OH227890   4.210   7.309  18.011 -0.4719  0.1013  0.1636
 1232TIP3    H127891   4.256   7.377  18.060  0.6525  0.0499 -0.7980
 1232TIP3    H227892   4.185   7.350  17.929  0.9441 -0.8345 -0.7843
 1233TIP3   OH227893   4.928   1.122  18.447  0.1644 -0.3545 -0.4470
 1233TIP3    H127894   4.945   1.060  18.518 -0.5939  0.4536  0.4865
 1233TIP3    H227895   4.837   1.104  18.421  0.2327 -0.2280 -0.7809
 1234TIP3   OH227896   7.175   4.866  19.300 -0.0908 -0.0236  0.1749
 1234TIP3    H127897   7.230   4.860  19.222 -0.6185 -1.7276 -0.1073
 1234TIP3    H227898   7.097   4.814  19.279 -1.0874  1.0050  1.1601
 1235TIP3   OH227899   1.075   3.060  18.691  0.1552  0.0885  0.4332
 1235TIP3    H127900   1.156   3.027  18.731  0.4355  0.6315  0.3285
 1235TIP3    H227901   1.095   3.152  18.671  0.0030 -0.1591 -0.9062
 1236TIP3   OH227902   1.609   8.379  18.676  0.6646  0.3526 -0.0327
 1236TIP3    H127903   1.543   8.322  18.716 -0.8831  1.4319 -0.9305
 1236TIP3    H227904   1.640   8.434  18.748 -0.8331  1.1118  0.0671
 1237TIP3   OH227905   7.172   0.173  16.722  0.5594  0.1934  0.2216
 1237TIP3    H127906   7.163   0.082  16.696  0.5156  0.6535 -1.4758
 1237TIP3    H227907   7.261   0.179  16.757  0.7032 -0.4115 -0.0323
 1238TIP3   OH227908   3.231   5.915  17.316 -0.0301 -0.9641  0.3902
 1238TIP3    H127909   3.229   6.002  17.356 -1.0535  0.6356 -2.8034
 1238TIP3    H227910   3.142   5.881  17.326 -0.0564 -0.9468  0.2110
 1239TIP3   OH227911   7.116   4.552  18.210 -0.5551 -0.1526  0.0440
 1239TIP3    H127912   7.042   4.608  18.236  0.7843  1.4687  0.5304
 1239TIP3    H227913   7.194   4.603  18.231  0.7162 -0.7151 -2.7565
 1240TIP3   OH227914   2.679   3.097  18.629 -0.1300  0.0551 -0.3614
 1240TIP3    H127915   2.637   3.015  18.604 -0.5342 -0.1363  0.8435
 1240TIP3    H227916   2.607   3.160  18.636  0.1298  0.4128 -0.9148
 1241TIP3   OH227917   4.597   7.079  17.718  0.0407  0.2121 -0.0553
 1241TIP3    H127918   4.583   7.159  17.668 -1.2799  0.1282  0.1489
 1241TIP3    H227919   4.661   7.030  17.667  1.9521  1.9565  0.4811
 1242TIP3   OH227920   2.680   1.414  18.516 -0.7661  0.2365 -0.7948
 1242TIP3    H127921   2.763   1.461  18.511 -0.4491  0.5215  3.5263
 1242TIP3    H227922   2.614   1.479  18.491 -0.0232  1.8617  1.1931
 1243TIP3   OH227923   5.842   5.166  18.376  0.3176 -0.1021 -0.2308
 1243TIP3    H127924   5.778   5.133  18.440  1.3901 -0.7284  0.5595
 1243TIP3    H227925   5.850   5.259  18.395 -1.2183  0.2318 -1.1166
 1244TIP3   OH227926   0.304   3.890  17.889  0.3954 -0.3142 -0.1373
 1244TIP3    H127927   0.356   3.891  17.969 -1.4934 -0.3818  1.1510
 1244TIP3    H227928   0.324   3.805  17.849 -0.5843 -1.4557  1.6561
 1245TIP3   OH227929   5.909   7.198  16.938  0.2176 -0.4112  0.0668
 1245TIP3    H127930   5.832   7.251  16.961  0.2844 -0.3905  0.2434
 1245TIP3    H227931   5.875   7.133  16.877  0.4608  0.9090 -1.5605
 1246TIP3   OH227932   5.433   8.343  18.155 -0.1938  0.6236  0.2797
 1246TIP3    H127933   5.347   8.304  18.138 -0.4472  1.6019 -0.8084
 1246TIP3    H227934   5.417   8.438  18.152  0.6381  0.8454  1.6138
 1247TIP3   OH227935   1.638   3.912  18.445 -0.0566  0.7375  0.3253
 1247TIP3    H127936   1.652   3.944  18.535 -1.4720  1.8426  0.1853
 1247TIP3    H227937   1.549   3.941  18.423  0.1900  0.2924 -1.3595
 1248TIP3   OH227938   8.073   1.839  17.567 -0.1800  0.0102  0.1781
 1248TIP3    H127939   8.097   1.756  17.525  0.2420 -0.6366  1.6197
 1248TIP3    H227940   8.149   1.896  17.553  0.4912 -0.6221  1.1073
 1249TIP3   OH227941   5.060   2.944  17.902  0.2701  0.2804 -0.0429
 1249TIP3    H127942   5.042   2.976  17.813 -1.4809  1.7210  0.7597
 1249TIP3    H227943   4.978   2.904  17.930  1.6094 -2.6637 -0.0042
 1250TIP3   OH227944   3.815   5.203  18.008  0.3556 -0.1953 -0.0414
 1250TIP3    H127945   3.820   5.159  18.093  0.1875  0.3717  0.2675
 1250TIP3    H227946   3.833   5.295  18.027 -0.7249  0.1208 -0.4476
 1251TIP3   OH227947   2.540   1.124  17.253 -0.4048 -0.7750 -0.0125
 1251TIP3    H127948   2.448   1.150  17.252  0.0541  1.1622 -2.0159
 1251TIP3    H227949   2.558   1.097  17.162  1.4066  0.7992 -0.2142
 1252TIP3   OH227950   1.495   5.185  18.369  0.3474  0.2749 -0.5153
 1252TIP3    H127951   1.404   5.205  18.345 -0.1975 -0.5699  0.7815
 1252TIP3    H227952   1.527   5.265  18.411 -0.2189  0.1428  0.1790
 1253TIP3   OH227953   3.265   1.141  18.239 -0.8389  0.4907  0.7150
 1253TIP3    H127954   3.223   1.213  18.286 -2.3307  1.5640 -2.0160
 1253TIP3    H227955   3.260   1.166  18.146 -0.1307 -2.4848 -0.2602
 1254TIP3   OH227956   5.872   5.662  17.809 -0.2950 -0.2245 -0.2002
 1254TIP3    H127957   5.899   5.570  17.811  2.7519  0.5551  2.6987
 1254TIP3    H227958   5.791   5.664  17.861 -0.5633 -1.2862 -0.5487
 1255TIP3   OH227959   2.314   0.265  17.798 -0.2580  0.5243  0.4456
 1255TIP3    H127960   2.237   0.244  17.850 -2.2171  0.8330 -2.1468
 1255TIP3    H227961   2.281   0.275  17.709  2.7832  0.7730 -0.7739
 1256TIP3   OH227962   1.430   7.171  18.253  0.3195  0.4956 -0.0751
 1256TIP3    H127963   1.397   7.207  18.335  2.6741  0.6798  0.8851
 1256TIP3    H227964   1.379   7.214  18.185 -0.7811  1.3521  1.2557
 1257TIP3   OH227965   4.377   8.246  18.091 -0.1065 -0.0888 -0.0608
 1257TIP3    H127966   4.426   8.212  18.166 -1.6094  2.2550  2.1571
 1257TIP3    H227967   4.352   8.335  18.117 -1.7450  0.3955 -2.8851
 1258TIP3   OH227968   3.814   3.512  18.727 -0.1124  0.5372 -0.3574
 1258TIP3    H127969   3.830   3.422  18.698 -0.0568  0.5757 -0.4486
 1258TIP3    H227970   3.897   3.540  18.767  1.6702  2.2181 -4.6026
 1259TIP3   OH227971   1.005   5.965  17.132  0.2910 -0.2965  0.0134
 1259TIP3    H127972   1.012   5.897  17.064 -0.5774 -1.1936  0.7917
 1259TIP3    H227973   0.996   5.916  17.214  0.9962  0.7749  0.7497
 1260TIP3   OH227974   3.396   0.385  17.586 -0.0703 -0.4809  0.6239
 1260TIP3    H127975   3.455   0.359  17.515  0.4150  0.2542  0.7478
 1260TIP3    H227976   3.359   0.468  17.557 -0.8100 -0.7784  0.6927
 1261TIP3   OH227977   2.647   4.844  17.823 -0.2554 -0.4432 -0.1410
 1261TIP3    H127978   2.641   4.774  17.758  0.5193  0.0889 -0.8130
 1261TIP3    H227979   2.680   4.802  17.902  1.5598 -0.6381 -0.9408
 1262TIP3   OH227980   0.205   6.583  18.554 -0.7393  0.1387 -0.5167
 1262TIP3    H127981   0.257   6.622  18.624 -1.3448 -0.5930  0.3589
 1262TIP3    H227982   0.141   6.529  18.599  0.7813 -2.8455 -1.6629
 1263TIP3   OH227983   3.571   7.461  18.371 -0.1340  0.0472  0.2625
 1263TIP3    H127984   3.628   7.395  18.412  0.3986  1.1617  1.4146
 1263TIP3    H227985   3.501   7.411  18.331  0.2389 -1.2237  1.1289
 1264TIP3   OH227986   1.534   4.551  18.699 -0.5670  0.0610 -0.0742
 1264TIP3    H127987   1.623   4.548  18.732  0.2652  1.5682 -1.9491
 1264TIP3    H227988   1.519   4.643  18.678 -2.1919 -0.3109 -0.7697
 1265TIP3   OH227989   0.457   5.721  16.882  0.1472  0.2124  0.0550
 1265TIP3    H127990   0.507   5.646  16.916 -0.9620 -0.3574  0.4622
 1265TIP3    H227991   0.382   5.682  16.837  0.4156  1.0405 -1.1696
 1266TIP3   OH227992   3.903   4.261  17.448 -0.3195 -0.2424  0.0741
 1266TIP3    H127993   3.958   4.295  17.519  1.5690  1.3795 -2.0427
 1266TIP3    H227994   3.814   4.287  17.473  0.2824  0.3458  1.7728
 1267TIP3   OH227995   4.304   8.426  18.256 -0.1310 -0.4143 -0.1770
 1267TIP3    H127996   4.360   8.503  18.256 -1.3254  0.4945 -0.9509
 1267TIP3    H227997   4.215   8.461  18.260 -0.7878 -1.6471 -2.2996
 1268TIP3   OH227998   1.093   1.019  18.728  0.0018  0.0911  0.3413
 1268TIP3    H127999   1.019   0.958  18.719  0.2635 -0.2667  0.5835
 1268TIP3    H228000   1.094   1.041  18.821 -0.0724  0.4468  0.2600
 1269TIP3   OH228001   1.740   0.460  18.093 -0.5051 -0.0149  0.9675
 1269TIP3    H128002   1.672   0.476  18.159 -0.6874  3.0077  0.1620
 1269TIP3    H228003   1.796   0.537  18.097  1.6043 -1.4125  0.0187
 1270TIP3   OH228004   3.421   6.738  18.000 -0.5373 -0.4874 -0.2708
 1270TIP3    H128005   3.481   6.778  17.936  0.4649 -0.9987  0.3220
 1270TIP3    H228006   3.395   6.656  17.960  0.1779 -0.8593  0.0025
 1271TIP3   OH228007   0.387   4.433  19.356 -0.4406  0.1868  0.3263
 1271TIP3    H128008   0.330   4.418  19.432 -1.5511  0.4713 -0.4313
 1271TIP3    H228009   0.378   4.355  19.302 -0.6539  0.5227 -0.1321
 1272TIP3   OH228010   3.731   4.870  16.949  0.7153  0.3568  0.0564
 1272TIP3    H128011   3.652   4.876  16.896  0.0486 -1.8850  0.6702
 1272TIP3    H228012   3.799   4.842  16.888  0.4616 -0.0245 -0.0586
 1273TIP3   OH228013   3.749   6.189  17.576  0.1432 -0.6256  0.9478
 1273TIP3    H128014   3.688   6.187  17.650 -0.1917 -0.5498  0.6773
 1273TIP3    H228015   3.754   6.281  17.552 -1.8958 -0.9125 -0.8647
 1274TIP3   OH228016   4.817   0.806  16.685 -0.4735  0.5274 -0.2792
 1274TIP3    H128017   4.806   0.848  16.770  1.2990 -0.9103  0.7384
 1274TIP3    H228018   4.728   0.778  16.660 -1.1935  2.0530  0.4799
 1275TIP3   OH228019   7.528   3.698  19.096 -0.1974 -0.2150  0.1221
 1275TIP3    H128020   7.555   3.712  19.187 -0.7665 -0.5541  0.3461
 1275TIP3    H228021   7.441   3.738  19.090 -1.7205 -3.1695  0.6720
 1276TIP3   OH228022   5.644   2.050  17.416  0.3697 -0.6667  0.7978
 1276TIP3    H128023   5.570   2.089  17.369 -0.1183 -1.6668  0.7077
 1276TIP3    H228024   5.700   2.124  17.437 -0.8307  0.1668  1.1797
 1277TIP3   OH228025   1.953   4.366  18.748  0.3810  0.3371 -0.1541
 1277TIP3    H128026   1.870   4.322  18.764  0.1751  1.0559  0.8081
 1277TIP3    H228027   1.942   4.405  18.661 -0.5237  0.9240  0.2067
 1278TIP3   OH228028   6.045   3.260  18.200 -0.3416 -0.2647  0.4630
 1278TIP3    H128029   6.126   3.250  18.250 -0.8769 -3.0464  0.9707
 1278TIP3    H228030   6.013   3.347  18.223  1.0856 -0.2040  2.4606
 1279TIP3   OH228031   1.223   5.119  18.307 -0.2875  0.5469 -0.1851
 1279TIP3    H128032   1.216   5.203  18.262  1.3661  0.8669  0.0869
 1279TIP3    H228033   1.251   5.058  18.240 -3.0449 -0.2312 -0.7728
 1280TIP3   OH228034   7.862   6.560  16.886  0.2983  0.1082  0.7411
 1280TIP3    H128035   7.928   6.622  16.855  1.0296  0.0268  2.0664
 1280TIP3    H228036   7.808   6.610  16.946 -1.7855  0.5515 -1.3687
 1281TIP3   OH228037   0.892   6.304  18.094 -0.3772  0.5757 -0.4365
 1281TIP3    H128038   0.846   6.251  18.158 -0.3010  1.4104  0.3259
 1281TIP3    H228039   0.933   6.240  18.035 -0.3786 -0.2016  0.3854
 1282TIP3   OH228040   1.043   8.431  17.115 -0.5910  0.0262 -0.1219
 1282TIP3    H128041   1.031   8.476  17.198  0.6406  0.4177 -0.1404
 1282TIP3    H228042   0.996   8.485  17.051 -0.9878  0.0760  0.2118
 1283TIP3   OH228043   3.524   8.431  17.499 -0.1616  0.4507  0.1596
 1283TIP3    H128044   3.552   8.452  17.588 -0.0415  0.2420  0.1722
 1283TIP3    H228045   3.530   8.513  17.451  0.5888  0.3833  0.1298
 1284TIP3   OH228046   1.334   3.488  18.615 -0.2579  0.5951  0.1514
 1284TIP3    H128047   1.387   3.537  18.678 -1.3937  3.7268 -1.1548
 1284TIP3    H228048   1.248   3.529  18.619 -1.1533 -0.9941 -1.4339
 1285TIP3   OH228049   3.557   3.217  18.984 -0.5898  0.1166  0.5458
 1285TIP3    H128050   3.477   3.165  18.972  0.2215 -1.1825  0.6193
 1285TIP3    H228051   3.581   3.203  19.075 -0.4861  0.8298  0.6315
 1286TIP3   OH228052   0.299   7.361  18.653  0.1496 -0.2479  0.4134
 1286TIP3    H128053   0.342   7.345  18.570  1.7820  1.5429  0.8413
 1286TIP3    H228054   0.213   7.320  18.644  0.6209 -0.8790 -1.7857
 1287TIP3   OH228055   7.271   0.084  17.872 -0.0127 -0.0438  0.1380
 1287TIP3    H128056   7.288   0.017  17.938  0.6882  0.6546  0.6874
 1287TIP3    H228057   7.184   0.118  17.894  0.2847  0.2984  0.8091
 1288TIP3   OH228058   5.407   2.973  16.792 -0.3467  0.3719  0.1349
 1288TIP3    H128059   5.419   2.946  16.701 -0.0716  2.2901 -0.4396
 1288TIP3    H228060   5.329   2.926  16.821 -0.3942 -0.3147 -1.0671
 1289TIP3   OH228061   1.771   4.625  18.786 -0.1927  0.1321 -0.1443
 1289TIP3    H128062   1.827   4.652  18.858  0.8099 -0.4406 -0.6775
 1289TIP3    H228063   1.831   4.584  18.723 -0.7962  1.8750 -1.9660
 1290TIP3   OH228064   0.775   6.952  17.917 -0.0836 -0.0872  0.0989
 1290TIP3    H128065   0.736   6.870  17.946  2.4391 -0.5287  2.6290
 1290TIP3    H228066   0.748   7.016  17.982 -1.0214  0.8830 -1.1910
 1291TIP3   OH228067   4.798   7.231  17.862 -0.3260 -0.3614 -0.3103
 1291TIP3    H128068   4.783   7.290  17.936  0.9207  0.9008 -1.0092
 1291TIP3    H228069   4.735   7.259  17.795  2.0383  2.1595 -1.6873
 1292TIP3   OH228070   4.780   3.806  16.832 -0.1695  0.1708  0.1332
 1292TIP3    H128071   4.867   3.844  16.824  0.3133 -1.0644 -0.8672
 1292TIP3    H228072   4.738   3.856  16.902  1.2530  0.9388  0.4738
 1293TIP3   OH228073   0.240   5.079  16.740  0.5560  0.3222  0.2225
 1293TIP3    H128074   0.195   5.103  16.659  0.9908 -0.9242 -0.4054
 1293TIP3    H228075   0.182   5.110  16.809 -2.6483 -3.4154 -0.4912
 1294TIP3   OH228076   0.361   7.609  17.935  0.7861  0.5187  0.6436
 1294TIP3    H128077   0.320   7.694  17.920  0.7973  0.2155 -1.3370
 1294TIP3    H228078   0.453   7.629  17.952  0.6229  0.9450  1.0464
 1295TIP3   OH228079   2.181   1.865  16.933  0.0525  0.4927  0.4612
 1295TIP3    H128080   2.251   1.815  16.975  1.2253  3.2413  2.0770
 1295TIP3    H228081   2.103   1.846  16.985  0.1322 -0.6351  0.2018
 1296TIP3   OH228082   2.275   3.010  18.779 -0.6157 -0.0263 -0.1178
 1296TIP3    H128083   2.255   2.917  18.795  0.4950 -0.5540 -1.6275
 1296TIP3    H228084   2.358   3.024  18.825 -0.7203  0.1990  0.0021
 1297TIP3   OH228085   5.799   2.315  16.962 -0.1702 -0.0940 -0.5796
 1297TIP3    H128086   5.837   2.339  16.878  1.1924  0.9088  0.2904
 1297TIP3    H228087   5.845   2.234  16.986 -0.3398 -0.2103 -0.6407
 1298TIP3   OH228088   2.362   6.696  16.690 -0.1872  0.1569 -0.6048
 1298TIP3    H128089   2.325   6.616  16.653 -0.0496 -0.1457 -0.0961
 1298TIP3    H228090   2.294   6.762  16.676  0.2178  0.2756 -2.2085
 1299TIP3   OH228091   0.423   6.527  18.326 -0.2547  0.1687 -0.1177
 1299TIP3    H128092   0.372   6.490  18.398  0.4649  0.0258  0.3309
 1299TIP3    H228093   0.482   6.456  18.300  0.4523  0.6628  0.0869
 1300TIP3   OH228094   0.113   5.051  18.088  0.6102  0.0621  0.5750
 1300TIP3    H128095   0.139   5.083  18.174  0.9524 -1.2760  0.9915
 1300TIP3    H228096   0.101   4.957  18.100  0.0706 -0.0524 -0.7021
 1301TIP3   OH228097   8.435   6.000  17.573  0.2537 -0.0859  0.5561
 1301TIP3    H128098   8.411   5.954  17.493  1.6214  3.5068 -2.1650
 1301TIP3    H228099   8.380   6.078  17.574  2.2728  1.4241  1.4620
 1302TIP3   OH228100   7.734   0.867  17.375 -0.2444 -0.1546  0.4912
 1302TIP3    H128101   7.712   0.848  17.284  0.9585  0.0535  0.1457
 1302TIP3    H228102   7.799   0.801  17.398 -2.0216 -1.5205  1.8737
 1303TIP3   OH228103   2.591   6.421  18.646 -0.2585 -0.3400  0.2266
 1303TIP3    H128104   2.621   6.352  18.587 -0.3489 -0.0495 -0.1592
 1303TIP3    H228105   2.600   6.502  18.595  2.7588  0.3805  1.6392
 1304TIP3   OH228106   7.020   1.274  18.413 -0.6761 -0.4027 -0.2668
 1304TIP3    H128107   6.934   1.274  18.454 -0.8204  1.6881 -0.4581
 1304TIP3    H228108   7.072   1.335  18.465  0.3848 -0.8550 -0.7579
 1305TIP3   OH228109   0.822   7.139  17.715 -0.0116 -0.2533  0.3566
 1305TIP3    H128110   0.817   7.224  17.758  0.1306  0.1795 -0.4646
 1305TIP3    H228111   0.815   7.076  17.786 -0.5592  0.4393  0.9277
 1306TIP3   OH228112   2.421   3.767  17.154  0.1972 -0.4428  0.3678
 1306TIP3    H128113   2.405   3.845  17.102  2.9406 -0.2725 -0.4006
 1306TIP3    H228114   2.430   3.696  17.090  0.7519 -0.7766  0.8017
 1307TIP3   OH228115   6.027   8.412  17.103 -0.1276  0.0531  0.1684
 1307TIP3    H128116   5.934   8.398  17.118 -0.2526  0.7782  0.0975
 1307TIP3    H228117   6.043   8.375  17.016 -0.4253  0.2694  0.0209
 1308TIP3   OH228118   4.287   7.403  17.550  0.1130 -0.4583  0.3056
 1308TIP3    H128119   4.251   7.363  17.470  1.5764 -1.1836 -0.0126
 1308TIP3    H228120   4.275   7.336  17.618  1.4161 -0.9826  0.0492
 1309TIP3   OH228121   1.970   8.075  17.555 -0.3191 -0.0042 -0.0971
 1309TIP3    H128122   1.934   7.986  17.559 -2.5018  0.8053 -0.5169
 1309TIP3    H228123   2.063   8.064  17.577 -0.3671 -2.4697 -0.7971
 1310TIP3   OH228124   3.598   1.615  18.323  0.2942 -0.4094  0.0865
 1310TIP3    H128125   3.624   1.525  18.342 -1.1105 -0.8643 -0.0323
 1310TIP3    H228126   3.640   1.634  18.239  0.2009 -1.1293 -0.1299
 1311TIP3   OH228127   7.652   8.308  18.375 -0.6262  0.0981  0.2089
 1311TIP3    H128128   7.575   8.329  18.323 -1.6380  0.5698  1.8388
 1311TIP3    H228129   7.722   8.296  18.310 -2.3706 -1.9735 -1.4293
 1312TIP3   OH228130   1.745   1.034  16.940  0.4198 -0.0569  0.0293
 1312TIP3    H128131   1.756   0.953  16.891 -0.0359 -0.1106  0.0104
 1312TIP3    H228132   1.816   1.034  17.003  1.1340  0.1065 -0.7609
 1313TIP3   OH228133   0.120   4.435  19.460  0.1351 -0.1739 -0.3528
 1313TIP3    H128134   0.073   4.399  19.384  0.7456 -0.7015 -0.4861
 1313TIP3    H228135   0.058   4.424  19.533  0.4188 -1.8136 -0.3271
 1314TIP3   OH228136   4.700   7.613  17.834  0.0365  0.1217 -0.7773
 1314TIP3    H128137   4.710   7.540  17.895  1.2184  0.0420 -1.0362
 1314TIP3    H228138   4.617   7.596  17.789 -0.4484 -0.2513  0.2173
 1315TIP3   OH228139   2.594   0.800  17.057  0.1567  0.1720 -0.4808
 1315TIP3    H128140   2.685   0.788  17.085  0.5305  0.4450 -1.5254
 1315TIP3    H228141   2.597   0.876  16.998 -0.7407  0.1418 -0.5770
 1316TIP3   OH228142   7.440   5.630  18.796  0.1347 -0.4797 -0.2831
 1316TIP3    H128143   7.430   5.638  18.891  2.6267  2.3918 -0.1034
 1316TIP3    H228144   7.381   5.696  18.760  1.9913  1.2260 -0.3984
 1317TIP3   OH228145   2.788   4.138  18.532 -0.0794 -0.2207  0.4711
 1317TIP3    H128146   2.832   4.053  18.532 -0.6678 -0.5515  1.8891
 1317TIP3    H228147   2.701   4.121  18.566 -1.3608  0.4439 -2.2570
 1318TIP3   OH228148   0.136   5.479  17.300  0.2035  0.0827 -0.1859
 1318TIP3    H128149   0.120   5.474  17.394  0.2237  2.8595  0.0340
 1318TIP3    H228150   0.056   5.519  17.264  0.7596  0.3604 -1.1576
 1319TIP3   OH228151   4.781   3.767  16.571 -0.1372 -0.5940 -0.2717
 1319TIP3    H128152   4.872   3.752  16.546  0.0602  1.3814 -0.9276
 1319TIP3    H228153   4.781   3.768  16.666  0.1101 -2.7008 -0.2047
 1320TIP3   OH228154   5.849   3.761  16.698  0.0778  0.1659  0.0525
 1320TIP3    H128155   5.791   3.748  16.773  0.7806  0.6731  0.7010
 1320TIP3    H228156   5.834   3.851  16.671  1.7404  0.8674  1.2906
 1321TIP3   OH228157   3.713   3.469  17.182  0.3451  0.1529 -0.2287
 1321TIP3    H128158   3.761   3.495  17.261 -0.0692  1.2015 -0.2947
 1321TIP3    H228159   3.767   3.401  17.142 -0.0859 -1.3794  1.6365
 1322TIP3   OH228160   5.631   2.043  17.790 -0.0700  0.0360  0.0015
 1322TIP3    H128161   5.708   2.046  17.733  0.2332  1.0490  0.4359
 1322TIP3    H228162   5.578   1.971  17.756 -0.4292  1.2792 -2.2431
 1323TIP3   OH228163   0.083   5.968  16.675  0.5777  0.0678 -0.7541
 1323TIP3    H128164   0.086   5.923  16.760  1.7695 -0.2698 -0.9616
 1323TIP3    H228165   0.155   5.931  16.625  1.7841  2.3713 -0.8461
 1324TIP3   OH228166   8.143   6.930  17.278  0.1021  0.4531  0.0031
 1324TIP3    H128167   8.229   6.957  17.310 -0.0201  0.9016 -0.0405
 1324TIP3    H228168   8.102   7.012  17.249 -0.5790  0.3365  0.5969
 1325TIP3   OH228169   0.199   6.702  18.149 -0.2712 -0.4152 -0.3034
 1325TIP3    H128170   0.121   6.697  18.093 -0.2491 -2.2559 -0.2290
 1325TIP3    H228171   0.228   6.794  18.142 -1.4882 -0.0974 -1.6246
 1326TIP3   OH228172   0.737   5.557  17.573  0.3518 -0.1448 -0.2425
 1326TIP3    H128173   0.666   5.529  17.516 -0.1380  1.4422 -0.4438
 1326TIP3    H228174   0.729   5.500  17.650 -0.6670 -0.4841 -0.5789
 1327TIP3   OH228175   5.934   4.395  19.203  0.3367 -0.0145 -0.2632
 1327TIP3    H128176   6.004   4.442  19.158 -0.0428  1.0387  0.2162
 1327TIP3    H228177   5.854   4.442  19.179 -0.0738 -0.5190  0.0873
 1328TIP3   OH228178   3.590   6.313  17.759 -0.4017  0.1778 -0.6487
 1328TIP3    H128179   3.508   6.362  17.759 -0.6412 -0.1333  1.4550
 1328TIP3    H228180   3.653   6.372  17.716 -1.7264  0.3231 -2.5093
 1329TIP3   OH228181   6.873   4.973  18.862 -0.4181  0.1447  0.0800
 1329TIP3    H128182   6.848   4.882  18.849 -0.0969  0.2052 -1.1268
 1329TIP3    H228183   6.964   4.970  18.891 -0.6874  0.0570  0.9351
 1330TIP3   OH228184   4.543   4.562  17.394 -0.2970 -0.1255 -0.2616
 1330TIP3    H128185   4.572   4.587  17.482  0.3927 -0.5351 -0.3611
 1330TIP3    H228186   4.589   4.622  17.336  0.0698 -0.5337 -0.3998
 1331TIP3   OH228187   1.355   1.902  18.200 -0.2399 -0.6649  0.1760
 1331TIP3    H128188   1.319   1.815  18.184 -1.2669 -0.0994 -0.8246
 1331TIP3    H228189   1.396   1.896  18.286 -1.4479 -1.7808  0.7192
 1332TIP3   OH228190   6.445   8.275  18.059 -0.2729  0.1888 -0.7922
 1332TIP3    H128191   6.478   8.363  18.073  2.3053 -0.7672 -0.4294
 1332TIP3    H228192   6.416   8.246  18.146  3.8000 -1.1026  0.3635
 1333TIP3   OH228193   5.918   3.972  17.167  0.5784  0.8038 -0.0442
 1333TIP3    H128194   5.838   3.921  17.156 -0.0274  1.6859  0.1150
 1333TIP3    H228195   5.956   3.940  17.249  0.8250 -0.1731 -0.5249
 1334TIP3   OH228196   5.715   5.378  17.369  0.3277  0.0031 -0.2936
 1334TIP3    H128197   5.783   5.313  17.354  1.9300  1.8961 -1.7045
 1334TIP3    H228198   5.754   5.440  17.431 -1.6846 -1.0032  2.1689
 1335TIP3   OH228199   0.361   4.181  19.219 -0.6585 -0.8757  0.0645
 1335TIP3    H128200   0.344   4.255  19.160  0.2437 -1.0745 -0.4757
 1335TIP3    H228201   0.275   4.144  19.237 -1.1743  0.4979  0.6094
 1336TIP3   OH228202   7.338   2.532  18.376 -0.1099  0.0355  0.3506
 1336TIP3    H128203   7.279   2.461  18.353  0.1812 -0.6223  1.5490
 1336TIP3    H228204   7.281   2.608  18.389 -0.6712 -0.5225  1.2119
 1337TIP3   OH228205   6.485   5.423  19.130 -0.5517  0.0489 -0.0418
 1337TIP3    H128206   6.401   5.437  19.086  0.6499  2.4155 -1.8481
 1337TIP3    H228207   6.546   5.403  19.059  0.6234 -0.6630  1.1297
 1338TIP3   OH228208   6.010   4.057  16.885  0.4374 -0.1861  0.2035
 1338TIP3    H128209   5.978   4.020  16.967 -0.5140  1.4435  0.6162
 1338TIP3    H228210   5.931   4.069  16.832  0.6889  1.3275  0.1341
 1339TIP3   OH228211   5.950   6.086  17.163  0.0460  0.1009  0.2048
 1339TIP3    H128212   5.897   6.011  17.189  1.3602 -0.9936 -0.1570
 1339TIP3    H228213   6.004   6.105  17.240  0.5678 -0.1010 -0.1069
 1340TIP3   OH228214   5.495   0.971  17.199  0.3468  0.4358  0.0936
 1340TIP3    H128215   5.439   0.897  17.174  0.3427  0.2694  0.5902
 1340TIP3    H228216   5.436   1.031  17.245  0.7533 -0.1473  1.4083
 1341TIP3   OH228217   5.365   1.175  17.356  0.1993 -0.8467 -0.2734
 1341TIP3    H128218   5.303   1.154  17.425  1.3148 -0.2579  0.9588
 1341TIP3    H228219   5.440   1.213  17.402  0.6160  0.3975 -1.8849
 1342TIP3   OH228220   1.839   5.096  18.580 -0.7022  0.7572  0.7421
 1342TIP3    H128221   1.887   5.114  18.499 -1.7974 -0.7092 -0.2668
 1342TIP3    H228222   1.882   5.019  18.617  0.1979  1.7842  1.9436
 1343TIP3   OH228223   4.846   2.331  17.923 -0.1505  0.0332  0.2339
 1343TIP3    H128224   4.765   2.301  17.881 -0.8884  0.5171  1.2499
 1343TIP3    H228225   4.852   2.423  17.898 -1.0269  0.5402  1.7858
 1344TIP3   OH228226   6.008   3.024  17.230 -0.2436 -0.1101  0.0459
 1344TIP3    H128227   5.952   3.064  17.297 -2.1517 -2.6649  0.1287
 1344TIP3    H228228   6.020   3.093  17.164 -0.5375  1.6125  1.6853
 1345TIP3   OH228229   6.973   5.789  17.264  0.0291  0.0937  0.1533
 1345TIP3    H128230   6.939   5.825  17.346  0.4423 -0.8174  0.7450
 1345TIP3    H228231   7.056   5.834  17.251 -0.0777  0.3017  0.1937
 1346TIP3   OH228232   4.247   0.769  16.721 -0.0574 -0.2013 -0.0946
 1346TIP3    H128233   4.234   0.847  16.666  1.4953  1.5640  1.8392
 1346TIP3    H228234   4.167   0.762  16.772 -2.1791 -2.7708 -3.4017
 1347TIP3   OH228235   5.635   2.518  17.650  0.2541  0.1941  0.0224
 1347TIP3    H128236   5.655   2.606  17.619 -0.1446 -0.1103 -1.1821
 1347TIP3    H228237   5.637   2.464  17.570 -0.5978 -0.6890  0.5763
 1348TIP3   OH228238   4.961   4.414  17.631 -0.5086 -0.1396 -0.2506
 1348TIP3    H128239   5.023   4.356  17.675 -0.6020 -0.4455 -0.5139
 1348TIP3    H228240   4.881   4.408  17.684 -0.2110  0.5328  0.2947
 1349TIP3   OH228241   0.837   2.361  18.606  0.0417 -0.0604  0.0052
 1349TIP3    H128242   0.919   2.332  18.646  0.0831  1.2356  0.9264
 1349TIP3    H228243   0.844   2.334  18.515  1.0368 -0.9024  0.3102
 1350TIP3   OH228244   5.183   1.269  17.949 -0.0082  0.2536 -0.5065
 1350TIP3    H128245   5.264   1.223  17.926 -0.9249 -1.4753 -0.3949
 1350TIP3    H228246   5.145   1.295  17.865 -1.0342 -2.0085 -0.8224
 1351TIP3   OH228247   3.260   3.237  17.154  0.4916 -0.2609  0.2686
 1351TIP3    H128248   3.213   3.296  17.095 -0.2150 -0.5317  0.5473
 1351TIP3    H228249   3.350   3.237  17.122 -0.2416 -1.8967 -1.9899
 1352TIP3   OH228250   1.318   8.387  18.801  0.2246  0.0601 -0.6710
 1352TIP3    H128251   1.234   8.355  18.833  0.3237  0.8596  0.4240
 1352TIP3    H228252   1.315   8.482  18.813  1.1187  0.1451 -1.0237
 1353TIP3   OH228253   5.813   5.466  18.333 -0.0103 -0.1471 -0.2920
 1353TIP3    H128254   5.772   5.453  18.247 -0.3060  1.5873 -0.4371
 1353TIP3    H228255   5.897   5.509  18.314  0.0798 -0.0681  0.2673
 1354TIP3   OH228256   6.680   1.411  17.898  0.0200 -0.2838  1.0498
 1354TIP3    H128257   6.699   1.378  17.986 -0.5709  1.0329  1.6972
 1354TIP3    H228258   6.623   1.487  17.913  0.1173  0.1095 -0.4581
 1355TIP3   OH228259   2.007   2.503  17.113 -0.4572  0.5745  0.0639
 1355TIP3    H128260   1.945   2.437  17.146  0.0727  0.0441  0.0016
 1355TIP3    H228261   2.041   2.545  17.192  0.3170 -0.2471  0.1808
 1356TIP3   OH228262   7.105   6.765  18.850  0.0529  0.5242 -0.1116
 1356TIP3    H128263   7.123   6.854  18.821  2.0485  0.7734  1.6422
 1356TIP3    H228264   7.013   6.765  18.875  0.6541  2.9354  2.5045
 1357TIP3   OH228265   4.738   0.919  17.726  0.0327 -0.0559  0.3173
 1357TIP3    H128266   4.809   0.889  17.782 -0.7554  0.8920  1.8839
 1357TIP3    H228267   4.735   0.854  17.655  1.2127 -1.1600  1.2204
 1358TIP3   OH228268   0.903   7.791  18.777  0.2209  0.2773 -0.5412
 1358TIP3    H128269   0.847   7.867  18.758  1.0912  0.9339 -0.5062
 1358TIP3    H228270   0.979   7.801  18.720  0.1269 -0.8434 -0.9039
 1359TIP3   OH228271   6.260   0.005  17.259  0.2440  0.2396 -0.9604
 1359TIP3    H128272   6.171   0.017  17.226  0.2656 -1.2423 -1.6321
 1359TIP3    H228273   6.251   0.013  17.354 -0.8025 -0.8421 -0.9377
 1360TIP3   OH228274   5.335   5.302  18.238  0.2719  0.0110 -0.3493
 1360TIP3    H128275   5.324   5.369  18.170 -1.0824 -0.3419 -0.5022
 1360TIP3    H228276   5.284   5.334  18.312  1.7033  0.3723  0.5318
 1361TIP3   OH228277   3.266   3.436  18.827  0.0233  0.4898  0.2428
 1361TIP3    H128278   3.266   3.445  18.731 -1.4635  1.1955  0.2848
 1361TIP3    H228279   3.359   3.433  18.850  0.4670 -2.3290 -1.4261
 1362TIP3   OH228280   3.140   7.667  17.510  0.4375  0.1366 -0.1892
 1362TIP3    H128281   3.105   7.676  17.598 -0.7667 -1.6931 -0.4178
 1362TIP3    H228282   3.219   7.615  17.521 -0.1889 -0.8644 -0.2287
 1363TIP3   OH228283   2.010   1.925  18.511 -0.4228  0.3118  0.2586
 1363TIP3    H128284   1.934   1.931  18.570 -0.5872  1.0522 -0.0140
 1363TIP3    H228285   1.982   1.973  18.432  1.0840  2.5287  0.9712
 1364TIP3   OH228286   1.087   2.305  18.719  0.0277 -0.1683 -0.4438
 1364TIP3    H128287   1.163   2.276  18.669  0.3091 -1.2690  0.5871
 1364TIP3    H228288   1.108   2.284  18.810 -2.0915 -1.9205 -0.2714
 1365TIP3   OH228289   5.506   7.637  18.512  0.1328  0.3316 -0.5759
 1365TIP3    H128290   5.545   7.627  18.598  0.9480 -0.8626 -1.0607
 1365TIP3    H228291   5.449   7.714  18.520  0.5015  0.4747  0.8963
 1366TIP3   OH228292   3.038   3.180  17.761  0.1334  0.0041 -0.6016
 1366TIP3    H128293   3.020   3.144  17.674  0.6906  1.0616 -1.1746
 1366TIP3    H228294   3.013   3.111  17.822 -0.4548 -0.6740 -1.5998
 1367TIP3   OH228295   4.108   5.645  17.435  0.2510 -0.4860  0.6408
 1367TIP3    H128296   4.051   5.581  17.478 -0.6656 -1.4598 -1.8466
 1367TIP3    H228297   4.145   5.599  17.361 -0.6846  1.8800 -1.4425
 1368TIP3   OH228298   3.591   5.870  18.596 -0.4574 -0.2848  0.5267
 1368TIP3    H128299   3.620   5.955  18.628  2.1113 -1.0370  0.3736
 1368TIP3    H228300   3.591   5.813  18.674  2.3069 -1.2215 -0.0708
 1369TIP3   OH228301   4.651   4.503  18.372 -0.2097  0.3291  0.1099
 1369TIP3    H128302   4.737   4.514  18.412 -0.0501 -0.4795  0.0197
 1369TIP3    H228303   4.593   4.481  18.445  0.0338 -0.9100 -0.0486
 1370TIP3   OH228304   7.240   5.871  18.447  0.6891  0.2940  0.1347
 1370TIP3    H128305   7.175   5.853  18.379  1.3044 -3.2938  0.2933
 1370TIP3    H228306   7.190   5.910  18.518 -0.4727  1.4632 -1.2583
 1371TIP3   OH228307   7.347   1.963  17.578  0.6690 -0.7696  0.4207
 1371TIP3    H128308   7.341   1.886  17.521 -0.2021  0.5592 -1.3701
 1371TIP3    H228309   7.320   2.036  17.523 -2.3123  0.3621  3.0906
 1372TIP3   OH228310   5.667   6.333  18.197 -0.2019  0.6183 -0.1678
 1372TIP3    H128311   5.584   6.343  18.149 -0.0521 -0.3261 -0.6366
 1372TIP3    H228312   5.682   6.419  18.235 -0.1929  1.5023 -2.0396
 1373TIP3   OH228313   5.242   5.823  17.730  0.6572  0.4420  0.1075
 1373TIP3    H128314   5.332   5.850  17.714  0.7651  0.1416  0.2085
 1373TIP3    H228315   5.235   5.813  17.825  1.6801 -3.4071 -0.0323
 1374TIP3   OH228316   1.355   6.868  17.806 -0.5090 -0.4633  0.1966
 1374TIP3    H128317   1.268   6.832  17.792 -0.4297 -1.1546  1.3308
 1374TIP3    H228318   1.389   6.820  17.882  1.1140 -0.6753 -0.6180
 1375TIP3   OH228319   0.319   5.640  18.361 -0.1213 -0.7529  0.1537
 1375TIP3    H128320   0.234   5.652  18.402 -0.4778 -0.5137 -0.6328
 1375TIP3    H228321   0.358   5.565  18.406 -0.2575 -0.1529  1.2890
 1376TIP3   OH228322   5.653   0.699  18.706 -0.0594  0.6994 -0.0082
 1376TIP3    H128323   5.693   0.744  18.632 -0.2813 -0.1292 -0.6550
 1376TIP3    H228324   5.698   0.614  18.709 -1.0656  0.1560 -0.1160
 1377TIP3   OH228325   6.078   3.642  16.609 -0.0439 -0.0725  0.3802
 1377TIP3    H128326   6.016   3.679  16.671 -0.4880  0.1615 -0.1995
 1377TIP3    H228327   6.055   3.681  16.525  0.2159 -0.7853 -0.0320
 1378TIP3   OH228328   1.591   1.363  16.991 -0.3804  0.1601 -0.5276
 1378TIP3    H128329   1.589   1.419  16.913  0.4854  3.2475  1.4890
 1378TIP3    H228330   1.669   1.391  17.038 -1.1056 -1.2713  1.6695
 1379TIP3   OH228331   6.321   5.858  16.615 -0.0110  0.2716 -0.5106
 1379TIP3    H128332   6.316   5.771  16.655 -1.3239  0.6901  0.3022
 1379TIP3    H228333   6.391   5.850  16.550 -0.1768 -1.4149 -0.5349
 1380TIP3   OH228334   6.329   2.512  18.791  0.1194  0.5337  0.2574
 1380TIP3    H128335   6.281   2.483  18.714  3.0765 -1.8937 -0.8565
 1380TIP3    H228336   6.261   2.531  18.856 -2.3745 -2.8355 -1.0935
 1381TIP3   OH228337   7.015   0.576  17.231 -0.4031 -0.4199 -0.0666
 1381TIP3    H128338   6.990   0.648  17.173 -0.3881  0.0572  0.5065
 1381TIP3    H228339   7.033   0.502  17.172  0.3023  0.2493 -0.7215
 1382TIP3   OH228340   6.940   5.345  18.529  0.3596  0.6927 -0.1637
 1382TIP3    H128341   6.909   5.380  18.612 -1.4072 -0.3083 -0.3434
 1382TIP3    H228342   6.935   5.419  18.469  3.3607  1.9191  0.9290
 1383TIP3   OH228343   6.856   5.684  18.680 -0.3219 -0.3999 -0.1703
 1383TIP3    H128344   6.796   5.750  18.646 -1.1700 -1.4807 -0.8120
 1383TIP3    H228345   6.828   5.671  18.771  1.0561  1.4589  0.5925
 1384TIP3   OH228346   3.170   1.253  16.818 -0.1311  0.4600 -0.3282
 1384TIP3    H128347   3.085   1.297  16.818 -0.1816  0.5178  2.0188
 1384TIP3    H228348   3.208   1.276  16.903  2.7467  1.3679 -1.7377
 1385TIP3   OH228349   8.194   3.021  17.562  0.3954 -0.5875  0.3767
 1385TIP3    H128350   8.229   3.040  17.474  1.2353  1.0883  1.0305
 1385TIP3    H228351   8.130   2.951  17.548  1.9814 -1.8018 -1.2861
 1386TIP3   OH228352   5.447   8.074  17.793 -0.2035  0.2868  0.0197
 1386TIP3    H128353   5.371   8.122  17.825 -0.2187 -0.0353  0.4704
 1386TIP3    H228354   5.433   7.984  17.823  0.8027  0.4110  0.8954
 1387TIP3   OH228355   2.572   2.746  18.076 -0.2060  0.2144 -0.3714
 1387TIP3    H128356   2.627   2.815  18.038  0.1039  0.6330  0.7627
 1387TIP3    H228357   2.512   2.721  18.006  0.9042  0.3197 -1.3944
 1388TIP3   OH228358   2.279   6.530  17.680  0.2806 -0.1964  0.2846
 1388TIP3    H128359   2.263   6.463  17.614  1.8843 -0.1743 -0.1748
 1388TIP3    H228360   2.250   6.491  17.762  2.7650 -2.2056  0.3176
 1389TIP3   OH228361   2.956   1.994  17.901  0.2079  0.2546  0.0051
 1389TIP3    H128362   3.027   1.957  17.849 -0.2330 -1.3813  0.5183
 1389TIP3    H228363   2.898   1.920  17.920 -2.0005  1.6445 -0.9370
 1390TIP3   OH228364   2.116   6.785  18.897  0.5437 -0.4373  0.2957
 1390TIP3    H128365   2.117   6.803  18.991  2.2771 -0.4112  0.2944
 1390TIP3    H228366   2.177   6.713  18.885  1.4916  0.5195 -0.9760
 1391TIP3   OH228367   4.031   3.305  17.711  0.2062 -0.0592  0.3623
 1391TIP3    H128368   4.052   3.360  17.636  2.6775  0.5998  1.4334
 1391TIP3    H228369   3.972   3.359  17.764  0.2040  0.3410 -0.0359
 1392TIP3   OH228370   7.604   6.691  18.418 -0.1595  0.1401  0.2154
 1392TIP3    H128371   7.653   6.644  18.487  0.0160 -0.3094 -0.2096
 1392TIP3    H228372   7.517   6.704  18.456  0.2199  0.7453  0.8901
 1393TIP3   OH228373   5.718   6.032  18.730  0.5336  0.0071 -0.3690
 1393TIP3    H128374   5.796   6.086  18.716 -0.7681  2.1280  0.1975
 1393TIP3    H228375   5.665   6.046  18.651 -0.6120  1.0252  0.5467
 1394TIP3   OH228376   4.905   5.643  17.529 -0.1948 -0.6437 -0.6881
 1394TIP3    H128377   4.918   5.709  17.597  1.0816 -2.3939  0.8663
 1394TIP3    H228378   4.955   5.676  17.454 -0.5182  0.6793 -0.3451
 1395TIP3   OH228379   0.352   0.846  18.328  0.5624  0.2007 -0.1616
 1395TIP3    H128380   0.300   0.828  18.249 -0.5086 -2.7803  1.0751
 1395TIP3    H228381   0.291   0.889  18.387  1.3918  2.5215 -0.9024
 1396TIP3   OH228382   2.800   0.360  17.503 -0.3418 -0.0725 -0.7951
 1396TIP3    H128383   2.879   0.352  17.451 -0.1885 -0.1704 -0.5491
 1396TIP3    H228384   2.734   0.392  17.442 -0.2015 -0.3250 -1.0840
 1397TIP3   OH228385   0.755   3.120  19.064  0.4092 -0.5454 -0.3176
 1397TIP3    H128386   0.766   3.043  19.007  1.5747 -0.9796  0.4660
 1397TIP3    H228387   0.695   3.090  19.132 -1.2817  0.0865 -1.4713
 1398TIP3   OH228388   3.513   0.958  18.004  0.1026  0.1930 -0.4836
 1398TIP3    H128389   3.527   0.864  18.015 -0.0475  0.3522  1.5001
 1398TIP3    H228390   3.496   0.969  17.910 -0.7004 -1.8652 -0.6422
 1399TIP3   OH228391   6.476   3.330  16.543  0.4617 -0.4639  0.1445
 1399TIP3    H128392   6.425   3.394  16.592  1.5842 -0.1316  0.9292
 1399TIP3    H228393   6.564   3.335  16.582  0.7039 -2.1121 -0.1150
 1400TIP3   OH228394   0.373   3.758  18.993  0.1223  0.0388 -0.2024
 1400TIP3    H128395   0.425   3.825  19.037  0.0542  1.4059 -2.0662
 1400TIP3    H228396   0.426   3.679  19.000  0.0874  0.1421  2.2875
 1401TIP3   OH228397   6.468   2.249  18.146  0.2006  0.1692 -0.0453
 1401TIP3    H128398   6.375   2.272  18.144  0.2185  0.2616  0.1585
 1401TIP3    H228399   6.472   2.168  18.197  0.0679 -0.6409 -1.2630
 1402TIP3   OH228400   0.736   0.445  18.291 -0.4078 -0.1845  0.0092
 1402TIP3    H128401   0.729   0.518  18.230  1.8745  0.5344  0.5248
 1402TIP3    H228402   0.682   0.471  18.365  0.6719  1.2054  0.3498
 1403TIP3   OH228403   2.927   0.677  17.378 -0.3172  0.0835  0.2678
 1403TIP3    H128404   2.937   0.754  17.321 -0.9408  0.9234  1.2587
 1403TIP3    H228405   3.014   0.636  17.376  0.6397  1.9096  1.2225
 1404TIP3   OH228406   8.318   7.109  18.293  0.1974 -0.6394 -0.6927
 1404TIP3    H128407   8.399   7.161  18.293  0.6933 -1.3946 -0.6521
 1404TIP3    H228408   8.346   7.021  18.316 -0.4833 -1.1493 -1.7157
 1405TIP3   OH228409   2.495   6.951  17.746 -0.2198  0.1669 -0.2667
 1405TIP3    H128410   2.433   6.890  17.706  0.5385 -0.2891 -0.7720
 1405TIP3    H228411   2.472   6.951  17.839  0.4521 -1.7704 -0.0445
 1406TIP3   OH228412   2.062   0.107  17.918 -0.2523 -0.0332 -0.1034
 1406TIP3    H128413   2.040   0.044  17.987  1.0150 -1.4385 -0.9082
 1406TIP3    H228414   1.999   0.178  17.929  0.1754 -0.0061  2.7379
 1407TIP3   OH228415   4.541   3.705  18.243  0.2857 -0.3351  0.2401
 1407TIP3    H128416   4.548   3.788  18.290  2.4557  0.3856 -1.1784
 1407TIP3    H228417   4.605   3.712  18.172 -0.2694 -2.7885 -0.6205
 1408TIP3   OH228418   1.551   5.482  17.787 -0.2183 -0.5556  0.0529
 1408TIP3    H128419   1.593   5.466  17.702  1.9927 -0.9610  1.1584
 1408TIP3    H228420   1.553   5.578  17.797  0.8728 -0.5928  0.2781
 1409TIP3   OH228421   3.456   6.349  16.972  0.2996 -0.0856  0.0252
 1409TIP3    H128422   3.385   6.389  16.922  0.7078  0.4392 -0.1456
 1409TIP3    H228423   3.413   6.316  17.051  0.0399  1.3033  0.5011
 1410TIP3   OH228424   7.286   3.674  18.260 -0.1426 -0.3919 -0.0285
 1410TIP3    H128425   7.227   3.625  18.317 -3.3548  2.2731 -0.7017
 1410TIP3    H228426   7.293   3.760  18.301  1.2465  0.1671 -1.3360
 1411TIP3   OH228427   7.463   5.147  18.891 -0.0892 -0.1671  0.0787
 1411TIP3    H128428   7.403   5.097  18.836 -0.3265 -0.4255  0.5669
 1411TIP3    H228429   7.481   5.227  18.841 -0.2947 -0.4015 -0.3742
 1412TIP3   OH228430   7.401   4.343  18.744 -0.7387 -0.2722 -0.0720
 1412TIP3    H128431   7.351   4.284  18.687  2.0961 -0.3995 -2.6892
 1412TIP3    H228432   7.386   4.309  18.832 -2.4878 -2.3154 -1.0477
 1413TIP3   OH228433   6.320   0.584  18.400 -0.8612  0.2743 -0.1756
 1413TIP3    H128434   6.312   0.571  18.306  1.0807  2.4372 -0.7324
 1413TIP3    H228435   6.410   0.617  18.412 -1.5467  1.4735  2.2323
 1414TIP3   OH228436   7.824   0.015  18.767 -0.6355 -0.3765 -0.0730
 1414TIP3    H128437   7.745  -0.030  18.794 -1.6935  0.4452 -1.5991
 1414TIP3    H228438   7.804   0.108  18.779  0.1098 -0.1570 -0.4401
 1415TIP3   OH228439   4.326   7.544  18.119 -0.7130  0.5301 -0.3664
 1415TIP3    H128440   4.282   7.569  18.200  0.2028 -0.1240  0.3597
 1415TIP3    H228441   4.346   7.628  18.076 -0.9241  0.9030  0.2478
 1416TIP3   OH228442   0.473   3.702  17.661  0.3057  0.5803  0.0576
 1416TIP3    H128443   0.395   3.681  17.610  1.9959 -0.9508 -2.1066
 1416TIP3    H228444   0.465   3.650  17.740 -0.7974  0.3303 -0.2079
 1417TIP3   OH228445   7.138   5.008  18.986 -0.0487  0.2405  0.2544
 1417TIP3    H128446   7.151   5.080  19.049 -2.0835 -0.4222  1.5497
 1417TIP3    H228447   7.224   4.966  18.980  0.7371  1.6634  0.8805
 1418TIP3   OH228448   6.139   7.973  17.633  0.1443 -0.2575 -0.0303
 1418TIP3    H128449   6.126   8.021  17.715 -1.2517  1.6989 -1.2993
 1418TIP3    H228450   6.222   8.004  17.599 -0.1152  0.2520 -0.1998
 1419TIP3   OH228451   1.781   6.518  16.237 -0.4673  0.2417 -0.6663
 1419TIP3    H128452   1.694   6.558  16.237 -1.1212 -1.1261 -0.4285
 1419TIP3    H228453   1.806   6.515  16.329 -1.6510 -2.3743 -0.3527
 1420TIP3   OH228454   6.418   2.145  17.015 -0.1436 -0.2281 -0.2612
 1420TIP3    H128455   6.426   2.213  16.948  0.9093  0.1915  0.2637
 1420TIP3    H228456   6.490   2.163  17.076 -1.2413 -0.4222  1.1420
 1421TIP3   OH228457   7.871   6.315  16.563  0.3955 -0.0472  0.0313
 1421TIP3    H128458   7.941   6.374  16.589  1.4680 -1.6745  1.0303
 1421TIP3    H228459   7.831   6.286  16.645  1.0717 -2.0163 -0.2665
 1422TIP3   OH228460   6.486   8.329  17.161 -0.0103 -0.5276  0.2681
 1422TIP3    H128461   6.460   8.273  17.088  0.9651  0.8046 -1.1665
 1422TIP3    H228462   6.407   8.379  17.182 -0.3111 -0.9534  0.1582
 1423TIP3   OH228463   5.725   4.787  18.386  0.4028 -0.1060  0.4788
 1423TIP3    H128464   5.735   4.860  18.324  0.3770 -0.3305  0.2118
 1423TIP3    H228465   5.806   4.737  18.378 -0.3658 -1.1951 -0.7393
 1424TIP3   OH228466   2.768   6.995  18.397  0.4241 -0.0927  0.4900
 1424TIP3    H128467   2.795   6.926  18.457  0.9688 -1.0671 -0.8391
 1424TIP3    H228468   2.833   7.064  18.409  0.4126 -0.1898  1.1437
 1425TIP3   OH228469   2.825   2.236  17.977 -0.4916 -0.3842 -0.3368
 1425TIP3    H128470   2.893   2.168  17.978  0.4374  0.5238  0.3115
 1425TIP3    H228471   2.816   2.262  18.069 -0.5074  0.6767 -0.6326
 1426TIP3   OH228472   2.706   2.073  18.639 -0.1483  0.8133 -0.1517
 1426TIP3    H128473   2.696   1.979  18.626 -1.2951  0.8183  0.5485
 1426TIP3    H228474   2.793   2.083  18.678  0.5938  0.2034 -1.6028
 1427TIP3   OH228475   1.461   2.897  18.601  0.0091  0.6614 -0.0330
 1427TIP3    H128476   1.473   2.950  18.680  2.8861  1.6676 -0.9907
 1427TIP3    H228477   1.477   2.807  18.629  0.4181  0.9407  0.6573
 1428TIP3   OH228478   7.589   6.688  16.189  0.1888 -0.0435  0.0674
 1428TIP3    H128479   7.608   6.604  16.231 -1.2279  0.3509  1.5864
 1428TIP3    H228480   7.674   6.729  16.179  1.0902 -2.1143 -1.8606
 1429TIP3   OH228481   2.829   7.584  17.584  0.1737  0.2827 -0.2217
 1429TIP3    H128482   2.894   7.563  17.517 -0.8818  0.3970 -1.3211
 1429TIP3    H228483   2.878   7.630  17.652  1.1282  0.9500 -1.3301
 1430TIP3   OH228484   0.914   2.222  17.829  0.0101  0.5846  0.2308
 1430TIP3    H128485   0.914   2.187  17.918 -0.7696 -0.2501 -0.0759
 1430TIP3    H228486   0.827   2.260  17.819  0.4646  1.6510  0.1746
 1431TIP3   OH228487   7.049   6.553  16.218  0.7990 -0.6497  0.0901
 1431TIP3    H128488   7.034   6.639  16.257  0.4655 -0.0463 -1.3154
 1431TIP3    H228489   7.124   6.565  16.160 -0.3937 -0.7988 -1.5421
 1432TIP3   OH228490   8.057   0.766  17.858 -0.1747  0.1140  0.3224
 1432TIP3    H128491   8.078   0.774  17.951  0.1455  1.0736  0.1731
 1432TIP3    H228492   8.139   0.784  17.812 -0.5522  0.6152 -0.1738
 1433TIP3   OH228493   8.320   4.960  18.906  0.2901 -0.4563  0.5973
 1433TIP3    H128494   8.345   4.888  18.964 -0.4461 -1.0438  0.1969
 1433TIP3    H228495   8.254   5.008  18.956 -0.8352 -1.3466  0.0163
 1434TIP3   OH228496   7.344   7.922  16.478  0.2201  0.1517  0.0367
 1434TIP3    H128497   7.285   7.852  16.448 -0.4584  0.6690  0.1346
 1434TIP3    H228498   7.428   7.879  16.489  0.3065 -0.2364 -1.8302
 1435TIP3   OH228499   3.197   7.499  18.653 -0.0053  0.3716 -0.4280
 1435TIP3    H128500   3.168   7.411  18.629  0.0015  0.0569  0.6451
 1435TIP3    H228501   3.288   7.486  18.682  0.2877  0.8832 -1.0984
 1436TIP3   OH228502   1.402   7.594  18.877 -0.0860 -0.5052  1.0109
 1436TIP3    H128503   1.496   7.576  18.883 -0.0660 -1.1778 -0.6549
 1436TIP3    H228504   1.364   7.513  18.842 -1.4136 -0.4908  2.3153
 1437TIP3   OH228505   5.884   3.355  16.490 -0.0863  0.9409 -0.6131
 1437TIP3    H128506   5.852   3.385  16.575  0.2579 -0.6137  0.1097
 1437TIP3    H228507   5.870   3.429  16.431  2.1033  3.1150  1.3505
 1438TIP3   OH228508   2.994   4.432  18.222 -0.6197  0.1199 -0.4936
 1438TIP3    H128509   3.066   4.381  18.259 -0.1662  0.0855 -1.3995
 1438TIP3    H228510   2.936   4.449  18.296  0.0943 -0.2369  0.1572
 1439TIP3   OH228511   2.566   4.881  18.324 -0.0695 -0.0129 -0.0136
 1439TIP3    H128512   2.573   4.793  18.287  0.4782 -0.7231  1.6905
 1439TIP3    H228513   2.471   4.898  18.327 -0.1361  0.1943 -1.8984
 1440TIP3   OH228514   2.954   1.404  18.137 -0.1405 -0.7296  0.5462
 1440TIP3    H128515   2.947   1.311  18.114 -0.8999 -0.7922  0.9923
 1440TIP3    H228516   2.867   1.440  18.120  0.8315  0.5490 -2.2367
 1441TIP3   OH228517   3.703   2.198  18.351  0.1962  0.6119 -0.2716
 1441TIP3    H128518   3.630   2.188  18.291  1.0354  1.0451 -1.3950
 1441TIP3    H228519   3.701   2.119  18.405  0.5739 -0.7208 -2.1292
 1442TIP3   OH228520   4.097   6.194  18.742 -0.0712  0.6371 -0.3394
 1442TIP3    H128521   4.190   6.218  18.730 -0.1927  0.7313 -1.2020
 1442TIP3    H228522   4.077   6.140  18.666 -0.6956  0.5223 -0.0950
 1443TIP3   OH228523   6.505   5.710  16.448 -0.8496 -0.2448 -1.0341
 1443TIP3    H128524   6.564   5.682  16.378 -0.7520 -0.2235 -0.9618
 1443TIP3    H228525   6.514   5.643  16.516  2.8814  2.1312  1.2004
 1444TIP3   OH228526   0.700   5.439  17.800  0.1411 -0.1201 -0.4289
 1444TIP3    H128527   0.669   5.358  17.839  1.7517 -0.8001 -0.4785
 1444TIP3    H228528   0.768   5.470  17.860 -0.9014  1.5813 -0.0442
 1445TIP3   OH228529   7.523   0.618  18.095  0.3921 -0.5686 -0.7758
 1445TIP3    H128530   7.509   0.523  18.095 -0.4413 -0.5504  2.4247
 1445TIP3    H228531   7.577   0.634  18.018  0.2922 -3.5900 -1.5912
 1446TIP3   OH228532   8.322   5.352  18.607 -0.1383  0.0170 -0.0202
 1446TIP3    H128533   8.322   5.259  18.632 -1.5879 -0.1191 -0.4216
 1446TIP3    H228534   8.262   5.357  18.533 -1.3729  1.5215  1.0053
 1447TIP3   OH228535   2.744   3.469  16.797  0.1447  0.1059 -0.0485
 1447TIP3    H128536   2.714   3.378  16.785 -2.6731  1.1125 -1.6897
 1447TIP3    H228537   2.810   3.482  16.729  2.7339 -1.4314  1.9908
 1448TIP3   OH228538   0.101   7.722  17.682  0.0878 -0.2700  0.1541
 1448TIP3    H128539   0.176   7.675  17.646  0.0605 -1.0719  1.1302
 1448TIP3    H228540   0.052   7.656  17.731 -0.6119  0.5063  0.5224
 1449TIP3   OH228541   6.638   3.375  18.088  0.7382 -0.0311  0.2364
 1449TIP3    H128542   6.690   3.455  18.077 -0.7396  0.9697  0.2802
 1449TIP3    H228543   6.596   3.385  18.173 -1.2106  0.2333 -0.7080
 1450TIP3   OH228544   6.399   7.376  18.461  0.4288 -0.0559  0.0242
 1450TIP3    H128545   6.459   7.420  18.521 -0.2659  0.0055  0.6921
 1450TIP3    H228546   6.448   7.369  18.379  1.4113 -0.1868  0.6095
 1451TIP3   OH228547   1.804   5.477  18.002 -0.3087 -0.3494  0.0124
 1451TIP3    H128548   1.887   5.444  18.038  0.0268  1.5063  1.0889
 1451TIP3    H228549   1.829   5.515  17.918 -0.0352  0.1895  0.3247
 1452TIP3   OH228550   1.136   7.251  17.826 -0.0635  0.3478  0.3049
 1452TIP3    H128551   1.151   7.241  17.732 -0.1501  0.4499  0.2815
 1452TIP3    H228552   1.220   7.227  17.866  0.9389  3.1213  0.0588
 1453TIP3   OH228553   5.546   8.261  18.378  0.3468  0.3425 -0.3095
 1453TIP3    H128554   5.480   8.241  18.444 -0.5436  0.8457 -1.0295
 1453TIP3    H228555   5.498   8.307  18.308  1.4289  0.6127 -0.9013
 1454TIP3   OH228556   5.195   0.616  18.352 -0.2956 -0.3070  0.2629
 1454TIP3    H128557   5.239   0.531  18.360  0.8414  0.1649 -0.7339
 1454TIP3    H228558   5.231   0.669  18.423 -0.3009 -0.3569  0.3026
 1455TIP3   OH228559   5.241   0.801  18.584  0.0297 -0.5032  0.3297
 1455TIP3    H128560   5.317   0.841  18.626  0.4667 -1.6808  0.7181
 1455TIP3    H228561   5.171   0.866  18.593  0.6963  0.1412  0.9699
 1456TIP3   OH228562   3.132   7.712  18.268 -0.3108 -0.4529 -0.3903
 1456TIP3    H128563   3.063   7.736  18.329  0.5372  1.6348 -0.1603
 1456TIP3    H228564   3.214   7.737  18.312  0.5302 -1.6908 -1.1710
 1457TIP3   OH228565   1.955   0.671  18.737  0.4197  0.3541  0.6079
 1457TIP3    H128566   1.879   0.682  18.794 -0.3984  3.0911 -0.8531
 1457TIP3    H228567   1.952   0.579  18.711 -2.1139  0.2650  0.9848
 1458TIP3   OH228568   3.694   3.061  16.665 -0.0297 -0.1064 -0.3077
 1458TIP3    H128569   3.712   2.968  16.651 -0.1633 -0.6021  2.1973
 1458TIP3    H228570   3.599   3.067  16.665 -0.0263 -0.0385 -0.2119
 1459TIP3   OH228571   6.785   2.566  16.653 -0.0730  0.3011 -0.1582
 1459TIP3    H128572   6.785   2.476  16.686  0.5964 -0.6718 -2.5966
 1459TIP3    H228573   6.696   2.597  16.670 -1.2187 -1.8575 -1.7629
 1460TIP3   OH228574   5.901   5.363  17.006 -0.2559  0.3174 -0.5130
 1460TIP3    H128575   5.972   5.367  17.071 -0.4962  0.2175 -0.2422
 1460TIP3    H228576   5.895   5.452  16.972 -1.1229  0.7362  0.6700
 1461TIP3   OH228577   2.804   6.078  16.428 -0.0713  0.4202  0.2820
 1461TIP3    H128578   2.806   6.051  16.336 -0.9676 -1.6437  0.8101
 1461TIP3    H228579   2.890   6.118  16.443  0.6255 -0.4856 -1.1028
 1462TIP3   OH228580   6.415   5.969  17.497  0.9928 -0.2799 -0.1088
 1462TIP3    H128581   6.439   6.045  17.443  1.9076  0.1728  0.8990
 1462TIP3    H228582   6.333   5.938  17.459  1.2104  0.4895 -1.2785
 1463TIP3   OH228583   7.974   6.634  16.372 -0.4168  0.3353  0.8863
 1463TIP3    H128584   8.051   6.623  16.316 -0.8572  1.0224  0.1306
 1463TIP3    H228585   8.011   6.653  16.459  0.2729  0.9819  0.4680
 1464TIP3   OH228586   2.385   4.873  18.078 -0.3355  0.2757  0.4729
 1464TIP3    H128587   2.359   4.818  18.151 -0.1292 -1.0811 -0.4423
 1464TIP3    H228588   2.336   4.838  18.003  1.0925  0.2393 -0.4707
 1465TIP3   OH228589   8.116   3.183  17.119 -0.0444 -0.1734  0.0580
 1465TIP3    H128590   8.046   3.249  17.120 -0.3286 -0.4710  0.5223
 1465TIP3    H228591   8.087   3.119  17.054  0.4814  0.4141 -0.7694
 1466TIP3   OH228592   0.479   7.052  16.738  0.5115 -0.2721  0.1262
 1466TIP3    H128593   0.418   6.981  16.721  0.6723  0.2668 -3.6180
 1466TIP3    H228594   0.427   7.132  16.726  1.1566  0.2029  0.4261
 1467TIP3   OH228595   7.870   3.140  19.277 -0.5519 -0.1860  0.2089
 1467TIP3    H128596   7.953   3.179  19.251 -1.5788  1.7834 -0.2869
 1467TIP3    H228597   7.842   3.193  19.352 -1.2982 -0.9115  0.4490
 1468TIP3   OH228598   0.321   8.046  16.642 -0.2105 -0.2211 -0.0577
 1468TIP3    H128599   0.246   8.074  16.589 -0.3122  1.6169  0.9612
 1468TIP3    H228600   0.387   8.113  16.626 -0.1801  0.2963  1.9279
 1469TIP3   OH228601   0.118   5.075  18.900  0.5280  0.9169 -0.4206
 1469TIP3    H128602   0.025   5.060  18.884 -0.0095  1.5529  1.6778
 1469TIP3    H228603   0.121   5.165  18.935  2.0769  1.2915 -1.4482
 1470TIP3   OH228604   6.273   3.927  18.745  0.5255 -0.4148  0.4056
 1470TIP3    H128605   6.265   4.022  18.740  0.4909 -0.4448 -0.3157
 1470TIP3    H228606   6.191   3.894  18.706  0.6799 -0.7342  0.3443
 1471TIP3   OH228607   3.178   7.461  18.296  0.3318  0.6950 -0.0265
 1471TIP3    H128608   3.084   7.449  18.282  0.2878 -1.1464  1.4270
 1471TIP3    H228609   3.191   7.555  18.293 -1.6891  1.0296  0.3908
 1472TIP3   OH228610   7.120   1.226  16.672 -0.8185  0.3118  0.3582
 1472TIP3    H128611   7.135   1.247  16.580 -2.6098 -3.2227 -0.9367
 1472TIP3    H228612   7.071   1.300  16.707 -0.9055  1.3269 -1.7910
 1473TIP3   OH228613   2.237   1.409  18.141  0.0893  0.0757 -0.2345
 1473TIP3    H128614   2.215   1.317  18.128  0.8035  0.0505 -1.4093
 1473TIP3    H228615   2.211   1.427  18.231  1.1759 -1.6346  0.4819
 1474TIP3   OH228616   1.111   3.541  18.337  0.2173  0.2135  0.1156
 1474TIP3    H128617   1.112   3.578  18.425  1.7198  1.8712 -0.5594
 1474TIP3    H228618   1.143   3.451  18.348 -1.5182 -0.2954  1.4919
 1475TIP3   OH228619   2.959   3.458  17.893  0.0806  0.5963 -0.2555
 1475TIP3    H128620   2.986   3.455  17.801  1.1082 -0.3116  0.0388
 1475TIP3    H228621   2.974   3.368  17.925 -0.2661  0.8924  0.7920
 1476TIP3   OH228622   3.643   0.219  18.036 -0.0717 -0.2249 -0.0067
 1476TIP3    H128623   3.621   0.301  18.081 -0.4745 -0.7606  0.8079
 1476TIP3    H228624   3.590   0.221  17.956 -2.1070 -0.8420  1.2355
 1477TIP3   OH228625   0.981   4.862  17.696  0.0105  0.1386 -0.0867
 1477TIP3    H128626   1.041   4.791  17.719  0.4109  0.0569 -1.3357
 1477TIP3    H228627   0.895   4.821  17.694  0.2092 -0.2579 -0.5497
 1478TIP3   OH228628   6.226   0.855  16.761 -0.0695 -0.0376  0.5854
 1478TIP3    H128629   6.295   0.919  16.780 -0.6240  0.8329 -0.2212
 1478TIP3    H228630   6.146   0.894  16.796 -0.3000 -0.6354  0.7396
 1479TIP3   OH228631   3.372   3.017  19.002 -0.4749  0.1978 -0.1722
 1479TIP3    H128632   3.360   3.023  18.907  0.0616  0.2222 -0.2459
 1479TIP3    H228633   3.331   2.935  19.027 -0.4692  0.1075 -0.4548
 1480TIP3   OH228634   7.827   4.479  18.811  0.3352 -0.1346 -0.2277
 1480TIP3    H128635   7.740   4.514  18.790  0.7367  0.5154 -0.8402
 1480TIP3    H228636   7.820   4.451  18.902 -0.0331  1.4622  0.2662
 1481TIP3   OH228637   1.166   2.146  18.960  0.3212 -0.9715 -0.0964
 1481TIP3    H128638   1.119   2.096  18.893  0.7515  0.1733 -1.3100
 1481TIP3    H228639   1.157   2.094  19.039 -1.5053 -1.6520 -0.6775
 1482TIP3   OH228640   6.949   3.012  18.534 -0.4689 -0.6943  0.0055
 1482TIP3    H128641   7.042   2.989  18.536 -0.0069  1.0267 -0.4978
 1482TIP3    H228642   6.938   3.060  18.452 -1.2606  1.1973  1.1632
 1483TIP3   OH228643   0.123   5.066  17.142  0.4226  0.3509 -0.2261
 1483TIP3    H128644   0.031   5.095  17.145  0.7093  1.3779 -0.7594
 1483TIP3    H228645   0.160   5.115  17.069  1.8446  1.2834  1.0827
 1484TIP3   OH228646   6.251   7.157  16.587  0.3604 -0.1295 -0.3293
 1484TIP3    H128647   6.336   7.198  16.606  0.1613  0.2974 -0.3355
 1484TIP3    H228648   6.268   7.063  16.591  0.5616 -0.0648  0.9529
 1485TIP3   OH228649   4.681   7.626  16.917 -0.4842  0.4478  0.7982
 1485TIP3    H128650   4.776   7.626  16.924 -0.5489  0.7904  1.9126
 1485TIP3    H228651   4.658   7.719  16.910 -0.8400  0.5841  2.8655
 1486TIP3   OH228652   5.744   3.283  17.807 -0.5741 -0.3482 -0.0996
 1486TIP3    H128653   5.709   3.241  17.729 -2.3485 -0.0687  0.4947
 1486TIP3    H228654   5.717   3.226  17.880  0.8918 -0.5098  0.3427
 1487TIP3   OH228655   4.086   2.943  17.816  0.3525  0.0013 -0.1782
 1487TIP3    H128656   4.142   2.961  17.893 -0.5334 -1.6384  0.8956
 1487TIP3    H228657   4.141   2.890  17.758  0.7482  0.5498 -0.3146
 1488TIP3   OH228658   6.118   4.972  18.667  0.1449 -0.0489 -0.6821
 1488TIP3    H128659   6.076   5.050  18.703  0.1077 -0.7824  0.9637
 1488TIP3    H228660   6.102   4.977  18.573  0.4628  2.1036 -0.6737
 1489TIP3   OH228661   4.094   1.809  17.624  0.4661  0.0234 -0.1390
 1489TIP3    H128662   4.121   1.742  17.687  1.7964 -0.6928 -1.4105
 1489TIP3    H228663   4.007   1.836  17.653  0.3133 -1.5447  0.9714
 1490TIP3   OH228664   7.005   8.222  18.450 -0.2777  0.1301  0.2146
 1490TIP3    H128665   6.984   8.294  18.390  0.8181  2.0417  1.9791
 1490TIP3    H228666   6.926   8.168  18.451 -0.3737  0.0576 -2.7935
 1491TIP3   OH228667   5.719   5.243  16.753 -1.2023 -0.0969 -0.6890
 1491TIP3    H128668   5.809   5.223  16.728 -0.7662  1.6260 -0.5809
 1491TIP3    H228669   5.666   5.200  16.686 -0.3612 -1.7592 -0.3374
 1492TIP3   OH228670   5.445   2.126  18.045  0.9982 -0.3783 -0.0720
 1492TIP3    H128671   5.390   2.106  17.969 -0.0585 -0.5964  0.7261
 1492TIP3    H228672   5.512   2.058  18.045  0.6203 -0.7554 -0.4498
 1493TIP3   OH228673   0.806   3.858  18.673 -0.1158 -0.2647 -0.6264
 1493TIP3    H128674   0.810   3.831  18.765  1.8017 -1.2833 -0.9579
 1493TIP3    H228675   0.774   3.948  18.676  1.8207  0.4490  1.2225
 1494TIP3   OH228676   3.891   2.991  17.149  0.2040  0.3165  0.0945
 1494TIP3    H128677   3.870   3.071  17.102  0.7901 -0.1037 -0.9141
 1494TIP3    H228678   3.969   3.013  17.201  1.7939 -0.2017 -1.9538
 1495TIP3   OH228679   6.076   3.894  18.516  0.0350  0.6353  0.0480
 1495TIP3    H128680   6.032   3.961  18.463 -0.4115  2.3680  2.4066
 1495TIP3    H228681   6.041   3.811  18.484  0.1057  1.5186 -2.5724
 1496TIP3   OH228682   4.595   7.111  18.036 -0.4479  0.1804 -0.4955
 1496TIP3    H128683   4.634   7.047  18.095 -0.2752 -0.3032 -1.1264
 1496TIP3    H228684   4.653   7.113  17.960 -1.1158  0.1655 -1.0174
 1497TIP3   OH228685   8.044   5.480  18.013  0.1653 -0.8849 -0.3302
 1497TIP3    H128686   7.958   5.509  17.984 -0.2199 -2.3098 -0.7281
 1497TIP3    H228687   8.101   5.556  18.003 -1.2342  0.3919  0.8811
 1498TIP3   OH228688   2.515   7.243  17.621  0.2027  0.1656 -0.2155
 1498TIP3    H128689   2.472   7.264  17.538 -0.8178  1.5881  0.6319
 1498TIP3    H228690   2.558   7.159  17.605 -0.9145 -0.1459 -1.8281
 1499TIP3   OH228691   1.928   6.129  17.135  0.3212  0.5911  0.3192
 1499TIP3    H128692   1.887   6.213  17.156 -1.3386 -0.2073  0.4496
 1499TIP3    H228693   1.920   6.122  17.040 -2.5765 -0.8056  0.5502
 1500TIP3   OH228694   8.041   0.975  18.107 -0.7437  0.3561  0.2754
 1500TIP3    H128695   7.990   0.939  18.179 -1.0395  0.4492  0.1096
 1500TIP3    H228696   7.981   1.032  18.060 -0.9329 -0.6832 -0.8054
 1501TIP3   OH228697   3.551   3.024  18.184 -0.2644  0.5796 -0.2870
 1501TIP3    H128698   3.620   2.974  18.227 -0.6515  1.0774  0.9435
 1501TIP3    H228699   3.479   2.961  18.174 -0.2199  0.5010 -0.1058
 1502TIP3   OH228700   7.653   7.117  16.798 -0.5242  0.2014 -0.0971
 1502TIP3    H128701   7.724   7.063  16.834  0.5269  0.9723 -0.9391
 1502TIP3    H228702   7.574   7.066  16.813  0.0468 -0.1834  1.9162
 1503TIP3   OH228703   4.920   1.584  17.015  0.0367  0.6034  0.0741
 1503TIP3    H128704   4.838   1.592  16.966 -0.7432  0.9704  1.3972
 1503TIP3    H228705   4.975   1.528  16.960 -1.8423 -1.3971  0.0956
 1504TIP3   OH228706   3.379   7.671  17.239  0.0997  0.0476  0.4017
 1504TIP3    H128707   3.351   7.580  17.251  0.9027  0.0564  2.9158
 1504TIP3    H228708   3.305   7.723  17.272  0.5764  0.2216  1.2242
 1505TIP3   OH228709   3.547   6.597  17.067  0.5021  0.5381 -0.3209
 1505TIP3    H128710   3.633   6.629  17.037  0.1927  0.0123 -1.8878
 1505TIP3    H228711   3.527   6.526  17.007 -0.4138 -0.2760  0.9172
 1506TIP3   OH228712   3.801   1.172  16.769 -0.3687  0.1399  0.2100
 1506TIP3    H128713   3.839   1.163  16.857  1.3329 -1.4369 -0.6325
 1506TIP3    H228714   3.813   1.265  16.748  1.0568  0.1376  0.8660
 1507TIP3   OH228715   6.563   3.828  18.175  0.3275  0.4517  0.2894
 1507TIP3    H128716   6.546   3.800  18.085  0.6613  2.0474 -0.3185
 1507TIP3    H228717   6.485   3.800  18.224  0.8820 -1.9291 -0.1028
 1508TIP3   OH228718   7.098   4.194  17.349  0.2099 -0.1456 -0.6278
 1508TIP3    H128719   7.170   4.153  17.302  1.2296  1.7793 -0.8473
 1508TIP3    H228720   7.024   4.135  17.336  1.3494 -1.4028 -1.6984
 1509TIP3   OH228721   2.292   8.279  17.406 -0.3561 -0.2928  0.2008
 1509TIP3    H128722   2.223   8.333  17.444  0.6120  0.4393  0.9606
 1509TIP3    H228723   2.359   8.341  17.379 -0.5796 -0.8830 -1.8408
 1510TIP3   OH228724   2.102   7.128  18.898  0.1617  0.0555  0.1337
 1510TIP3    H128725   2.082   7.034  18.896 -0.4441  0.1572  0.9299
 1510TIP3    H228726   2.197   7.132  18.889  0.0508 -0.5414 -1.7050
 1511TIP3   OH228727   2.876   2.878  17.619 -0.7081  0.0218 -0.1962
 1511TIP3    H128728   2.796   2.877  17.670 -1.7754  2.6329 -1.6138
 1511TIP3    H228729   2.854   2.929  17.541  1.4057 -1.9872 -2.2905
 1512TIP3   OH228730   4.430   1.512  18.058  0.5998 -0.0686  0.3619
 1512TIP3    H128731   4.366   1.578  18.031 -1.3004 -1.2647  1.7075
 1512TIP3    H228732   4.498   1.562  18.104 -1.5919  0.8806  2.7546
 1513TIP3   OH228733   6.939   3.942  18.580 -0.0212 -0.0751  0.1275
 1513TIP3    H128734   6.855   3.981  18.604 -0.0844 -0.4821  0.5968
 1513TIP3    H228735   6.993   4.016  18.554 -0.4803  0.2074 -0.0464
 1514TIP3   OH228736   0.383   5.194  18.900  0.2668 -0.1391  0.4805
 1514TIP3    H128737   0.294   5.166  18.919 -0.2937  1.7170  0.8456
 1514TIP3    H228738   0.420   5.218  18.985  1.0440 -0.6708  0.3063
 1515TIP3   OH228739   2.341   6.155  17.296 -0.4548  0.8639 -0.2349
 1515TIP3    H128740   2.291   6.153  17.214 -0.1324  0.1343 -0.4220
 1515TIP3    H228741   2.431   6.174  17.269  0.6480 -3.7297 -0.6463
 1516TIP3   OH228742   5.270   3.652  16.637  0.1059 -0.4227 -0.2504
 1516TIP3    H128743   5.279   3.737  16.681  0.4330 -0.7901  0.4190
 1516TIP3    H228744   5.352   3.607  16.656 -0.6574 -1.4685  0.6954
 1517TIP3   OH228745   7.855   4.827  18.677  0.2301  0.4195 -0.7636
 1517TIP3    H128746   7.843   4.790  18.764  0.4555 -0.7795 -1.2195
 1517TIP3    H228747   7.772   4.870  18.658  0.0882  0.4635 -0.0662
 1518TIP3   OH228748   4.161   0.264  17.696  0.5702  0.6964  0.1375
 1518TIP3    H128749   4.257   0.261  17.704  0.5194 -0.8209  0.5262
 1518TIP3    H228750   4.134   0.335  17.754  1.3110 -0.4220  1.9260
 1519TIP3   OH228751   1.710   5.590  18.754  0.0468  0.2928  0.0585
 1519TIP3    H128752   1.729   5.610  18.662 -2.4915 -0.5545 -0.7377
 1519TIP3    H228753   1.717   5.494  18.759 -0.1900  0.3041  0.6625
 1520TIP3   OH228754   7.242   7.583  17.783  0.4507 -0.5640 -0.2203
 1520TIP3    H128755   7.219   7.638  17.858  0.3213 -0.8567 -0.0384
 1520TIP3    H228756   7.237   7.641  17.708 -0.2372 -0.4549 -0.0994
 1521TIP3   OH228757   6.767   8.429  18.031  0.4252 -0.3671  0.1950
 1521TIP3    H128758   6.727   8.512  18.057  0.3048 -0.0536 -0.9432
 1521TIP3    H228759   6.758   8.427  17.936 -1.0726 -2.4305  0.3115
 1522TIP3   OH228760   3.516   4.871  17.602 -0.0807 -0.4795 -0.9854
 1522TIP3    H128761   3.497   4.804  17.536  0.6996 -0.4264 -1.2848
 1522TIP3    H228762   3.517   4.953  17.552 -2.2052 -0.0544 -0.4277
 1523TIP3   OH228763   5.255   6.526  18.730  0.2567  0.0362  0.4314
 1523TIP3    H128764   5.263   6.459  18.797  0.5948  1.8493  2.3219
 1523TIP3    H228765   5.342   6.534  18.692  0.5442  0.3113  1.1402
 1524TIP3   OH228766   0.644   4.224  17.548  0.0956 -0.1301 -0.3154
 1524TIP3    H128767   0.687   4.281  17.611  1.2273 -0.9253 -0.3338
 1524TIP3    H228768   0.716   4.188  17.495 -0.3078 -3.0604  0.9203
 1525TIP3   OH228769   3.438   3.243  18.335 -0.0494  0.2203 -0.4209
 1525TIP3    H128770   3.490   3.173  18.296  0.0137  0.8765 -1.5581
 1525TIP3    H228771   3.499   3.317  18.342 -0.0985  0.1747  0.8192
 1526TIP3   OH228772   1.813   6.882  19.020  0.4319 -0.0998 -0.1658
 1526TIP3    H128773   1.729   6.840  19.041  0.2778 -1.4667 -3.0567
 1526TIP3    H228774   1.818   6.880  18.925  4.3344 -1.2771 -0.1095
 1527TIP3   OH228775   2.324   4.970  18.416 -0.7079 -0.1719 -0.1224
 1527TIP3    H128776   2.285   4.993  18.500 -0.4355 -1.3091  0.3258
 1527TIP3    H228777   2.256   4.922  18.369  0.2625 -2.7055  0.9053
 1528TIP3   OH228778   0.480   5.535  17.978  0.4099 -0.0461 -0.4879
 1528TIP3    H128779   0.516   5.511  17.892 -1.0866  0.6121 -1.3336
 1528TIP3    H228780   0.389   5.558  17.960 -0.0520 -0.2971  1.3555
 1529TIP3   OH228781   6.283   0.921  16.441  0.2464 -0.3963 -0.1683
 1529TIP3    H128782   6.261   0.828  16.453  1.7221 -1.1681 -2.6587
 1529TIP3    H228783   6.366   0.932  16.487 -0.0121 -0.2561  0.2687
 1530TIP3   OH228784   0.924   4.169  18.227 -0.2494 -0.1795  0.0350
 1530TIP3    H128785   0.873   4.239  18.268  1.7404  0.6022  1.3716
 1530TIP3    H228786   0.967   4.212  18.153 -1.6266 -0.8865 -1.2200
 1531TIP3   OH228787   7.007   4.748  17.206  0.1863 -0.8163 -0.3692
 1531TIP3    H128788   7.036   4.772  17.294  0.7378 -0.2143 -0.7022
 1531TIP3    H228789   7.087   4.751  17.153 -0.3110 -0.0700 -1.1160
 1532TIP3   OH228790   1.238   4.449  17.486  0.7175  0.2113 -0.4522
 1532TIP3    H128791   1.156   4.399  17.480  0.1193  1.2179 -0.9289
 1532TIP3    H228792   1.299   4.401  17.430  0.3978 -0.4290 -0.2722
 1533TIP3   OH228793   2.350   5.902  17.993  0.6260  0.8350 -0.7613
 1533TIP3    H128794   2.270   5.919  18.043  0.4840  0.5947 -0.9061
 1533TIP3    H228795   2.359   5.807  17.993  1.3518  0.9001 -0.0608
 1534TIP3   OH228796   5.640   7.521  17.333 -0.3150 -0.2772 -0.0574
 1534TIP3    H128797   5.594   7.506  17.415 -0.2444 -1.3339 -0.1952
 1534TIP3    H228798   5.719   7.569  17.358 -0.3970 -0.4090  0.4714
 1535TIP3   OH228799   2.392   0.032  18.191 -0.0543 -0.1465 -0.8232
 1535TIP3    H128800   2.382   0.123  18.217  0.0986 -0.1701 -0.6816
 1535TIP3    H228801   2.458  -0.003  18.251  0.0997 -0.2725 -1.0652
 1536TIP3   OH228802   6.049   3.394  17.399  0.2376  0.5084  0.0751
 1536TIP3    H128803   6.040   3.466  17.461  1.2202  0.4477  0.3069
 1536TIP3    H228804   6.007   3.319  17.443  0.1891  0.6676  0.2990
 1537TIP3   OH228805   4.865   3.357  17.062  0.5857 -0.0598  0.3800
 1537TIP3    H128806   4.906   3.325  16.982  0.4797 -0.2341  0.3932
 1537TIP3    H228807   4.841   3.277  17.110  3.5935 -0.0487  2.1303
 1538TIP3   OH228808   0.347   7.253  17.284 -0.3585 -0.3105 -0.2535
 1538TIP3    H128809   0.286   7.206  17.341 -0.6159 -0.6219 -0.7857
 1538TIP3    H228810   0.306   7.253  17.198  1.2619 -2.2501 -1.1042
 1539TIP3   OH228811   4.180   2.440  16.201 -0.0370  0.0264  0.8281
 1539TIP3    H128812   4.249   2.482  16.253 -0.0687  0.8821  0.1984
 1539TIP3    H228813   4.117   2.510  16.185 -1.5044 -0.9369  2.1070
 1540TIP3   OH228814   2.213   5.867  16.802  0.3926  0.0978  0.2381
 1540TIP3    H128815   2.306   5.852  16.782  0.1578  0.0044 -0.8826
 1540TIP3    H228816   2.186   5.934  16.739 -0.4403 -0.2985  0.1634
 1541TIP3   OH228817   2.176   4.848  17.871  1.1698 -0.0658 -0.7453
 1541TIP3    H128818   2.174   4.944  17.866  0.0149 -0.0400 -0.2087
 1541TIP3    H228819   2.088   4.824  17.900  1.3159 -1.3217 -1.2757
 1542TIP3   OH228820   5.328   7.211  17.214  0.5555 -0.3627  0.6122
 1542TIP3    H128821   5.300   7.188  17.125 -0.8069  0.4607  0.7987
 1542TIP3    H228822   5.358   7.302  17.206 -0.4789  0.0470  1.1442
 1543TIP3   OH228823   0.554   1.373  18.655 -0.5630  0.1992  0.4913
 1543TIP3    H128824   0.523   1.460  18.680  2.5260  1.3425  0.8078
 1543TIP3    H228825   0.479   1.331  18.614 -2.2173  2.9548  0.4911
 1544TIP3   OH228826   4.445   4.047  17.546 -0.3015 -0.0090 -0.1737
 1544TIP3    H128827   4.537   4.074  17.540 -0.4640  0.4983 -0.4610
 1544TIP3    H228828   4.406   4.078  17.465 -0.7641 -0.0974  0.0129
 1545TIP3   OH228829   5.414   7.769  16.971 -0.9239  0.1695 -0.3066
 1545TIP3    H128830   5.484   7.704  16.967 -1.3137 -0.3603  0.8618
 1545TIP3    H228831   5.450   7.847  16.930  0.3259 -0.1190  0.2072
 1546TIP3   OH228832   2.938   0.100  16.749 -0.4448 -0.6510  0.6258
 1546TIP3    H128833   2.924   0.013  16.712  0.7730  0.3697 -2.5673
 1546TIP3    H228834   2.968   0.084  16.838 -0.4269 -3.4611  0.1962
 1547TIP3   OH228835   4.591   0.539  16.836 -0.1517  0.3924 -0.5671
 1547TIP3    H128836   4.535   0.462  16.828 -0.1623  0.3865 -0.4226
 1547TIP3    H228837   4.559   0.598  16.768 -2.4613  1.7405  1.5384
 1548TIP3   OH228838   6.944   1.903  17.513  1.0210  0.2290  0.2253
 1548TIP3    H128839   6.940   1.974  17.449  1.5041 -0.7259 -0.9118
 1548TIP3    H228840   7.029   1.862  17.498  0.8242 -0.4861  0.9746
 1549TIP3   OH228841   1.886   3.427  18.574 -0.0166 -0.2827  0.5660
 1549TIP3    H128842   1.888   3.490  18.502  2.9393 -1.3478 -0.4443
 1549TIP3    H228843   1.942   3.466  18.641 -0.0678 -0.7971  0.9102
 1550TIP3   OH228844   6.688   5.959  16.344 -0.3126 -0.2558  0.2770
 1550TIP3    H128845   6.741   5.902  16.401  1.1404 -0.2355 -0.9852
 1550TIP3    H228846   6.641   5.899  16.287 -0.6159 -0.2416  0.5125
 1551TIP3   OH228847   1.690   7.491  18.903 -0.3710  0.4140  0.1278
 1551TIP3    H128848   1.720   7.404  18.876 -1.4830  0.2096 -0.4866
 1551TIP3    H228849   1.734   7.552  18.843 -0.5090  0.1796 -0.2132
 1552TIP3   OH228850   5.400   4.285  17.529  0.3474  1.0420  0.3385
 1552TIP3    H128851   5.347   4.212  17.497  0.1701  1.6958 -0.9592
 1552TIP3    H228852   5.342   4.361  17.522  0.7792  1.4299  0.9122
 1553TIP3   OH228853   0.907   1.771  18.977  0.2988  0.3666 -0.5487
 1553TIP3    H128854   0.836   1.815  18.929 -0.4944 -1.0155 -0.7026
 1553TIP3    H228855   0.863   1.732  19.052  0.7332 -1.1562 -1.0534
 1554TIP3   OH228856   5.876   3.421  18.604  0.0158 -0.2597  0.1901
 1554TIP3    H128857   5.800   3.478  18.611 -1.2236 -2.0474  2.6458
 1554TIP3    H228858   5.950   3.481  18.592 -1.4444  1.6786  0.4016
 1555TIP3   OH228859   2.819   4.436  17.471  0.6794  0.5589  0.3592
 1555TIP3    H128860   2.761   4.367  17.502  0.4462 -0.6476 -2.4805
 1555TIP3    H228861   2.894   4.433  17.530  0.4446 -1.7851  0.6247
 1556TIP3   OH228862   7.443   3.957  18.549 -0.5483  0.4526  0.1400
 1556TIP3    H128863   7.531   3.940  18.514 -0.8262 -1.3672  0.2072
 1556TIP3    H228864   7.457   3.973  18.642 -0.1173  2.2402 -0.1912
 1557TIP3   OH228865   5.699   5.070  17.865  0.2278  0.4498 -0.2751
 1557TIP3    H128866   5.606   5.082  17.884  0.1186 -2.3140  1.5115
 1557TIP3    H228867   5.704   4.986  17.820  1.8660  0.4022 -0.0674
 1558TIP3   OH228868   5.164   3.297  17.778  0.5368 -1.2509  0.0100
 1558TIP3    H128869   5.146   3.390  17.773 -0.2251 -1.2887  1.5179
 1558TIP3    H228870   5.191   3.282  17.868  0.6964 -2.4841 -0.2141
 1559TIP3   OH228871   2.087   6.945  17.644  0.3618  0.2225 -0.1648
 1559TIP3    H128872   2.137   7.021  17.674  0.8227  1.3349 -3.3840
 1559TIP3    H228873   1.996   6.972  17.652  0.5257  1.3516 -1.6233
 1560TIP3   OH228874   6.415   1.002  16.957 -0.2265  0.2436  0.1629
 1560TIP3    H128875   6.344   1.008  17.021  0.1600 -0.3796  0.6565
 1560TIP3    H228876   6.393   1.068  16.891 -1.0625  0.3232  0.5070
 1561TIP3   OH228877   6.857   0.816  16.812  0.1023 -0.3294  0.2237
 1561TIP3    H128878   6.920   0.887  16.824 -0.5134  0.1407  0.6830
 1561TIP3    H228879   6.869   0.788  16.721 -1.1991  1.8374 -0.6840
 1562TIP3   OH228880   5.436   4.340  18.772 -0.1204 -0.2115 -0.0453
 1562TIP3    H128881   5.473   4.258  18.806 -0.4159 -0.2101  0.2789
 1562TIP3    H228882   5.398   4.383  18.849  1.2722  0.9002  0.0702
 1563TIP3   OH228883   4.726   1.131  17.534  0.2557 -0.4584 -0.0831
 1563TIP3    H128884   4.801   1.099  17.485 -0.5882 -1.7718 -0.5351
 1563TIP3    H228885   4.723   1.076  17.612  0.1904  0.0798  0.3024
 1564TIP3   OH228886   1.643   1.430  18.779 -0.7152 -0.0423  0.5493
 1564TIP3    H128887   1.720   1.454  18.728 -0.1189 -1.6556  0.6471
 1564TIP3    H228888   1.602   1.514  18.801  0.1501  0.7711 -0.8036
 1565TIP3   OH228889   0.713   4.763  17.769  0.0116 -0.1820 -0.3755
 1565TIP3    H128890   0.757   4.704  17.830 -1.0159  0.1849  0.7640
 1565TIP3    H228891   0.650   4.811  17.823  0.6769  1.8438 -1.2869
 1566TIP3   OH228892   7.752   6.121  18.544  0.1571 -0.5565  0.3177
 1566TIP3    H128893   7.789   6.190  18.488  1.4409  0.5375  2.3874
 1566TIP3    H228894   7.686   6.166  18.597 -0.4582 -1.3868  0.2642
 1567TIP3   OH228895   3.435   3.855  17.907 -0.0135  0.1142  0.0939
 1567TIP3    H128896   3.393   3.794  17.846  1.0567 -0.2285 -0.3219
 1567TIP3    H228897   3.375   3.858  17.982 -0.5398 -0.7304 -0.2714
 1568TIP3   OH228898   6.327   6.597  18.583  0.7971 -0.3550  0.1434
 1568TIP3    H128899   6.352   6.533  18.650  2.3082  0.1611  0.1057
 1568TIP3    H228900   6.328   6.548  18.501 -1.6796 -1.1469  0.5079
 1569TIP3   OH228901   5.221   4.809  17.305 -0.1686 -1.1573  0.5607
 1569TIP3    H128902   5.152   4.841  17.363  1.4947  1.8569  1.0835
 1569TIP3    H228903   5.301   4.813  17.358  0.8553 -1.7561 -0.8711
 1570TIP3   OH228904   5.751   5.842  18.950 -0.3651  0.0734 -0.0330
 1570TIP3    H128905   5.773   5.919  18.897  0.0419  1.1238  1.5856
 1570TIP3    H228906   5.679   5.872  19.006 -0.3698 -0.8022  0.4404
 1571TIP3   OH228907   2.145   2.043  17.779  0.2031  0.4707  0.5201
 1571TIP3    H128908   2.084   1.998  17.837  0.2944 -0.5850 -0.1867
 1571TIP3    H228909   2.225   2.052  17.831  1.0705 -2.5076 -0.0999
 1572TIP3   OH228910   7.122   0.428  17.473 -0.1375 -0.1380  0.0085
 1572TIP3    H128911   7.083   0.480  17.402  0.1682  0.4378  0.2525
 1572TIP3    H228912   7.068   0.349  17.478  1.1746 -1.3017 -2.4041
 1573TIP3   OH228913   3.460   7.520  16.779 -0.2954  0.3682  0.3437
 1573TIP3    H128914   3.516   7.595  16.798 -0.3135  0.7956 -1.1343
 1573TIP3    H228915   3.383   7.559  16.735  0.0526 -0.5595 -1.1588
 1574TIP3   OH228916   3.005   0.940  18.223  0.4113  0.3733 -0.0886
 1574TIP3    H128917   3.049   1.023  18.206 -0.6641  0.9043 -0.3935
 1574TIP3    H228918   2.948   0.927  18.147  0.0122 -0.2597  0.3093
 1575TIP3   OH228919   1.620   7.109  17.597 -0.2145  0.0593  0.0326
 1575TIP3    H128920   1.545   7.051  17.587 -1.0474  0.7679  1.7702
 1575TIP3    H228921   1.607   7.152  17.681  3.5999 -1.9157  1.8846
 1576TIP3   OH228922   0.534   4.983  17.732 -0.0301  0.2561 -0.1103
 1576TIP3    H128923   0.505   5.004  17.643 -1.9919  2.2724  0.8835
 1576TIP3    H228924   0.453   4.979  17.783  0.9314 -2.1588  1.3904
 1577TIP3   OH228925   4.883   3.535  18.825 -0.0020 -0.6228 -0.0025
 1577TIP3    H128926   4.896   3.575  18.738  1.5155 -1.3303 -0.1402
 1577TIP3    H228927   4.819   3.592  18.868  1.5190  1.5703 -0.4584
 1578TIP3   OH228928   4.870   3.656  17.085 -0.0668  0.0855  0.3025
 1578TIP3    H128929   4.831   3.691  17.005 -1.5708 -1.4597  0.2939
 1578TIP3    H228930   4.872   3.562  17.072 -0.3196 -0.2053  2.0618
 1579TIP3   OH228931   1.286   6.342  16.946 -0.3974 -0.2487 -0.2328
 1579TIP3    H128932   1.237   6.268  16.983  0.5977  0.2700  2.3324
 1579TIP3    H228933   1.219   6.409  16.932 -1.0797 -1.0792 -1.2350
 1580TIP3   OH228934   2.434   7.332  17.895  0.3981  0.2462 -0.1802
 1580TIP3    H128935   2.340   7.350  17.898  0.4988  0.9874 -1.0082
 1580TIP3    H228936   2.451   7.308  17.804  0.5598 -2.6037  0.5152
 1581TIP3   OH228937   4.375   1.139  17.500  0.1571 -0.3624 -0.5395
 1581TIP3    H128938   4.393   1.134  17.594  2.3254 -0.8327 -0.9309
 1581TIP3    H228939   4.289   1.180  17.494 -0.9157 -2.0847  1.7040
 1582TIP3   OH228940   2.353   2.302  17.048  0.5222  0.0068  0.4476
 1582TIP3    H128941   2.336   2.387  17.088 -0.0736  0.5483 -0.9214
 1582TIP3    H228942   2.439   2.310  17.008  0.5363 -0.0921  0.4562
 1583TIP3   OH228943   2.249   6.925  18.418 -0.3757 -0.4286  0.5393
 1583TIP3    H128944   2.183   6.881  18.471 -1.7256  1.0864  0.1936
 1583TIP3    H228945   2.203   6.950  18.338  0.4886  1.0112  0.4526
 1584TIP3   OH228946   7.964   0.049  18.098 -0.2381 -0.0846  0.1664
 1584TIP3    H128947   7.946   0.139  18.072  1.3046  0.7139  1.6147
 1584TIP3    H228948   8.040   0.024  18.047 -1.5469 -1.1618 -1.3421
 1585TIP3   OH228949   0.798   5.135  19.032 -0.1879 -0.1905 -0.1830
 1585TIP3    H128950   0.711   5.150  19.069 -0.6887 -0.2620 -1.2942
 1585TIP3    H228951   0.820   5.216  18.987 -0.2194 -0.5937 -0.9486
 1586TIP3   OH228952   0.066   7.230  18.597 -0.2633  0.2100 -0.1599
 1586TIP3    H128953  -0.020   7.273  18.597  0.1038  0.9507 -0.4485
 1586TIP3    H228954   0.076   7.199  18.507 -0.2166  0.1370 -0.1295
 1587TIP3   OH228955   0.832   2.733  18.777  0.0153 -0.5778  0.6812
 1587TIP3    H128956   0.905   2.699  18.726 -0.0955 -0.4900  0.4646
 1587TIP3    H228957   0.769   2.661  18.780 -1.9493  0.7574 -3.0412
 1588TIP3   OH228958   2.720   1.285  17.932  0.2261 -0.1275  0.3154
 1588TIP3    H128959   2.744   1.234  18.009  2.1398  1.3327  0.7516
 1588TIP3    H228960   2.706   1.374  17.965  0.0761  0.3126 -0.8759
 1589TIP3   OH228961   6.929   1.795  17.897 -0.1233  0.5796  0.0381
 1589TIP3    H128962   6.917   1.884  17.863 -3.6047  0.3267  0.3206
 1589TIP3    H228963   6.902   1.738  17.825 -1.1318 -0.1325  0.9515
 1590TIP3   OH228964   0.652   0.238  18.117  0.3645  0.0820  0.0546
 1590TIP3    H128965   0.724   0.175  18.114  0.8338  0.6402 -1.6721
 1590TIP3    H228966   0.675   0.298  18.188  0.7338 -0.7283  0.6353
 1591TIP3   OH228967   2.713   7.635  18.014  0.6460  0.3331 -0.1675
 1591TIP3    H128968   2.731   7.541  18.005  0.0589 -0.0327  1.8866
 1591TIP3    H228969   2.797   7.677  17.999  0.8544 -0.4627 -1.4486
 1592TIP3   OH228970   0.340   4.457  17.831 -0.4349  0.2005  0.2553
 1592TIP3    H128971   0.271   4.449  17.766  0.8464 -0.2032 -1.1033
 1592TIP3    H228972   0.400   4.521  17.794 -0.2021  0.7377  1.5316
 1593TIP3   OH228973   3.120   6.915  18.685 -0.5537 -0.2473 -0.1049
 1593TIP3    H128974   3.123   6.833  18.635  0.1654 -0.1005 -0.3254
 1593TIP3    H228975   3.212   6.933  18.706 -0.6176  0.8858 -0.7143
 1594TIP3   OH228976   4.840   3.515  16.780  0.1363 -0.5597 -0.0964
 1594TIP3    H128977   4.842   3.422  16.759 -0.6204 -0.6284  0.0987
 1594TIP3    H228978   4.747   3.538  16.778  0.3034  0.1531  0.0179
 1595TIP3   OH228979   3.701   8.106  17.905 -0.3182 -0.1931 -0.3027
 1595TIP3    H128980   3.621   8.135  17.861 -1.0795 -0.6136  0.7629
 1595TIP3    H228981   3.698   8.148  17.991  1.6110  1.3584 -0.9205
 1596TIP3   OH228982   6.365   0.546  17.244 -0.2009  0.4571  0.4292
 1596TIP3    H128983   6.348   0.584  17.157 -0.4153 -1.0251 -0.2031
 1596TIP3    H228984   6.460   0.533  17.246 -0.3649 -0.9680 -0.2334
 1597TIP3   OH228985   7.187   5.223  19.188  0.4333  0.0150  0.2637
 1597TIP3    H128986   7.184   5.313  19.156 -1.0282 -0.7579 -2.0349
 1597TIP3    H228987   7.101   5.208  19.225 -0.6127 -1.3415 -2.4091
 1598TIP3   OH228988   1.771   2.150  17.471 -0.0534  0.1183  0.1077
 1598TIP3    H128989   1.832   2.111  17.408 -0.4216 -0.6825  0.2442
 1598TIP3    H228990   1.825   2.207  17.525  0.7852 -1.4269  0.9419
 1599TIP3   OH228991   0.805   4.415  18.965 -0.4645  0.6582 -0.1975
 1599TIP3    H128992   0.853   4.401  18.883 -2.4172 -0.1097 -1.2859
 1599TIP3    H228993   0.864   4.466  19.019 -0.0209  3.6069 -3.0982
 1600TIP3   OH228994   7.800   6.904  18.524 -0.5973 -0.2785 -0.0154
 1600TIP3    H128995   7.736   6.852  18.475 -0.2650 -0.2592 -0.4816
 1600TIP3    H228996   7.788   6.878  18.615 -0.1141 -1.5225 -0.2953
 1601TIP3   OH228997   1.597   6.435  17.831  0.1268 -0.0874  0.2769
 1601TIP3    H128998   1.572   6.442  17.923  0.3518  3.7082  0.1834
 1601TIP3    H228999   1.692   6.431  17.832  0.2176  1.4711  0.2342
 1602TIP3   OH229000   8.309   6.355  19.129  0.6585  0.1554 -0.6603
 1602TIP3    H129001   8.330   6.294  19.199  1.0216  1.7607  0.7143
 1602TIP3    H229002   8.228   6.323  19.091  0.6388 -0.9481  0.2780
 1603TIP3   OH229003   7.264   3.769  19.039 -0.5463 -0.4060 -0.1440
 1603TIP3    H129004   7.270   3.840  19.103  0.1103 -0.2214 -0.4047
 1603TIP3    H229005   7.171   3.746  19.038 -0.4008 -1.3905  1.9429
 1604TIP3   OH229006   4.378   8.071  17.890  0.3758 -0.1697 -0.1414
 1604TIP3    H129007   4.462   8.097  17.852  1.0991  0.3582  1.7087
 1604TIP3    H229008   4.372   8.121  17.972 -1.1264 -1.1865  0.4129
 1605TIP3   OH229009   1.442   5.285  18.726 -0.1839  0.1266  0.1132
 1605TIP3    H129010   1.469   5.326  18.644 -1.0986  0.8857  0.1846
 1605TIP3    H229011   1.523   5.277  18.776  0.2887  0.1766 -0.6260
 1606TIP3   OH229012   4.867   4.718  18.656 -0.5194  0.0076  0.1000
 1606TIP3    H129013   4.858   4.787  18.590  0.7812 -0.4615 -0.6004
 1606TIP3    H229014   4.826   4.641  18.615 -0.8852  0.0477  0.3887
 1607TIP3   OH229015   1.987   5.934  16.625 -0.0950  0.2858 -0.1304
 1607TIP3    H129016   1.903   5.889  16.634  0.8328 -1.9426 -1.7382
 1607TIP3    H229017   1.964   6.017  16.584 -1.5964  0.1575  0.3604
 1608TIP3   OH229018   4.469   6.632  18.027 -0.3016 -0.4770 -0.0440
 1608TIP3    H129019   4.436   6.547  18.057 -1.3353 -0.0885 -0.0534
 1608TIP3    H229020   4.434   6.695  18.089 -1.6808  0.2227 -1.4547
 1609TIP3   OH229021   0.681   1.502  17.179  0.5444  0.4655  0.0837
 1609TIP3    H129022   0.663   1.446  17.104 -1.4390  1.1562 -0.0165
 1609TIP3    H229023   0.748   1.563  17.148  1.7896 -0.9983 -0.2056
 1610TIP3   OH229024   2.262   6.452  16.902  0.3618  0.2435 -0.1704
 1610TIP3    H129025   2.209   6.427  16.978  0.8033  0.3794  0.1831
 1610TIP3    H229026   2.229   6.539  16.877 -0.0946  0.0048 -0.4269
 1611TIP3   OH229027   0.683   5.582  17.228  0.2447  0.1490  0.2389
 1611TIP3    H129028   0.624   5.550  17.161  2.0858  1.1011 -1.9784
 1611TIP3    H229029   0.766   5.596  17.183  1.4832  1.2494  2.6314
 1612TIP3   OH229030   6.929   2.747  18.284 -0.3667  0.2263 -0.2015
 1612TIP3    H129031   6.849   2.797  18.267 -1.3036 -1.1195  0.1064
 1612TIP3    H229032   6.907   2.690  18.358  1.0505  0.1962  0.2262
 1613TIP3   OH229033   1.081   7.535  18.283 -0.1319 -0.2456  0.4484
 1613TIP3    H129034   1.029   7.598  18.332  2.8059  2.7315  0.0461
 1613TIP3    H229035   1.132   7.489  18.350  1.4700  1.5317  0.5394
 1614TIP3   OH229036   0.362   4.843  16.802  0.1928 -0.6779 -0.0761
 1614TIP3    H129037   0.297   4.779  16.831 -0.1269 -0.3582 -0.0710
 1614TIP3    H229038   0.309   4.916  16.767  0.5522 -0.5251 -0.3055
 1615TIP3   OH229039   5.728   2.699  17.451  0.6297  0.0771  0.0252
 1615TIP3    H129040   5.809   2.741  17.483  1.1168 -0.5899 -0.3199
 1615TIP3    H229041   5.729   2.715  17.357 -0.7454  1.9355  0.2742
 1616TIP3   OH229042   3.946   5.530  17.647  0.6914 -0.0468 -0.3823
 1616TIP3    H129043   3.948   5.442  17.687 -0.6402  0.1071  0.0799
 1616TIP3    H229044   3.944   5.589  17.722 -1.1183  0.2742 -0.6341
 1617TIP3   OH229045   6.509   6.651  18.335 -0.2231  0.8433 -0.2080
 1617TIP3    H129046   6.464   6.736  18.331 -1.5248  0.2832  1.4503
 1617TIP3    H229047   6.439   6.587  18.348  0.7265 -0.5483 -1.5073
 1618TIP3   OH229048   1.610   3.922  17.420 -0.3253  0.0488 -0.0393
 1618TIP3    H129049   1.687   3.865  17.424 -0.2590  0.0866 -0.7501
 1618TIP3    H229050   1.620   3.971  17.339 -1.0333  0.1459 -0.0755
 1619TIP3   OH229051   6.825   4.705  17.501  0.3285 -0.1322  0.5415
 1619TIP3    H129052   6.856   4.637  17.441  1.8951  0.0786  1.0669
 1619TIP3    H229053   6.894   4.772  17.500  0.4447 -0.1471  2.5927
 1620TIP3   OH229054   4.395   5.713  18.909 -0.5922  0.1119 -0.1638
 1620TIP3    H129055   4.359   5.761  18.984  0.1192  0.4419 -0.0302
 1620TIP3    H229056   4.394   5.777  18.837  0.8134  0.5015  0.1373
 1621TIP3   OH229057   3.460   4.884  18.620  0.3079  0.3737 -0.0138
 1621TIP3    H129058   3.498   4.797  18.629  0.8736  0.5564 -0.5561
 1621TIP3    H229059   3.374   4.877  18.661 -0.0853 -0.7327 -0.9563
 1622TIP3   OH229060   0.907   0.180  16.568  0.3799  0.2398 -0.4250
 1622TIP3    H129061   0.840   0.246  16.554  0.4136  0.2571 -0.5040
 1622TIP3    H229062   0.953   0.208  16.647  0.9347  0.7598 -0.9231
 1623TIP3   OH229063   5.844   4.224  17.389 -0.0216  0.1995  1.0410
 1623TIP3    H129064   5.807   4.212  17.476 -0.0981 -0.7352  0.8883
 1623TIP3    H229065   5.894   4.145  17.372 -1.6794 -0.6003 -0.5593
 1624TIP3   OH229066   2.877   5.796  17.632  0.0171  0.6448  0.4022
 1624TIP3    H129067   2.786   5.778  17.657  0.8480 -1.9959  1.9333
 1624TIP3    H229068   2.928   5.779  17.711  1.9514  0.8956 -0.7227
 1625TIP3   OH229069   6.869   3.811  18.239 -0.2946  0.5833  0.4963
 1625TIP3    H129070   6.850   3.797  18.147  0.5179  0.1328  0.3896
 1625TIP3    H229071   6.927   3.887  18.241 -0.9367  1.0720  0.7014
 1626TIP3   OH229072   2.269   6.373  19.020  0.6936 -0.5758 -0.0303
 1626TIP3    H129073   2.186   6.367  19.067 -1.3343 -1.3050 -3.3848
 1626TIP3    H229074   2.332   6.403  19.086 -2.4309  1.2487  2.4119
 1627TIP3   OH229075   6.740   6.725  17.594  0.6484 -0.3923  0.1037
 1627TIP3    H129076   6.707   6.738  17.505  2.0708 -0.1156 -0.4128
 1627TIP3    H229077   6.757   6.814  17.626  0.7489 -0.5236  0.4170
 1628TIP3   OH229078   3.235   7.504  17.833  0.2692 -0.2020 -0.1049
 1628TIP3    H129079   3.195   7.469  17.912 -0.5027 -2.0993 -1.2830
 1628TIP3    H229080   3.176   7.480  17.762  0.8332  1.6145 -1.2927
 1629TIP3   OH229081   5.003   1.963  17.486  0.2559 -0.1189 -0.6482
 1629TIP3    H129082   4.939   1.919  17.541  0.3426  0.2999 -0.2006
 1629TIP3    H229083   4.979   1.939  17.397 -1.7176  1.5298 -0.6472
 1630TIP3   OH229084   5.163   6.163  17.175  0.4510 -0.1688 -0.0355
 1630TIP3    H129085   5.215   6.102  17.123 -0.5797  0.3976 -1.8244
 1630TIP3    H229086   5.073   6.134  17.164  0.1928 -0.0544  1.5146
 1631TIP3   OH229087   5.103   1.818  17.955  0.3390  0.3545  0.3022
 1631TIP3    H129088   5.119   1.739  17.904  0.4115  0.0006  0.8710
 1631TIP3    H229089   5.011   1.812  17.980  0.8631 -0.6179  2.1343
 1632TIP3   OH229090   6.142   0.879  17.326  0.2948  0.4735 -0.7805
 1632TIP3    H129091   6.059   0.927  17.331  0.8090  1.2888  0.5213
 1632TIP3    H229092   6.137   0.831  17.244 -2.4971 -1.4064  0.3371
 1633TIP3   OH229093   6.070   0.753  17.072  0.1365  0.0554  0.9497
 1633TIP3    H129094   6.152   0.718  17.037  0.4650 -0.0530  1.8155
 1633TIP3    H229095   6.010   0.750  16.997  0.1202 -2.4709  0.9880
 1634TIP3   OH229096   8.259   6.416  16.873 -0.1836  0.4138 -0.3666
 1634TIP3    H129097   8.233   6.466  16.950  0.4811  0.1045  0.0635
 1634TIP3    H229098   8.353   6.434  16.864  0.4522 -2.0149  0.7510
 1635TIP3   OH229099   3.500   0.939  18.797 -0.3806  0.4365  0.1847
 1635TIP3    H129100   3.426   0.879  18.786 -0.5692  0.5821  0.6090
 1635TIP3    H229101   3.475   0.993  18.873 -0.3465  1.2378 -0.3623
 1636TIP3   OH229102   1.695   5.300  17.563 -0.2661 -0.3134  0.2942
 1636TIP3    H129103   1.599   5.302  17.567 -0.3638 -1.6182 -0.6827
 1636TIP3    H229104   1.720   5.391  17.555 -1.5942 -0.0667 -1.8856
 1637TIP3   OH229105   5.215   7.598  17.170  0.3288 -0.2094 -0.0229
 1637TIP3    H129106   5.286   7.535  17.159 -0.9240 -1.3301 -2.4246
 1637TIP3    H229107   5.257   7.674  17.211  2.6488 -1.2620 -0.2896
 1638TIP3   OH229108   6.574   0.349  18.545  0.1695 -0.5193  0.0354
 1638TIP3    H129109   6.579   0.361  18.640  1.0949 -0.1986 -0.0427
 1638TIP3    H229110   6.618   0.426  18.509  0.1280 -0.8092 -0.6422
 1639TIP3   OH229111   1.715   2.378  17.839 -0.2215  0.1416  0.0556
 1639TIP3    H129112   1.769   2.452  17.866  0.3816 -0.2126 -0.1714
 1639TIP3    H229113   1.644   2.417  17.787 -0.1167  0.5916  0.2524
 1640TIP3   OH229114   6.049   3.636  17.960  0.4312  0.2883 -0.0223
 1640TIP3    H129115   6.028   3.557  17.911 -1.5812  0.6121  0.2448
 1640TIP3    H229116   6.121   3.675  17.912  0.2372 -0.7485 -1.2142
 1641TIP3   OH229117   5.936   4.067  18.869 -0.1231 -0.1413  0.0371
 1641TIP3    H129118   5.931   4.097  18.960 -0.1863  0.3932 -0.1382
 1641TIP3    H229119   6.024   4.091  18.841 -0.7013  1.3387 -0.5956
 1642TIP3   OH229120   6.817   0.924  17.765 -0.0268 -0.5411 -0.0189
 1642TIP3    H129121   6.746   0.894  17.822  0.2030  0.8133  1.0330
 1642TIP3    H229122   6.839   1.011  17.798  0.7119 -0.0656 -1.6519
 1643TIP3   OH229123   3.080   1.799  18.247  0.4642 -0.8711 -0.4522
 1643TIP3    H129124   2.999   1.777  18.200  0.1969 -0.5571 -0.1490
 1643TIP3    H229125   3.092   1.893  18.230 -0.6659 -0.2772  1.6006
 1644TIP3   OH229126   2.995   1.633  17.971 -0.1090  0.2598  0.0057
 1644TIP3    H129127   2.992   1.557  18.029  1.2543  0.1441 -0.0429
 1644TIP3    H229128   2.903   1.657  17.958 -0.4987 -0.6138  1.0149
 1645TIP3   OH229129   0.839   0.897  18.635 -0.2416 -0.5604 -0.0507
 1645TIP3    H129130   0.752   0.924  18.604 -0.3895 -1.8123 -0.8123
 1645TIP3    H229131   0.824   0.813  18.676  0.5974 -0.7242 -0.0727
 1646TIP3   OH229132   0.762   3.768  18.939  0.0246 -0.5235 -0.5174
 1646TIP3    H129133   0.829   3.772  19.007  0.2037  0.8029 -0.7503
 1646TIP3    H229134   0.688   3.725  18.981 -0.5813  1.9561  1.1862
 1647TIP3   OH229135   5.864   4.004  18.330  0.0913 -0.2683 -0.6065
 1647TIP3    H129136   5.938   4.039  18.280  0.0878  1.1189  0.3127
 1647TIP3    H229137   5.812   3.956  18.265  1.4365 -0.7222 -1.3970
 1648TIP3   OH229138   4.802   2.080  18.556 -0.2712 -0.3035 -0.0101
 1648TIP3    H129139   4.789   2.117  18.643  1.6397 -2.9197  1.5365
 1648TIP3    H229140   4.723   2.028  18.540 -0.1575 -0.7302  0.7327
 1649TIP3   OH229141   6.515   4.597  17.383 -0.3983  0.0769 -0.3318
 1649TIP3    H129142   6.434   4.586  17.333 -0.5851  2.1173 -0.5486
 1649TIP3    H229143   6.547   4.508  17.396 -0.7891 -0.6273 -3.3355
 1650TIP3   OH229144   3.101   0.621  17.884 -0.1488  0.7125  0.3268
 1650TIP3    H129145   3.031   0.563  17.856  0.3326  0.3751 -0.2121
 1650TIP3    H229146   3.057   0.695  17.926 -0.8843  1.1624 -1.1921
 1651TIP3   OH229147   2.041   3.992  18.298  0.7200  0.0508 -0.9860
 1651TIP3    H129148   1.958   4.032  18.324  1.4434 -0.1122  1.9554
 1651TIP3    H229149   2.071   4.046  18.224 -0.0343  2.8025  0.5617
 1652TIP3   OH229150   5.095   0.081  18.437  0.4443 -0.2877 -0.6332
 1652TIP3    H129151   5.096   0.163  18.487  1.9786  0.0522 -1.1672
 1652TIP3    H229152   5.028   0.095  18.369 -0.7038 -0.2523  0.4626
 1653TIP3   OH229153   0.727   0.766  16.832 -0.3257  0.0100  0.2560
 1653TIP3    H129154   0.755   0.806  16.914  0.4855 -0.4661  0.2273
 1653TIP3    H229155   0.639   0.800  16.816 -0.3377  0.3899  1.1313
 1654TIP3   OH229156   5.709   6.316  17.297  0.1721 -0.7904  0.1114
 1654TIP3    H129157   5.710   6.342  17.389  0.0696  0.5860 -0.2506
 1654TIP3    H229158   5.799   6.333  17.267 -0.3533  0.9633 -0.5909
 1655TIP3   OH229159   8.208   5.430  17.471 -0.1830 -0.1846  0.4503
 1655TIP3    H129160   8.147   5.361  17.447 -0.8830  0.5736 -0.0254
 1655TIP3    H229161   8.168   5.473  17.546 -1.7404  2.1034 -1.5232
 1656TIP3   OH229162   3.847   2.777  18.220 -0.1903  0.4413 -0.0445
 1656TIP3    H129163   3.822   2.809  18.133  1.0184  1.0640 -0.1912
 1656TIP3    H229164   3.920   2.717  18.202  0.2790  0.8248  0.5603
 1657TIP3   OH229165   0.377   1.243  17.759 -0.2252  0.0899  0.3963
 1657TIP3    H129166   0.335   1.302  17.696  0.2177 -0.2928 -0.2750
 1657TIP3    H229167   0.410   1.300  17.828  0.2677  0.6432 -0.2887
 1658TIP3   OH229168   3.227   6.348  17.254 -0.2401  0.7378  0.1050
 1658TIP3    H129169   3.301   6.386  17.301  1.3461 -1.3505 -0.5492
 1658TIP3    H229170   3.174   6.307  17.322  1.1158 -0.7561  0.3284
 1659TIP3   OH229171   5.117   2.652  17.623 -0.4908 -0.0814  0.3537
 1659TIP3    H129172   5.207   2.675  17.648  0.1450  2.5018 -3.4343
 1659TIP3    H229173   5.127   2.609  17.537 -2.8581  0.5296 -0.2876
 1660TIP3   OH229174   8.325   2.501  17.710  0.3266  0.5513 -0.1175
 1660TIP3    H129175   8.351   2.575  17.655  0.8381 -0.0990 -0.7694
 1660TIP3    H229176   8.402   2.482  17.763  0.8832 -0.7118 -1.3112
 1661TIP3   OH229177   7.636   3.453  17.734  0.3163  0.0912  0.1925
 1661TIP3    H129178   7.717   3.422  17.775 -0.0817 -0.3850  0.6323
 1661TIP3    H229179   7.598   3.375  17.693  0.3695  0.4299 -0.5043
 1662TIP3   OH229180   3.193   5.587  18.186 -0.3172 -0.4085 -0.0020
 1662TIP3    H129181   3.101   5.610  18.171 -0.8205 -1.6731  0.9388
 1662TIP3    H229182   3.190   5.525  18.259  1.1886 -1.3004 -0.6626
 1663TIP3   OH229183   4.700   2.391  18.274 -0.0662  0.5085 -0.2511
 1663TIP3    H129184   4.715   2.414  18.183  0.6504  0.3201 -0.1871
 1663TIP3    H229185   4.779   2.344  18.301  0.2698  1.6056  0.8039
 1664TIP3   OH229186   6.335   1.998  18.571 -0.1134 -0.2624 -0.6032
 1664TIP3    H129187   6.277   2.026  18.642 -1.0501 -0.5698 -1.2452
 1664TIP3    H229188   6.355   1.907  18.591  0.1867 -0.1468 -0.3642
 1665TIP3   OH229189   3.321   2.612  17.782 -0.1726 -0.1805 -0.2887
 1665TIP3    H129190   3.294   2.534  17.733 -0.7741  0.7126 -1.4314
 1665TIP3    H229191   3.262   2.681  17.751  2.0007  1.3444 -1.2760
 1666TIP3   OH229192   5.759   1.031  17.827  0.3627 -0.6160 -0.3497
 1666TIP3    H129193   5.851   1.040  17.851  0.5601 -0.5899 -1.0879
 1666TIP3    H229194   5.743   1.104  17.767 -0.4720  0.1139  0.7423
 1667TIP3   OH229195   2.076   8.065  18.331 -0.8485 -0.3424 -0.5808
 1667TIP3    H129196   2.020   8.123  18.382 -0.8220  0.3817 -1.3558
 1667TIP3    H229197   2.122   8.123  18.270 -0.5157 -1.1234 -1.0881
 1668TIP3   OH229198   6.627   6.621  17.809 -0.4733  0.4907 -0.2745
 1668TIP3    H129199   6.681   6.662  17.741 -1.9941 -0.0568 -1.8782
 1668TIP3    H229200   6.590   6.694  17.858 -1.2956  0.9923 -1.6039
 1669TIP3   OH229201   7.287   0.649  18.250  0.0098 -0.4556  0.5347
 1669TIP3    H129202   7.357   0.631  18.186  0.0889 -0.0950  0.5186
 1669TIP3    H229203   7.329   0.704  18.316 -0.0371 -0.9321  0.9699
 1670TIP3   OH229204   2.948   3.858  16.886  0.1375 -0.0837 -0.0734
 1670TIP3    H129205   2.988   3.772  16.894  1.4797  0.5839  0.9096
 1670TIP3    H229206   2.998   3.901  16.816 -1.0806 -0.3642 -1.1589
 1671TIP3   OH229207   2.770   5.473  19.034  0.0423 -0.4717  0.1535
 1671TIP3    H129208   2.678   5.449  19.046 -0.3420  0.5006 -0.7616
 1671TIP3    H229209   2.772   5.568  19.043  0.6543 -0.2897 -1.5630
 1672TIP3   OH229210   1.612   0.823  17.855 -0.0400  0.2607 -0.2246
 1672TIP3    H129211   1.576   0.863  17.934 -0.0266 -1.4342  0.6755
 1672TIP3    H229212   1.544   0.763  17.825 -0.5336  1.6792 -2.2134
 1673TIP3   OH229213   1.993   2.152  16.704  0.7714  0.2657 -0.1997
 1673TIP3    H129214   1.929   2.216  16.671  0.1495 -0.5732 -0.6562
 1673TIP3    H229215   2.009   2.178  16.794 -0.2334  0.4871 -0.0739
 1674TIP3   OH229216   6.532   7.457  16.872  0.2011 -0.2169 -0.1376
 1674TIP3    H129217   6.594   7.431  16.939  1.0500 -1.6651 -1.4331
 1674TIP3    H229218   6.448   7.422  16.902  0.5523 -0.7717  0.2026
 1675TIP3   OH229219   7.311   1.028  18.150 -0.0018 -0.0206  0.1440
 1675TIP3    H129220   7.245   0.961  18.135  0.4489 -0.1311 -1.6797
 1675TIP3    H229221   7.287   1.099  18.090  0.8232  0.4675  0.3677
 1676TIP3   OH229222   2.468   2.412  17.606  0.0345 -0.0925  0.1949
 1676TIP3    H129223   2.561   2.393  17.596 -0.1539 -0.4965 -0.9451
 1676TIP3    H229224   2.445   2.372  17.690  0.8588 -0.0834  0.4362
 1677TIP3   OH229225   6.366   3.633  18.651  0.2238  0.0099  0.2298
 1677TIP3    H129226   6.344   3.688  18.726 -0.6761  0.2626 -0.1963
 1677TIP3    H229227   6.461   3.638  18.644  0.4601 -1.0524  2.1195
 1678TIP3   OH229228   5.653   6.089  17.809  0.1460 -0.0708 -0.3053
 1678TIP3    H129229   5.729   6.118  17.860 -0.6219 -0.0331  0.8568
 1678TIP3    H229230   5.617   6.170  17.773 -0.4316  0.1439  0.7151
 1679TIP3   OH229231   0.743   4.981  18.646  0.1705 -0.8482  0.5642
 1679TIP3    H129232   0.664   5.029  18.622 -1.9748 -3.3733  2.0921
 1679TIP3    H229233   0.815   5.036  18.615 -2.1112 -0.1206 -4.3900
 1680TIP3   OH229234   4.777   2.933  16.329 -0.1623 -0.2437  0.1210
 1680TIP3    H129235   4.827   2.864  16.287  1.0341  2.1187 -2.7228
 1680TIP3    H229236   4.834   2.965  16.400  0.0319 -0.9825  0.3055
 1681TIP3   OH229237   6.299   0.937  18.226  0.4188 -0.2280 -0.2477
 1681TIP3    H129238   6.365   0.997  18.193 -0.1161  0.6629  0.2407
 1681TIP3    H229239   6.243   0.918  18.150 -0.4594  1.3396 -0.0453
 1682TIP3   OH229240   5.024   3.668  16.515  0.0980  0.6843 -0.5284
 1682TIP3    H129241   5.028   3.589  16.462 -2.1169 -0.6195  1.0853
 1682TIP3    H229242   5.107   3.670  16.563 -0.1882 -1.2355  0.1165
 1683TIP3   OH229243   2.733   6.283  18.441  0.7019  0.6176 -0.5425
 1683TIP3    H129244   2.758   6.196  18.473 -0.6975  0.5717  0.5195
 1683TIP3    H229245   2.691   6.266  18.357  0.6735  0.2900 -0.4642
 1684TIP3   OH229246   7.301   2.417  16.998  0.4095 -0.3770  0.0589
 1684TIP3    H129247   7.384   2.418  16.950  0.9894  1.3585  0.9781
 1684TIP3    H229248   7.325   2.390  17.087 -0.1853 -0.8186  0.0914
 1685TIP3   OH229249   6.913   1.181  17.445  0.3365 -0.4319  0.0250
 1685TIP3    H129250   6.862   1.104  17.473  0.2413 -0.7144 -0.8772
 1685TIP3    H229251   6.878   1.253  17.497  0.4307 -0.9980  0.8922
 1686TIP3   OH229252   0.621   3.157  18.517  0.0282 -0.0838 -0.4043
 1686TIP3    H129253   0.611   3.133  18.609  0.8442  0.5303 -0.1390
 1686TIP3    H229254   0.533   3.182  18.488 -0.1338  0.2855  0.3841
 1687TIP3   OH229255   2.793   2.217  17.587 -0.4890  0.2196  0.1090
 1687TIP3    H129256   2.760   2.230  17.498 -0.0407  3.1124  0.2673
 1687TIP3    H229257   2.871   2.271  17.592  1.0174 -1.9179  1.5417
 1688TIP3   OH229258   5.455   2.420  18.835  0.0202 -0.2005  0.3088
 1688TIP3    H129259   5.539   2.442  18.796 -0.0654 -0.1328  0.1619
 1688TIP3    H229260   5.472   2.342  18.887  0.1739 -0.1853  0.2811
 1689TIP3   OH229261   1.393   7.200  18.773 -0.1630 -0.2623 -0.0698
 1689TIP3    H129262   1.389   7.284  18.726  1.3342 -1.2060 -2.0136
 1689TIP3    H229263   1.473   7.206  18.825 -0.0167 -0.5246 -0.2676
 1690TIP3   OH229264   6.826   0.487  18.545 -0.0280  0.0824 -0.0180
 1690TIP3    H129265   6.856   0.439  18.622 -1.2127 -1.9199 -0.7268
 1690TIP3    H229266   6.903   0.533  18.514  1.5071 -2.2575  0.0778
 1691TIP3   OH229267   6.066   8.058  17.342  0.0082  0.0049  0.3226
 1691TIP3    H129268   6.098   8.077  17.253 -1.0815  0.6404  0.0500
 1691TIP3    H229269   6.139   8.084  17.399  0.7109 -0.3766 -0.3748
 1692TIP3   OH229270   1.548   3.505  17.127  0.0406  0.0329 -0.1081
 1692TIP3    H129271   1.589   3.486  17.211  2.5237  1.0301 -1.0124
 1692TIP3    H229272   1.455   3.517  17.148  0.1105 -2.4314  2.0201
 1693TIP3   OH229273   4.164   3.077  17.496 -0.1757  0.1011 -0.0729
 1693TIP3    H129274   4.167   3.023  17.417 -0.6581 -0.3765  0.2212
 1693TIP3    H229275   4.254   3.080  17.527  0.1087  0.7560 -0.9442
 1694TIP3   OH229276   2.216   1.959  16.665 -0.0588 -0.7968  0.4555
 1694TIP3    H129277   2.193   1.922  16.751 -0.7345 -1.9196 -0.1932
 1694TIP3    H229278   2.140   2.012  16.641  0.2775 -0.1936  0.6937
 1695TIP3   OH229279   2.905   1.645  18.533 -0.1580 -0.1291  0.1787
 1695TIP3    H129280   2.847   1.700  18.479  0.3351  1.5168  1.2615
 1695TIP3    H229281   2.967   1.707  18.572  0.1584 -1.4162  1.7914
 1696TIP3   OH229282   7.926   4.569  17.501 -0.5579  0.3371  0.1201
 1696TIP3    H129283   7.875   4.645  17.530 -0.8815 -0.3459  1.4103
 1696TIP3    H229284   7.861   4.510  17.463 -0.5381  0.0341  0.5548
 1697TIP3   OH229285   6.637   5.312  18.502 -0.2395  0.4822 -0.1631
 1697TIP3    H129286   6.603   5.234  18.459  1.7791  0.0497 -1.0707
 1697TIP3    H229287   6.731   5.312  18.482 -0.1166  2.9504  0.1215
 1698TIP3   OH229288   7.897   6.944  16.513  0.5131 -0.3982 -0.2647
 1698TIP3    H129289   7.860   6.860  16.540  0.5923  0.0313  1.2774
 1698TIP3    H229290   7.984   6.946  16.553  0.4337  0.5020 -0.1214
 1699TIP3   OH229291   1.962   2.227  18.554  0.3356 -0.3369 -0.3712
 1699TIP3    H129292   1.905   2.162  18.594  0.1818  0.8689  1.4768
 1699TIP3    H229293   1.928   2.238  18.465 -0.9334 -1.2064 -0.0134
 1700TIP3   OH229294   7.263   4.412  17.398  0.0956  0.0387  0.5675
 1700TIP3    H129295   7.189   4.353  17.413  1.5204 -1.8310  0.5452
 1700TIP3    H229296   7.306   4.377  17.320  0.9929  1.1052  0.5551
 1701TIP3   OH229297   1.089   2.876  18.466 -0.5094 -0.3814  0.0253
 1701TIP3    H129298   1.048   2.928  18.535  1.5949  0.1163  0.9869
 1701TIP3    H229299   1.103   2.790  18.506 -1.7926 -0.9972 -0.7643
 1702TIP3   OH229300   5.543   1.363  17.464 -0.3741 -0.2309 -0.1467
 1702TIP3    H129301   5.538   1.324  17.551 -0.6385  0.2156  0.0416
 1702TIP3    H229302   5.612   1.429  17.471  1.0617 -1.5973 -0.8424
 1703TIP3   OH229303   2.716   5.716  16.841 -0.3874  0.4712  0.0825
 1703TIP3    H129304   2.784   5.755  16.896 -0.9811  1.2025  0.3215
 1703TIP3    H229305   2.684   5.641  16.891 -0.1351  0.4525  0.2149
 1704TIP3   OH229306   3.605   6.064  17.891 -0.6020  0.4651 -0.3656
 1704TIP3    H129307   3.516   6.047  17.922 -0.7156  3.3352  1.1853
 1704TIP3    H229308   3.606   6.157  17.867  1.0423 -0.2718 -3.9421
 1705TIP3   OH229309   5.513   6.551  17.689  0.1688 -0.2619 -0.6284
 1705TIP3    H129310   5.594   6.558  17.738  0.0736  0.5723 -0.5756
 1705TIP3    H229311   5.483   6.461  17.703  1.5120 -0.8431 -1.3451
 1706TIP3   OH229312   8.356   6.285  17.217 -0.7647  0.2333  0.4060
 1706TIP3    H129313   8.279   6.334  17.188  0.2868  1.0743 -1.0767
 1706TIP3    H229314   8.379   6.230  17.143  0.8864  1.0483  0.2541
 1707TIP3   OH229315   1.828   3.677  18.470  0.3919 -0.4823  0.1898
 1707TIP3    H129316   1.802   3.729  18.545 -1.8757 -1.2015 -0.0180
 1707TIP3    H229317   1.825   3.738  18.396  0.3674 -0.2862  0.3532
 1708TIP3   OH229318   6.966   6.203  17.117  0.1264  0.2258  0.0896
 1708TIP3    H129319   7.058   6.176  17.116 -0.1818 -0.8895  0.7135
 1708TIP3    H229320   6.945   6.218  17.025  0.2530 -1.9581 -0.3473
 1709TIP3   OH229321   4.863   3.383  18.139 -0.0978  0.0835 -0.2915
 1709TIP3    H129322   4.871   3.293  18.106  0.5101  0.8788 -2.4837
 1709TIP3    H229323   4.865   3.373  18.234  0.6426 -2.1625 -0.4620
 1710TIP3   OH229324   0.988   7.182  18.464  0.1009  0.1770 -0.4117
 1710TIP3    H129325   0.947   7.144  18.386  0.5765  1.8954 -1.5789
 1710TIP3    H229326   0.945   7.140  18.538 -2.4880  0.6151 -1.5868
 1711TIP3   OH229327   5.296   4.128  18.048  0.1852 -0.3551  0.3267
 1711TIP3    H129328   5.359   4.180  18.098  1.2706  0.8509 -2.1226
 1711TIP3    H229329   5.350   4.067  17.997 -0.5057  0.9236 -2.0699
 1712TIP3   OH229330   2.390   7.659  18.708  0.2594  0.0506  0.6132
 1712TIP3    H129331   2.351   7.575  18.731  0.8040 -0.3823  0.0041
 1712TIP3    H229332   2.318   7.722  18.712 -0.1281 -0.4227  1.1852
 1713TIP3   OH229333   4.815   2.269  17.027  0.1250  0.1853 -0.3118
 1713TIP3    H129334   4.844   2.343  16.974 -1.3130  1.3875  0.5013
 1713TIP3    H229335   4.751   2.223  16.973  0.4241  0.0109 -0.5154
 1714TIP3   OH229336   7.386   2.665  17.411 -0.2624  0.7059  0.0968
 1714TIP3    H129337   7.353   2.679  17.499  2.6277  3.1501  0.9466
 1714TIP3    H229338   7.452   2.596  17.420 -0.9516 -0.0614 -0.4883
 1715TIP3   OH229339   8.228   2.720  17.882  0.2354  0.5604 -0.0672
 1715TIP3    H129340   8.261   2.687  17.799 -1.1543  3.3833 -1.9164
 1715TIP3    H229341   8.135   2.738  17.866 -0.2045  0.7659  2.2737
 1716TIP3   OH229342   1.955   6.211  16.569  0.1278  0.7814  0.1776
 1716TIP3    H129343   1.984   6.235  16.481 -0.7458  1.4889  0.0684
 1716TIP3    H229344   1.995   6.278  16.626  0.1258  0.7339  0.2363
 1717TIP3   OH229345   1.057   6.969  19.018  0.2670  0.4995 -0.2456
 1717TIP3    H129346   1.121   6.937  19.081 -0.1440 -2.9717 -1.3636
 1717TIP3    H229347   1.093   7.051  18.985  2.8371 -0.0368  1.0310
 1718TIP3   OH229348   1.109   3.649  19.091 -0.3979 -0.3778 -0.3493
 1718TIP3    H129349   1.126   3.617  19.003 -0.3282 -0.5400 -0.2771
 1718TIP3    H229350   1.092   3.570  19.142 -0.9441 -0.2503 -0.3295
 1719TIP3   OH229351   6.310   0.627  16.607  0.2621 -0.4358  0.3393
 1719TIP3    H129352   6.406   0.629  16.608  0.3074 -1.7118  0.2119
 1719TIP3    H229353   6.284   0.706  16.653  1.3839 -0.1429  0.4953
 1720TIP3   OH229354   1.119   4.047  18.959  0.1131  0.1658  0.9546
 1720TIP3    H129355   1.116   4.033  18.865 -0.3080  0.9647  0.8354
 1720TIP3    H229356   1.133   4.142  18.969 -1.5223  0.3749  1.6799
 1721TIP3   OH229357   1.583   2.637  18.641 -0.2826  0.2148  0.4605
 1721TIP3    H129358   1.660   2.685  18.672  0.0946  1.0641 -1.6447
 1721TIP3    H229359   1.618   2.558  18.601 -0.6586 -0.2103  0.9494
 1722TIP3   OH229360   6.522   7.914  17.342 -0.8942  0.5978 -0.2718
 1722TIP3    H129361   6.551   8.006  17.341 -0.5274  0.5427  1.7966
 1722TIP3    H229362   6.532   7.887  17.433 -0.0876 -1.8013 -1.0068
 1723TIP3   OH229363   4.203   2.248  16.870 -0.0519  0.4482 -0.0549
 1723TIP3    H129364   4.182   2.313  16.802 -0.5474 -0.2348 -0.5660
 1723TIP3    H229365   4.165   2.167  16.838  1.6082 -0.3817  0.0076
 1724TIP3   OH229366   0.286   4.609  19.179 -0.1313 -0.5904 -0.2820
 1724TIP3    H129367   0.309   4.568  19.262 -1.0768  1.0614  0.8705
 1724TIP3    H229368   0.369   4.639  19.143  0.1115  0.5413  1.1408
 1725TIP3   OH229369   0.759   8.224  17.625  0.2006  0.3500  0.0094
 1725TIP3    H129370   0.835   8.226  17.567 -0.4495 -0.3968 -0.8956
 1725TIP3    H229371   0.695   8.171  17.578 -0.9527  1.1314  0.6657
 1726TIP3   OH229372   5.024   2.123  17.144 -0.4023 -0.3203  0.1055
 1726TIP3    H129373   4.951   2.162  17.096 -0.5884 -1.2673 -0.4153
 1726TIP3    H229374   4.992   2.036  17.169  0.2885 -0.4648  0.5102
 1727TIP3   OH229375   1.728   6.666  16.520 -0.2037  0.9347 -0.3446
 1727TIP3    H129376   1.717   6.751  16.479 -0.0766  1.0499 -0.1433
 1727TIP3    H229377   1.672   6.668  16.597  0.2411  1.0536 -0.0191
 1728TIP3   OH229378   4.433   6.761  17.420  0.1016 -0.0256  0.6151
 1728TIP3    H129379   4.454   6.669  17.406 -0.0438  0.1748 -1.3379
 1728TIP3    H229380   4.480   6.806  17.349 -0.5252  1.2923  1.0090
 1729TIP3   OH229381   6.307   8.286  17.813  0.4926  0.0707 -0.0454
 1729TIP3    H129382   6.336   8.324  17.896  0.6234 -0.7242  0.2798
 1729TIP3    H229383   6.340   8.196  17.815  1.2963  0.3092 -1.3726
 1730TIP3   OH229384   3.236   2.156  17.519  0.2444  0.0782 -0.2491
 1730TIP3    H129385   3.302   2.089  17.507 -0.6506 -0.9036  0.0934
 1730TIP3    H229386   3.153   2.111  17.503 -0.6334  0.1588  3.2454
 1731TIP3   OH229387   1.404   0.058  17.359 -0.1366  0.0632 -0.3338
 1731TIP3    H129388   1.422  -0.014  17.297 -2.6782 -0.5126 -0.5056
 1731TIP3    H229389   1.369   0.128  17.304  0.4405  0.7059  0.1038
 1732TIP3   OH229390   6.013   2.684  18.584 -0.3641 -0.6013  0.7273
 1732TIP3    H129391   6.055   2.770  18.582  1.6287 -1.4789  1.8574
 1732TIP3    H229392   5.945   2.692  18.651 -0.6239  0.2598  0.3671
 1733TIP3   OH229393   3.545   1.610  18.620  0.1646  0.2082 -0.0958
 1733TIP3    H129394   3.591   1.603  18.537  0.6022 -0.7160  0.2132
 1733TIP3    H229395   3.612   1.596  18.686  0.1268  2.4103  0.5050
 1734TIP3   OH229396   6.213   6.060  17.860 -0.0429  0.5141  0.6224
 1734TIP3    H129397   6.149   6.029  17.925  0.4418 -0.2327  0.7538
 1734TIP3    H229398   6.183   6.021  17.778  0.3018  0.0786  0.7033
 1735TIP3   OH229399   2.234   8.076  17.914 -0.1015 -0.5950 -0.0309
 1735TIP3    H129400   2.148   8.116  17.929 -0.5831 -1.9176  0.8544
 1735TIP3    H229401   2.217   7.982  17.907  1.4188 -1.0402  1.5453
 1736TIP3   OH229402   1.386   4.668  18.087  0.3011 -0.5305 -0.3779
 1736TIP3    H129403   1.360   4.610  18.159  0.4094 -0.2721 -0.1294
 1736TIP3    H229404   1.472   4.702  18.112  0.1675 -0.1372 -0.4453
 1737TIP3   OH229405   5.760   5.863  16.463 -0.1688 -0.1793  0.0870
 1737TIP3    H129406   5.797   5.935  16.513  1.0232 -0.8927  0.2747
 1737TIP3    H229407   5.694   5.825  16.521  0.0114  0.0516  0.4457
 1738TIP3   OH229408   1.592   6.409  18.937  0.2668 -0.0846  0.4476
 1738TIP3    H129409   1.538   6.410  18.858 -0.0995 -1.0180  0.6708
 1738TIP3    H229410   1.600   6.502  18.962 -0.5823  0.1258 -0.0273
 1739TIP3   OH229411   3.826   3.162  17.508  0.5214  0.1874  0.1973
 1739TIP3    H129412   3.778   3.241  17.533  0.3445 -0.2344  1.2442
 1739TIP3    H229413   3.891   3.193  17.445  0.2473  1.1117  0.3446
 1740TIP3   OH229414   3.250   1.459  17.947  0.1537  0.2347 -0.0664
 1740TIP3    H129415   3.202   1.517  18.007 -0.6168 -1.0219  0.5550
 1740TIP3    H229416   3.195   1.455  17.868 -0.9596 -1.4192  0.7476
 1741TIP3   OH229417   7.101   2.756  18.929  0.3446  0.3877  0.3928
 1741TIP3    H129418   7.009   2.766  18.953  0.2306  0.7547 -0.1762
 1741TIP3    H229419   7.148   2.809  18.992  0.2019 -0.1132  0.9302
 1742TIP3   OH229420   2.110   1.595  17.975 -0.3188  0.1542  0.2183
 1742TIP3    H129421   2.037   1.533  17.970 -0.8058  0.5737  1.5509
 1742TIP3    H229422   2.180   1.545  18.018  0.0868 -0.1532 -0.7786
 1743TIP3   OH229423   7.863   0.158  18.360  0.1098 -0.7977  0.0347
 1743TIP3    H129424   7.875   0.141  18.266 -0.2465 -0.8898  0.0023
 1743TIP3    H229425   7.932   0.107  18.403 -0.8486 -2.2551 -0.0718
 1744TIP3   OH229426   1.341   0.118  17.074  0.1083 -0.3109 -0.5915
 1744TIP3    H129427   1.408   0.069  17.026  0.0993 -1.6506  0.6834
 1744TIP3    H229428   1.258   0.090  17.036  0.1432 -0.7798 -0.3347
 1745TIP3   OH229429   4.218   2.044  18.450  0.7603  0.3429  0.3630
 1745TIP3    H129430   4.260   2.058  18.365 -0.4850  0.8736 -0.1935
 1745TIP3    H229431   4.247   2.118  18.503  1.1084  0.3166  0.2075
 1746TIP3   OH229432   2.948   5.277  17.860  0.3616  0.3233  0.3361
 1746TIP3    H129433   2.970   5.370  17.872  0.1103  0.3753  0.3921
 1746TIP3    H229434   3.019   5.243  17.805  0.1880  0.6636 -0.1013
 1747TIP3   OH229435   6.974   5.905  16.253 -0.4326  0.0669 -0.2215
 1747TIP3    H129436   6.894   5.938  16.213 -0.7721  0.2317  0.5826
 1747TIP3    H229437   6.996   5.968  16.321  0.5116  0.1447 -0.5746
 1748TIP3   OH229438   1.216   0.825  18.082 -0.0391 -0.3935 -0.7352
 1748TIP3    H129439   1.248   0.737  18.103  0.7074  0.2423  1.0224
 1748TIP3    H229440   1.145   0.840  18.145  2.0421  1.4721  1.3969
 1749TIP3   OH229441   7.826   1.400  18.174 -0.0732 -0.3156  0.2028
 1749TIP3    H129442   7.865   1.434  18.254  0.3106  0.9871 -0.5071
 1749TIP3    H229443   7.879   1.438  18.103 -1.4330 -0.0607 -0.7161
 1750TIP3   OH229444   1.947   5.418  18.520 -0.5293 -0.6174  0.5610
 1750TIP3    H129445   1.910   5.373  18.444  0.2288 -1.6141  0.7730
 1750TIP3    H229446   1.923   5.510  18.507  0.4554 -0.5888 -1.4116
 1751TIP3   OH229447   6.336   3.748  18.317  0.5417 -0.1528 -0.2283
 1751TIP3    H129448   6.308   3.753  18.409  1.2858  0.0763 -0.0021
 1751TIP3    H229449   6.272   3.802  18.270 -0.1055 -0.6301  0.0870
 1752TIP3   OH229450   8.144   5.470  19.037 -0.5332 -0.0053 -0.0477
 1752TIP3    H129451   8.066   5.440  18.989  0.0971 -0.0466 -1.0719
 1752TIP3    H229452   8.178   5.392  19.079 -0.6706 -0.1149 -0.1368
 1753TIP3   OH229453   6.126   1.944  18.356  0.7725  0.2394  0.0585
 1753TIP3    H129454   6.204   1.986  18.393  0.5751  1.6715 -1.0669
 1753TIP3    H229455   6.074   2.016  18.322  0.1308 -0.8802 -1.4522
 1754TIP3   OH229456   7.448   1.822  19.073  0.4174  0.3971 -0.6540
 1754TIP3    H129457   7.542   1.823  19.091  0.4840  0.5764 -0.9948
 1754TIP3    H229458   7.412   1.762  19.138  0.9161 -0.5668 -1.2480
 1755TIP3   OH229459   8.383   4.165  17.419 -0.3284 -0.1932 -0.2157
 1755TIP3    H129460   8.330   4.238  17.386 -1.3392  0.2064  2.0786
 1755TIP3    H229461   8.447   4.149  17.350 -1.0856  1.8091 -1.4810
 1756TIP3   OH229462   4.041   4.866  18.931 -0.0338  0.0477  0.7824
 1756TIP3    H129463   4.078   4.798  18.986  1.4028 -0.8243 -1.1348
 1756TIP3    H229464   4.068   4.842  18.842  0.3335  2.9961  0.0047
 1757TIP3   OH229465   0.079   5.218  18.359  0.2807  0.3488 -0.0143
 1757TIP3    H129466   0.072   5.125  18.382  0.9158  0.2366 -0.2528
 1757TIP3    H229467   0.170   5.240  18.376  0.1917  0.8677 -0.1932
 1758TIP3   OH229468   7.917   1.187  17.803 -0.4868  0.0680 -0.0929
 1758TIP3    H129469   7.839   1.229  17.767 -0.6184  0.5186  0.6981
 1758TIP3    H229470   7.907   1.095  17.780 -0.3500  0.3956 -1.5701
 1759TIP3   OH229471   1.262   2.881  17.024 -0.3471 -0.3155 -0.6133
 1759TIP3    H129472   1.190   2.861  16.963 -1.0652 -0.2198  0.1840
 1759TIP3    H229473   1.273   2.801  17.075  1.6492 -1.1293 -2.2059
 1760TIP3   OH229474   5.603   2.417  17.380  0.0546  0.5415 -0.1948
 1760TIP3    H129475   5.681   2.420  17.325  1.0990 -0.9343  1.1075
 1760TIP3    H229476   5.531   2.404  17.319  1.0652 -0.0165 -1.3033
 1761TIP3   OH229477   3.616   1.375  18.455 -0.4694  0.5098  0.2248
 1761TIP3    H129478   3.526   1.358  18.482 -0.4834 -3.4454 -1.6809
 1761TIP3    H229479   3.669   1.326  18.517 -0.0884 -1.9488 -1.8781
 1762TIP3   OH229480   7.891   8.399  17.787  0.4939  0.1925  0.9137
 1762TIP3    H129481   7.890   8.345  17.866  0.0484  0.7992  1.3391
 1762TIP3    H229482   7.805   8.442  17.786  1.0668  1.3920  0.9507
 1763TIP3   OH229483   7.267   2.112  17.367 -0.1227  0.3438  0.2545
 1763TIP3    H129484   7.179   2.135  17.336 -0.4851 -1.4223 -0.1321
 1763TIP3    H229485   7.296   2.045  17.305  2.6438  2.7435 -1.2989
 1764TIP3   OH229486   2.583   5.445  18.607 -0.2566  0.5077  0.0123
 1764TIP3    H129487   2.636   5.500  18.549 -0.8579  0.6196 -0.4365
 1764TIP3    H229488   2.547   5.377  18.550  0.8727 -0.6621  0.6486
 1765TIP3   OH229489   3.201   4.591  17.254 -0.0297 -0.3370  0.2296
 1765TIP3    H129490   3.263   4.593  17.182  0.2742 -1.2367  0.4583
 1765TIP3    H229491   3.255   4.595  17.333 -0.2327 -1.4108  0.4365
 1766TIP3   OH229492   8.207   5.836  16.938  0.4307 -0.3593 -0.1770
 1766TIP3    H129493   8.290   5.883  16.947  0.1738  0.6593 -2.3527
 1766TIP3    H229494   8.171   5.867  16.855 -2.8349  0.3228  1.3307
 1767TIP3   OH229495   5.518   5.862  17.682 -0.2743  0.4003 -0.3284
 1767TIP3    H129496   5.536   5.794  17.746 -1.4606 -0.5080 -0.9002
 1767TIP3    H229497   5.560   5.940  17.717  2.7940 -1.0022 -0.5764
 1768TIP3   OH229498   4.561   2.777  17.072  0.2172 -0.3448  0.0754
 1768TIP3    H129499   4.599   2.836  17.137  0.3912 -1.6010  1.1576
 1768TIP3    H229500   4.633   2.721  17.046 -0.2643 -0.9962  0.1273
 1769TIP3   OH229501   7.488   4.573  17.806 -0.4108 -0.1907  0.0374
 1769TIP3    H129502   7.471   4.615  17.722  1.2573  1.7138  0.5753
 1769TIP3    H229503   7.453   4.634  17.871 -1.0046 -1.2805  0.7810
 1770TIP3   OH229504   7.269   4.843  18.327  0.1210  0.0400 -0.2656
 1770TIP3    H129505   7.208   4.882  18.265 -0.1092 -0.3615 -0.2945
 1770TIP3    H229506   7.355   4.876  18.300  0.0045 -0.0066 -0.7004
 1771TIP3   OH229507   4.466   2.005  17.678  0.4195  0.1052  0.6447
 1771TIP3    H129508   4.379   2.001  17.639 -0.2477 -0.0316  2.1137
 1771TIP3    H229509   4.482   2.099  17.690  0.1082  0.0965  1.1544
 1772TIP3   OH229510   3.589   7.083  18.815 -0.1282 -0.4136 -0.6249
 1772TIP3    H129511   3.509   7.061  18.863 -0.4290 -0.0308 -0.9474
 1772TIP3    H229512   3.559   7.103  18.726  0.5680 -2.6635 -1.4523
 1773TIP3   OH229513   5.064   1.944  18.652 -0.3847 -0.0219 -0.1466
 1773TIP3    H129514   5.006   1.955  18.576 -1.0087  0.5701  0.4068
 1773TIP3    H229515   5.039   2.014  18.711 -1.4600 -1.7681  1.5987
 1774TIP3   OH229516   2.722   0.075  17.540 -0.2675  0.2357  0.1666
 1774TIP3    H129517   2.742   0.167  17.558 -1.2507  0.6618 -0.8439
 1774TIP3    H229518   2.679   0.044  17.620  0.0942  0.6309  0.5202
 1775TIP3   OH229519   5.581   5.931  16.998 -0.0863  0.7200 -0.1871
 1775TIP3    H129520   5.649   5.915  17.063 -0.8500 -1.3247  0.1959
 1775TIP3    H229521   5.586   5.855  16.940  1.0161  2.7679 -3.0289
 1776TIP3   OH229522   2.211   5.026  17.221  0.0462  0.5193 -0.5350
 1776TIP3    H129523   2.274   5.072  17.166 -0.9285  0.6684 -1.5475
 1776TIP3    H229524   2.246   5.037  17.310  0.5173  2.1262 -0.8740
 1777TIP3   OH229525   5.016   4.682  17.834  0.7735  0.6696  0.4120
 1777TIP3    H129526   4.961   4.686  17.912  0.7249  0.4239  0.3899
 1777TIP3    H229527   4.955   4.666  17.762  0.6282  2.3128  0.1202
 1778TIP3   OH229528   3.710   6.209  18.333 -0.1835  0.5384  0.2765
 1778TIP3    H129529   3.653   6.265  18.385 -1.3463  0.0102 -0.3917
 1778TIP3    H229530   3.669   6.123  18.337  1.9825 -0.5288  1.9607
 1779TIP3   OH229531   3.091   2.804  17.831 -0.7399  0.1551  0.2863
 1779TIP3    H129532   3.101   2.879  17.891 -0.4457  0.8787 -0.6390
 1779TIP3    H229533   3.001   2.810  17.800 -0.7794 -0.0014  0.3695
 1780TIP3   OH229534   6.791   7.379  18.086  0.1337 -0.1379  0.7151
 1780TIP3    H129535   6.873   7.360  18.131 -0.5885 -0.9764  1.7221
 1780TIP3    H229536   6.782   7.474  18.091  0.6718 -0.1073  1.2498
 1781TIP3   OH229537   6.203   4.895  18.915  0.0445  0.6145 -0.0081
 1781TIP3    H129538   6.194   4.909  18.821 -1.2418 -1.3311 -0.2319
 1781TIP3    H229539   6.271   4.828  18.923 -1.1393 -0.6020  0.2755
 1782TIP3   OH229540   7.787   4.209  18.157 -0.2253 -0.0541  0.5987
 1782TIP3    H129541   7.828   4.210  18.070 -0.5977 -0.6247  0.4027
 1782TIP3    H229542   7.856   4.234  18.217 -0.4861  2.4349 -0.0550
 1783TIP3   OH229543   4.730   4.382  17.779  0.5032  0.9331 -0.0532
 1783TIP3    H129544   4.638   4.357  17.767  0.5755  0.6073  0.0597
 1783TIP3    H229545   4.726   4.467  17.823  0.2552  1.0574 -0.3087
 1784TIP3   OH229546   0.442   1.809  17.756  0.6492  0.0317  0.5528
 1784TIP3    H129547   0.457   1.877  17.822  0.6508  0.2010  0.3813
 1784TIP3    H229548   0.419   1.858  17.677  1.0042 -0.1584  0.3320
 1785TIP3   OH229549   0.178   7.431  17.844 -0.5747  0.0922 -0.2298
 1785TIP3    H129550   0.241   7.494  17.878 -0.5954  0.0037 -0.0269
 1785TIP3    H229551   0.104   7.484  17.814 -0.0706  0.2665 -1.2298
 1786TIP3   OH229552   1.568   0.337  17.565  0.2735  0.0937 -0.0409
 1786TIP3    H129553   1.553   0.303  17.653 -1.0118 -0.8334 -0.6023
 1786TIP3    H229554   1.498   0.401  17.551  2.3057  2.6970  0.7701
 1787TIP3   OH229555   5.413   3.201  16.932  0.5521  0.1211 -0.0974
 1787TIP3    H129556   5.446   3.284  16.898  1.1378 -0.0382  0.0776
 1787TIP3    H229557   5.423   3.139  16.859  0.7338  0.0499 -0.0121
 1788TIP3   OH229558   7.276   3.995  19.231 -0.3283  0.8741 -0.3279
 1788TIP3    H129559   7.238   4.081  19.213  0.9603  1.8711  1.3887
 1788TIP3    H229560   7.360   4.014  19.274  1.0702 -1.2431 -1.9262
 1789TIP3   OH229561   4.805   4.838  18.403  0.0481  0.6130 -0.5007
 1789TIP3    H129562   4.731   4.873  18.354  0.4446  0.5091 -1.1824
 1789TIP3    H229563   4.857   4.790  18.338  0.3629  0.1223  0.0982
 1790TIP3   OH229564   0.103   5.881  18.365  0.4779 -0.1595 -0.1981
 1790TIP3    H129565   0.191   5.906  18.393 -0.1274  0.0418  1.6197
 1790TIP3    H229566   0.057   5.964  18.356  0.0067 -0.3438  0.4918
 1791TIP3   OH229567   5.201   2.110  18.469 -0.2116 -0.1458  0.4836
 1791TIP3    H129568   5.288   2.071  18.465 -0.0955  0.2021 -1.1912
 1791TIP3    H229569   5.192   2.141  18.559  0.2880 -2.6115  1.4570
 1792TIP3   OH229570   2.454   7.538  18.080 -0.3047 -0.0718 -0.2602
 1792TIP3    H129571   2.442   7.488  17.999  0.5556  0.0657 -0.4891
 1792TIP3    H229572   2.544   7.573  18.073 -0.1410 -0.2405  0.8526
 1793TIP3   OH229573   2.699   2.633  17.168  0.8071 -0.0444 -0.8890
 1793TIP3    H129574   2.667   2.645  17.257  0.8384 -1.5081 -0.6549
 1793TIP3    H229575   2.654   2.554  17.137  0.5367  0.6409 -2.2987
 1794TIP3   OH229576   1.976   4.393  17.563 -0.0317 -0.0370 -0.7102
 1794TIP3    H129577   1.943   4.312  17.602 -0.4564  0.3532 -0.2250
 1794TIP3    H229578   2.016   4.366  17.481 -0.0906 -0.7486 -0.5146
 1795TIP3   OH229579   2.388   3.207  18.626 -0.1905  0.0532  0.4153
 1795TIP3    H129580   2.329   3.142  18.665  0.1728 -1.0669 -0.8129
 1795TIP3    H229581   2.370   3.203  18.532  2.4673 -1.0703 -0.1433
 1796TIP3   OH229582   7.444   7.447  18.268  0.3715 -0.7400 -0.2131
 1796TIP3    H129583   7.440   7.543  18.262  1.1881 -0.7402 -0.8919
 1796TIP3    H229584   7.364   7.423  18.314  0.5033  0.3223  0.6190
 1797TIP3   OH229585   4.140   2.334  18.331  0.4288 -0.0544 -0.1027
 1797TIP3    H129586   4.151   2.283  18.250  0.2700 -0.5006  0.1573
 1797TIP3    H229587   4.228   2.339  18.368  0.7030  1.0608 -0.8371
 1798TIP3   OH229588   8.367   1.774  17.763  0.2107  0.1760  0.4184
 1798TIP3    H129589   8.409   1.840  17.708 -1.2213 -0.1914 -1.2076
 1798TIP3    H229590   8.409   1.691  17.737  0.8859  0.2299  1.3049
 1799TIP3   OH229591   6.437   1.240  17.184 -0.1303  0.4392  0.7101
 1799TIP3    H129592   6.374   1.283  17.125  0.1719 -0.8283 -0.5758
 1799TIP3    H229593   6.484   1.313  17.224 -0.3948  1.3658 -0.5718
 1800TIP3   OH229594   6.841   7.501  17.557  0.1357  0.4329  0.2010
 1800TIP3    H129595   6.887   7.443  17.617 -0.4328 -0.3154 -0.0675
 1800TIP3    H229596   6.844   7.587  17.599 -1.0747 -0.2419  1.7877
 1801TIP3   OH229597   5.801   2.649  17.854  0.4455 -0.6750 -0.0462
 1801TIP3    H129598   5.805   2.565  17.809  0.5572 -0.8904  0.3586
 1801TIP3    H229599   5.837   2.712  17.791  1.6029 -1.1391  0.1315
 1802TIP3   OH229600   7.121   7.397  18.043 -0.0185 -0.2363  0.6149
 1802TIP3    H129601   7.178   7.323  18.020  2.3292  1.2057  1.5031
 1802TIP3    H229602   7.138   7.463  17.976 -1.2065 -0.0144  0.5036
 1803TIP3   OH229603   4.668   2.831  17.345  0.1631  0.2246 -0.4282
 1803TIP3    H129604   4.719   2.874  17.413 -1.9889 -0.9262  2.0742
 1803TIP3    H229605   4.713   2.747  17.332  0.1154  0.0912  0.2221
 1804TIP3   OH229606   3.485   5.686  18.792 -0.2503  0.1297 -0.1531
 1804TIP3    H129607   3.513   5.594  18.788  0.2717  0.3127 -1.4243
 1804TIP3    H229608   3.490   5.709  18.884 -1.7532 -1.5243  0.3989
 1805TIP3   OH229609   1.022   1.796  17.611  0.3188  0.3117 -0.7247
 1805TIP3    H129610   1.064   1.713  17.628 -1.2344 -0.0618  1.8389
 1805TIP3    H229611   0.936   1.773  17.576 -1.2339  0.5463  2.5152
 1806TIP3   OH229612   5.384   1.062  17.807 -0.7144 -0.0690 -0.2218
 1806TIP3    H129613   5.451   1.000  17.836  1.0017  0.3047 -3.1015
 1806TIP3    H229614   5.334   1.014  17.741 -0.4301  1.0715 -1.2846
 1807TIP3   OH229615   6.371   3.290  18.017 -0.0789  0.0291 -0.3476
 1807TIP3    H129616   6.461   3.319  18.030 -0.3698  1.3171 -1.0539
 1807TIP3    H229617   6.325   3.322  18.094 -0.2527  0.8754 -0.7863
 1808TIP3   OH229618   3.397   6.006  18.029 -0.1120  0.0934 -0.6267
 1808TIP3    H129619   3.393   6.063  18.105 -1.7293 -0.9319  0.1049
 1808TIP3    H229620   3.433   5.924  18.062  1.4568  0.3719 -1.5108
 1809TIP3   OH229621   0.228   2.711  17.479 -0.5538 -0.2174  0.7537
 1809TIP3    H129622   0.230   2.806  17.493 -0.9179  0.0452 -0.8076
 1809TIP3    H229623   0.293   2.677  17.541  0.5954  1.1971  0.3980
 1810TIP3   OH229624   5.514   4.634  18.366  0.0031 -0.7411 -0.2068
 1810TIP3    H129625   5.579   4.704  18.376 -1.3984  0.5300  0.5362
 1810TIP3    H229626   5.555   4.557  18.405  0.6518  0.3177  1.3336
 1811TIP3   OH229627   5.393   5.031  18.326  0.2478 -0.3478 -0.4336
 1811TIP3    H129628   5.368   5.098  18.263 -3.2566  0.2035  1.3203
 1811TIP3    H229629   5.358   4.949  18.290  1.1960 -0.6354 -0.7444
 1812TIP3   OH229630   7.513   0.347  18.165  0.8447 -0.1311 -0.1601
 1812TIP3    H129631   7.553   0.384  18.244  0.5880 -0.1690 -0.0131
 1812TIP3    H229632   7.431   0.309  18.195  0.7817 -0.2124 -0.4345
 1813TIP3   OH229633   5.057   5.067  18.793 -0.5050 -0.0655  0.1243
 1813TIP3    H129634   5.039   4.980  18.827  0.9246 -0.7804 -0.8031
 1813TIP3    H229635   5.020   5.066  18.705  0.1937 -0.0356 -0.1803
 1814TIP3   OH229636   3.495   5.865  17.392  0.7404 -0.1094 -0.3962
 1814TIP3    H129637   3.402   5.879  17.374  0.3531  1.8581  2.4573
 1814TIP3    H229638   3.539   5.883  17.310 -1.3681 -0.9719 -1.7953
 1815TIP3   OH229639   1.109   4.985  18.791  0.5043 -0.0590  0.0351
 1815TIP3    H129640   1.195   5.011  18.758 -0.3004  1.7959 -0.7239
 1815TIP3    H229641   1.124   4.966  18.883  1.9666 -1.1157 -0.3797
 1816TIP3   OH229642   1.605   8.026  17.255 -0.1193 -0.4008 -0.1829
 1816TIP3    H129643   1.531   7.991  17.206  1.6824 -3.3722 -1.0078
 1816TIP3    H229644   1.650   8.082  17.192 -0.4299 -0.3746 -0.3847
 1817TIP3   OH229645   3.168   2.955  18.111  0.0135  0.0501 -0.4459
 1817TIP3    H129646   3.206   2.873  18.082  1.3090  0.6593 -0.5279
 1817TIP3    H229647   3.189   2.961  18.204 -1.8796 -0.6618  0.0733
 1818TIP3   OH229648   6.398   4.510  17.953  0.5017  0.5994  0.0866
 1818TIP3    H129649   6.440   4.591  17.924  1.1545 -0.2500 -1.5147
 1818TIP3    H229650   6.470   4.455  17.983  0.0910  0.5332  0.9570
 1819TIP3   OH229651   1.451   5.383  17.482  0.4066 -0.1130  0.0727
 1819TIP3    H129652   1.426   5.457  17.537  0.9536  0.3457 -0.2960
 1819TIP3    H229653   1.452   5.418  17.393  2.0542 -0.1802  0.0324
 1820TIP3   OH229654   6.860   4.035  17.594  0.5367  0.1374  0.2061
 1820TIP3    H129655   6.821   3.948  17.599  1.3888 -0.2584  0.0145
 1820TIP3    H229656   6.827   4.071  17.512  0.1570  0.0199  0.3013
 1821TIP3   OH229657   5.104   0.356  17.661  0.4063  0.2129  0.3524
 1821TIP3    H129658   5.011   0.370  17.674  0.0585 -0.3269 -1.3598
 1821TIP3    H229659   5.145   0.436  17.693 -0.6967  0.7607  0.4324
 1822TIP3   OH229660   0.552   6.248  17.876  0.0049 -0.2014  0.4729
 1822TIP3    H129661   0.617   6.273  17.810  0.2067  0.7264  1.0181
 1822TIP3    H229662   0.473   6.295  17.850  0.2442  0.6171  1.2154
 1823TIP3   OH229663   1.440   7.437  18.582  0.2744 -0.0388  0.2394
 1823TIP3    H129664   1.523   7.411  18.543 -0.5690 -0.2331 -1.5088
 1823TIP3    H229665   1.412   7.513  18.531 -1.1328 -0.6200  0.0987
 1824TIP3   OH229666   3.034   5.055  16.896 -0.1275  0.1823  0.3484
 1824TIP3    H129667   3.114   5.062  16.948  0.1962  2.4578 -0.3349
 1824TIP3    H229668   2.981   5.129  16.924 -1.8372 -1.0218  0.4498
 1825TIP3   OH229669   6.099   1.086  18.529 -0.0386 -0.2524  0.4868
 1825TIP3    H129670   6.138   1.012  18.576  1.1278 -0.2083 -0.3587
 1825TIP3    H229671   6.025   1.113  18.583  1.2639 -0.1867  2.3005
 1826TIP3   OH229672   7.174   7.202  18.710 -0.1158 -0.0042 -0.0694
 1826TIP3    H129673   7.123   7.126  18.738 -0.8981  0.5960  0.1665
 1826TIP3    H229674   7.186   7.254  18.789  0.5972  0.0296 -0.1872
 1827TIP3   OH229675   6.354   2.444  18.328  0.4524  0.2973 -0.2066
 1827TIP3    H129676   6.415   2.388  18.280 -0.7441 -0.1545 -1.2361
 1827TIP3    H229677   6.277   2.451  18.271  0.7346  3.4433 -0.4054
 1828TIP3   OH229678   3.473   2.846  16.837  0.3165  0.8223  0.2063
 1828TIP3    H129679   3.384   2.876  16.818  0.1752  0.0860 -0.3168
 1828TIP3    H229680   3.485   2.865  16.930 -0.3056  1.1392  0.2289
 1829TIP3   OH229681   7.645   6.703  16.938  0.4819  0.4066 -0.0487
 1829TIP3    H129682   7.598   6.773  16.986 -0.1444 -0.3490  0.4662
 1829TIP3    H229683   7.588   6.627  16.945  1.8126 -0.5645  0.6415
 1830TIP3   OH229684   1.818   3.870  18.668  0.2357 -0.0850  0.1104
 1830TIP3    H129685   1.866   3.848  18.748  1.7395  0.9784 -0.4374
 1830TIP3    H229686   1.732   3.898  18.698  0.7565  0.2418  1.3576
 1831TIP3   OH229687   3.849   1.898  17.676  0.1342  0.5778  0.2771
 1831TIP3    H129688   3.759   1.865  17.671  0.1706  0.3023  1.2969
 1831TIP3    H229689   3.868   1.903  17.770  1.5487 -0.3576  0.0687
 1832TIP3   OH229690   0.368   5.084  17.978 -0.0092  0.2475  0.0093
 1832TIP3    H129691   0.412   5.072  18.062 -0.4384 -1.7243  0.0163
 1832TIP3    H229692   0.277   5.057  17.994 -0.0626 -0.3006 -1.1055
 1833TIP3   OH229693   5.626   5.398  18.108 -0.0664 -0.7630  0.5061
 1833TIP3    H129694   5.545   5.353  18.133  0.9525 -2.6422  0.6473
 1833TIP3    H229695   5.600   5.488  18.090 -2.0818 -1.1909  1.0885
 1834TIP3   OH229696   5.871   5.094  16.941  0.0355 -0.6023  0.2995
 1834TIP3    H129697   5.872   5.182  16.978  1.3634 -0.3920 -0.1746
 1834TIP3    H229698   5.784   5.083  16.905  0.2870  1.0671 -0.9177
 1835TIP3   OH229699   1.187   0.166  17.749  0.0164  0.2008  0.3421
 1835TIP3    H129700   1.121   0.109  17.790 -1.5421  1.7820  0.1415
 1835TIP3    H229701   1.219   0.115  17.675 -1.2385 -0.5144  0.2530
 1836TIP3   OH229702   4.313   7.259  18.418 -0.2919  0.1102  0.2687
 1836TIP3    H129703   4.217   7.257  18.425 -0.2497  0.1907  0.9479
 1836TIP3    H229704   4.337   7.347  18.447  0.0061  0.0042  0.3425
 1837TIP3   OH229705   0.752   6.008  18.488  0.0806  0.2740  0.0245
 1837TIP3    H129706   0.826   5.951  18.471 -0.0288  0.2043 -0.2290
 1837TIP3    H229707   0.686   5.951  18.528  0.0507  0.2704 -0.0306
 1838TIP3   OH229708   1.820   0.814  16.775 -0.3697  1.0886  0.2583
 1838TIP3    H129709   1.895   0.790  16.721 -0.1718  0.7960  0.6630
 1838TIP3    H229710   1.794   0.733  16.818 -1.6361  0.9131 -0.7480
 1839TIP3   OH229711   6.080   3.597  18.592  0.0651  0.3719  0.7750
 1839TIP3    H129712   6.165   3.639  18.579 -1.2934  3.4660  1.1141
 1839TIP3    H229713   6.056   3.618  18.683 -1.7343  0.9484  0.2068
 1840TIP3   OH229714   0.815   8.069  18.691 -0.0548 -0.0526  0.5863
 1840TIP3    H129715   0.899   8.048  18.651  1.2205  2.5690  1.6281
 1840TIP3    H229716   0.770   8.125  18.628 -0.3282 -0.1726  0.6697
 1841TIP3   OH229717   5.912   3.189  17.546  0.1597 -0.0315  0.2612
 1841TIP3    H129718   5.837   3.144  17.508  0.5400  0.4648 -1.1259
 1841TIP3    H229719   5.918   3.153  17.635 -1.2771 -0.5852  0.1689
 1842TIP3   OH229720   3.113   1.758  18.784  0.0435  0.3149 -0.6442
 1842TIP3    H129721   3.094   1.813  18.860  0.6894 -0.6258  0.2237
 1842TIP3    H229722   3.097   1.814  18.709 -0.3465  1.3525  0.1924
 1843TIP3   OH229723   1.706   2.914  18.418  0.8813 -0.1496  0.2745
 1843TIP3    H129724   1.622   2.961  18.419  0.8088 -0.1940 -1.3214
 1843TIP3    H229725   1.743   2.931  18.504  0.0745  1.4406  0.3582
 1844TIP3   OH229726   6.287   7.193  17.098 -0.2968 -0.7424  0.5391
 1844TIP3    H129727   6.271   7.104  17.066  0.4608 -0.6669 -0.0752
 1844TIP3    H229728   6.252   7.250  17.030  1.2211 -0.5802 -0.1499
 1845TIP3   OH229729   6.132   0.389  17.714 -0.1580 -0.4419 -0.2624
 1845TIP3    H129730   6.170   0.382  17.626  1.9064 -0.6316  0.5862
 1845TIP3    H229731   6.082   0.308  17.725 -1.8249  0.2891 -1.8091
 1846TIP3   OH229732   0.092   5.336  18.961  0.4081  0.2026 -0.2616
 1846TIP3    H129733   0.168   5.385  18.991  0.2451  0.2197  0.1209
 1846TIP3    H229734   0.027   5.403  18.940  0.3501  0.1704 -0.1831
 1847TIP3   OH229735   5.841   2.151  17.653  0.2978 -0.3234 -0.4849
 1847TIP3    H129736   5.933   2.131  17.672  0.7033  0.3653 -1.6394
 1847TIP3    H229737   5.840   2.176  17.561 -0.7559  1.4601 -0.0449
 1848TIP3   OH229738   6.716   3.646  17.029 -0.1376  0.3317  0.3059
 1848TIP3    H129739   6.652   3.653  16.958 -1.4283 -0.4083  1.3495
 1848TIP3    H229740   6.673   3.593  17.095  1.3852  0.2346  1.2754
 1849TIP3   OH229741   7.485   4.252  19.205 -0.1418  0.3057  0.1738
 1849TIP3    H129742   7.411   4.313  19.215 -0.0545  0.3797  0.3845
 1849TIP3    H229743   7.463   4.200  19.128 -1.4988 -1.1676  1.4803
 1850TIP3   OH229744   4.330   7.070  18.050 -0.6148  0.4198 -0.3113
 1850TIP3    H129745   4.411   7.121  18.046 -1.2234  1.3483 -1.2789
 1850TIP3    H229746   4.261   7.135  18.062 -1.2469 -0.3383  0.2013
 1851TIP3   OH229747   2.343   6.415  17.997 -0.9387  0.5336  0.5142
 1851TIP3    H129748   2.401   6.392  18.069 -0.1356  2.3505  0.4812
 1851TIP3    H229749   2.288   6.337  17.986  1.4287 -1.2634  0.5523
 1852TIP3   OH229750   4.450   3.382  17.198  0.5273 -0.0914  0.4489
 1852TIP3    H129751   4.489   3.383  17.110 -0.3907  0.7311  0.0242
 1852TIP3    H229752   4.375   3.441  17.191  0.2181 -0.3111  1.6957
 1853TIP3   OH229753   0.334   3.190  18.829  0.0553 -0.1066 -0.5299
 1853TIP3    H129754   0.357   3.110  18.780 -2.2649 -0.7126 -0.7362
 1853TIP3    H229755   0.383   3.259  18.785 -1.0352 -0.8023 -3.0315
 1854TIP3   OH229756   4.586   6.615  17.746  0.3320 -0.0571 -0.4052
 1854TIP3    H129757   4.620   6.632  17.659  0.4030  0.4499 -0.2801
 1854TIP3    H229758   4.657   6.638  17.805 -0.2827  1.2312 -0.1339
 1855TIP3   OH229759   6.101   2.056  16.236  0.3931  0.5536 -0.4739
 1855TIP3    H129760   6.029   1.998  16.213 -0.3996  0.7492  1.2848
 1855TIP3    H229761   6.083   2.138  16.189  1.1426 -0.3517 -2.4176
 1856TIP3   OH229762   1.489   8.095  18.585 -0.0903  0.7019  0.5850
 1856TIP3    H129763   1.579   8.079  18.614 -0.4824  1.3650  2.2817
 1856TIP3    H229764   1.436   8.039  18.641 -0.7706  0.4642 -0.2735
 1857TIP3   OH229765   3.053   6.437  18.882 -0.0199  0.3798 -0.2627
 1857TIP3    H129766   3.064   6.358  18.935  0.9656  0.1862 -0.7337
 1857TIP3    H229767   3.129   6.438  18.825 -0.7812  0.8891 -1.2903
 1858TIP3   OH229768   4.092   6.987  17.839  0.2092  0.1790  0.0939
 1858TIP3    H129769   4.110   6.898  17.869  0.5837 -0.1000 -0.9067
 1858TIP3    H229770   4.145   6.996  17.760 -0.2069  1.1218 -0.0850
 1859TIP3   OH229771   5.767   1.782  17.736 -0.2819  0.8812  0.0419
 1859TIP3    H129772   5.725   1.701  17.766 -1.8858  1.7881  0.3538
 1859TIP3    H229773   5.840   1.795  17.798 -0.1257 -0.1942  0.1147
 1860TIP3   OH229774   7.312   8.377  17.278  0.8145  0.4879 -0.7003
 1860TIP3    H129775   7.323   8.442  17.348  1.1223  0.2553 -0.5279
 1860TIP3    H229776   7.257   8.421  17.214 -0.1713  0.4020  0.0697
 1861TIP3   OH229777   7.682   0.047  17.526 -0.2015  0.1343  0.5176
 1861TIP3    H129778   7.655  -0.043  17.510 -1.6670 -0.1706  3.7931
 1861TIP3    H229779   7.624   0.100  17.470  1.4015 -0.8675 -2.2673
 1862TIP3   OH229780   2.272   6.956  16.757 -0.1319  0.3792 -0.6773
 1862TIP3    H129781   2.366   6.966  16.770 -0.2004 -0.5721  0.9382
 1862TIP3    H229782   2.233   7.001  16.832 -0.9010 -0.2943 -0.6529
 1863TIP3   OH229783   1.935   7.873  17.067 -0.2978  0.2760 -0.1686
 1863TIP3    H129784   1.882   7.795  17.082  1.8854 -1.3417 -0.2207
 1863TIP3    H229785   1.935   7.884  16.972 -1.0638  0.6972 -0.1247
 1864TIP3   OH229786   1.242   2.236  18.526  0.0753 -0.3126 -0.1676
 1864TIP3    H129787   1.243   2.282  18.442  0.8139 -0.4608 -0.2484
 1864TIP3    H229788   1.195   2.154  18.507 -1.9362  0.7070  0.1641
 1865TIP3   OH229789   6.382   4.997  17.933 -0.2946 -0.5042  0.0707
 1865TIP3    H129790   6.326   5.030  18.003 -2.4909 -3.2269 -0.2563
 1865TIP3    H229791   6.328   5.002  17.854  1.0543 -0.3233 -0.8832
 1866TIP3   OH229792   3.961   7.491  18.514 -0.2369 -0.0368  0.2819
 1866TIP3    H129793   3.981   7.581  18.540  1.1880 -0.6301  1.3997
 1866TIP3    H229794   3.895   7.499  18.445 -0.4371  1.8349  0.6562
 1867TIP3   OH229795   2.274   0.496  16.967 -0.2408 -0.0416  0.1668
 1867TIP3    H129796   2.210   0.517  17.035 -1.0876  1.9290 -1.1429
 1867TIP3    H229797   2.249   0.552  16.893  0.6462 -2.0744 -1.7695
 1868TIP3   OH229798   0.818   5.628  18.272  0.0763 -0.3234 -1.0522
 1868TIP3    H129799   0.812   5.543  18.315 -1.8772  0.0761 -0.4132
 1868TIP3    H229800   0.730   5.665  18.280  0.8894  1.7926 -1.2562
 1869TIP3   OH229801   4.137   1.022  16.726 -0.0282  0.0877  0.4388
 1869TIP3    H129802   4.110   0.956  16.790  0.3610 -0.0854  0.4297
 1869TIP3    H229803   4.056   1.066  16.701 -0.4657 -1.1404 -0.4099
 1870TIP3   OH229804   7.204   6.479  17.952 -0.7686  0.2380  0.1050
 1870TIP3    H129805   7.292   6.474  17.915 -0.2458  0.7218  1.2379
 1870TIP3    H229806   7.150   6.425  17.893  0.2708 -0.0502 -0.6110
 1871TIP3   OH229807   1.083   6.433  17.481  0.3663  0.4363  0.2534
 1871TIP3    H129808   1.073   6.442  17.575  1.2517 -0.6524  0.4853
 1871TIP3    H229809   1.042   6.349  17.460 -1.2476  1.3955 -0.6045
 1872TIP3   OH229810   2.612   0.308  16.867  1.1703 -0.2105 -0.2129
 1872TIP3    H129811   2.587   0.383  16.921  1.4690 -1.2281  1.4001
 1872TIP3    H229812   2.688   0.339  16.818  2.2743  0.0996  1.5910
 1873TIP3   OH229813   6.650   1.207  18.835  0.8214 -0.2117 -0.6396
 1873TIP3    H129814   6.677   1.118  18.813  2.1872 -0.4932  1.8500
 1873TIP3    H229815   6.565   1.198  18.877  0.3139 -0.1486 -1.6168
 1874TIP3   OH229816   5.515   8.258  18.994  0.1924 -0.4095 -0.3332
 1874TIP3    H129817   5.542   8.280  19.083 -0.5523 -1.0284  0.0630
 1874TIP3    H229818   5.463   8.177  19.004  0.9470 -1.0550 -1.4511
 1875TIP3   OH229819   8.275   5.987  17.820 -0.1931 -0.3293 -0.1223
 1875TIP3    H129820   8.356   6.002  17.772  0.7721 -2.1845  0.8379
 1875TIP3    H229821   8.253   5.896  17.802 -0.4771 -0.7040  1.9013
 1876TIP3   OH229822   5.315   6.519  18.296 -0.1294 -0.4213 -0.2159
 1876TIP3    H129823   5.230   6.534  18.255  0.3322  1.4192 -0.5781
 1876TIP3    H229824   5.296   6.464  18.372 -1.6589  0.0876 -0.1977
 1877TIP3   OH229825   1.054   0.560  18.182  0.8995  0.4707 -0.3810
 1877TIP3    H129826   1.016   0.477  18.211  0.9673 -0.5896 -3.0249
 1877TIP3    H229827   1.116   0.584  18.251 -0.4810 -0.6527  1.3380
 1878TIP3   OH229828   3.537   3.179  17.088  0.0690 -0.0580  0.0331
 1878TIP3    H129829   3.628   3.209  17.081 -0.4630  1.8932  0.7841
 1878TIP3    H229830   3.495   3.211  17.008 -0.0460 -0.6415 -0.1440
 1879TIP3   OH229831   2.782   6.055  17.709  0.2610  0.0992  0.6722
 1879TIP3    H129832   2.823   6.134  17.745  2.1035 -0.5809  0.1393
 1879TIP3    H229833   2.836   5.983  17.741  0.2558 -0.7344 -1.0848
 1880TIP3   OH229834   0.025   8.144  17.507  0.2437  0.3533 -0.0438
 1880TIP3    H129835   0.080   8.222  17.517  0.5185  0.0683  0.7302
 1880TIP3    H229836   0.086   8.073  17.487  0.4372 -0.3231  2.5202
 1881TIP3   OH229837   7.470   1.059  17.691 -0.1499  0.3666 -0.2165
 1881TIP3    H129838   7.467   1.138  17.637  0.9337  0.3863 -0.2621
 1881TIP3    H229839   7.380   1.050  17.724 -0.3299  1.5177 -0.3409
 1882TIP3   OH229840   2.202   1.608  17.462 -0.4120  0.0748  0.1004
 1882TIP3    H129841   2.176   1.640  17.549  0.6211  2.9178 -0.5144
 1882TIP3    H229842   2.225   1.688  17.414  0.5943 -1.5524 -2.2771
 1883TIP3   OH229843   5.287   4.797  18.960  0.2324 -0.2113 -0.4417
 1883TIP3    H129844   5.353   4.838  18.904  0.7870 -2.3570 -1.4729
 1883TIP3    H229845   5.204   4.813  18.916  0.4567 -0.2922 -0.8970
 1884TIP3   OH229846   0.139   8.315  18.600  0.0999 -0.3064  0.9146
 1884TIP3    H129847   0.048   8.327  18.627  0.3930  1.6983  1.1886
 1884TIP3    H229848   0.162   8.396  18.555  1.5885 -1.0075  0.3313
 1885TIP3   OH229849   4.403   5.843  18.084 -0.0288 -0.6531 -0.2577
 1885TIP3    H129850   4.459   5.838  18.007  0.8223 -0.0750  0.3033
 1885TIP3    H229851   4.413   5.757  18.126  0.2532 -0.6311 -0.2802
 1886TIP3   OH229852   2.138   0.802  18.044  0.2475 -0.3939  0.6137
 1886TIP3    H129853   2.043   0.815  18.034  0.2165  1.1160  2.2572
 1886TIP3    H229854   2.177   0.862  17.980  0.1286 -1.6406 -0.6682
 1887TIP3   OH229855   5.654   4.742  17.025 -0.4356 -0.0466  0.1748
 1887TIP3    H129856   5.690   4.781  16.945 -0.1274 -1.0892 -0.2071
 1887TIP3    H229857   5.589   4.805  17.055  1.0654  1.4908  0.3961
 1888TIP3   OH229858   6.353   5.263  16.457 -0.0673 -0.3755  0.1046
 1888TIP3    H129859   6.296   5.187  16.456 -0.2788 -0.2120 -0.2994
 1888TIP3    H229860   6.299   5.335  16.424  0.5438 -0.3451 -0.8801
 1889TIP3   OH229861   6.553   3.766  17.901 -0.2628 -0.0544  0.2237
 1889TIP3    H129862   6.585   3.680  17.874 -1.8581 -0.8524  0.7926
 1889TIP3    H229863   6.630   3.823  17.895  0.6056 -1.3092 -1.0298
 1890TIP3   OH229864   5.883   7.849  17.591 -0.0778  0.0401 -0.1922
 1890TIP3    H129865   5.813   7.891  17.641 -1.4553 -1.7082 -0.5788
 1890TIP3    H229866   5.961   7.899  17.614 -1.0468  0.6697  1.9823
 1891TIP3   OH229867   4.171   2.092  18.873 -0.2326  0.2995 -0.2469
 1891TIP3    H129868   4.251   2.054  18.909  0.8820 -0.1615 -2.9452
 1891TIP3    H229869   4.153   2.040  18.795 -3.4088  0.1793  0.4248
 1892TIP3   OH229870   4.582   7.141  18.318 -0.5227 -0.1226  0.0684
 1892TIP3    H129871   4.565   7.189  18.236 -0.5844 -1.7517 -0.9157
 1892TIP3    H229872   4.510   7.079  18.324  0.3256 -1.0850  0.5332
 1893TIP3   OH229873   0.017   1.581  17.608  0.1587 -0.0647  0.2849
 1893TIP3    H129874   0.101   1.537  17.625  0.1239  0.0279  0.7119
 1893TIP3    H229875   0.032   1.631  17.527  0.6485  0.2835  0.5860
 1894TIP3   OH229876   0.313   7.612  17.548  0.6505  0.1308 -0.0639
 1894TIP3    H129877   0.293   7.649  17.462 -0.5293 -0.8298 -0.2326
 1894TIP3    H229878   0.389   7.557  17.533  1.3721  1.1290 -0.1607
 1895TIP3   OH229879   5.121   4.195  17.467  0.0265 -0.4316  0.2685
 1895TIP3    H129880   5.119   4.244  17.385 -0.5009  0.2200  0.6628
 1895TIP3    H229881   5.091   4.108  17.444  0.7145 -0.5051 -0.3910
 1896TIP3   OH229882   5.872   1.216  17.651  0.7950  0.2872  0.6358
 1896TIP3    H129883   5.917   1.261  17.579  1.5050 -0.4677  0.5912
 1896TIP3    H229884   5.933   1.148  17.679 -0.4293 -0.9730  0.3773
 1897TIP3   OH229885   8.044   6.726  16.748 -0.1569  0.3179 -0.0713
 1897TIP3    H129886   8.100   6.739  16.825 -0.3228 -0.8577  0.2777
 1897TIP3    H229887   8.093   6.763  16.675  2.1986 -2.6393 -0.1830
 1898TIP3   OH229888   4.880   2.692  18.531  0.1279  0.0016  0.1170
 1898TIP3    H129889   4.962   2.703  18.483  0.2799 -1.5711 -0.0377
 1898TIP3    H229890   4.851   2.781  18.550  1.2447  0.6074 -0.8849
 1899TIP3   OH229891   4.905   0.824  17.204  0.0448 -0.0981  0.3442
 1899TIP3    H129892   4.856   0.749  17.172 -1.2420  0.7092  0.3581
 1899TIP3    H229893   4.869   0.841  17.291  0.2654  0.5791  0.3098
 1900TIP3   OH229894   2.581   7.344  16.978  0.4957  0.2867 -0.9203
 1900TIP3    H129895   2.566   7.423  16.927 -1.6064 -0.1152 -1.0247
 1900TIP3    H229896   2.636   7.373  17.051  0.8337  1.5551 -1.6456
 1901TIP3   OH229897   5.066   3.068  17.653 -0.2311  0.0383  0.2597
 1901TIP3    H129898   5.092   3.100  17.566 -3.2060  1.9233 -0.0758
 1901TIP3    H229899   5.100   3.134  17.714  0.5029 -0.4557  0.3981
 1902TIP3   OH229900   6.335   5.123  18.441  0.0094 -0.3201  0.3059
 1902TIP3    H129901   6.370   5.154  18.358 -2.5532 -0.6127 -1.0024
 1902TIP3    H229902   6.402   5.064  18.476  0.9896 -0.5161 -1.7704
 1903TIP3   OH229903   2.370   2.405  18.375  0.3198  0.2813 -0.1281
 1903TIP3    H129904   2.359   2.310  18.368  0.9640  0.3186 -2.3105
 1903TIP3    H229905   2.391   2.419  18.468  0.3132 -1.7049  0.2299
 1904TIP3   OH229906   3.478   4.024  16.631 -0.0083  0.4757 -0.0975
 1904TIP3    H129907   3.556   3.970  16.647 -0.2155 -0.3544 -1.7570
 1904TIP3    H229908   3.446   4.045  16.719  1.9056  0.5886  0.6204
 1905TIP3   OH229909   7.397   5.099  19.281  0.1076 -0.1488  0.5153
 1905TIP3    H129910   7.315   5.142  19.258  1.1647  1.4217 -0.5105
 1905TIP3    H229911   7.391   5.085  19.376 -0.5426  1.7564  0.7856
 1906TIP3   OH229912   5.479   6.492  17.341  0.1204  0.0346  0.3617
 1906TIP3    H129913   5.490   6.578  17.381  0.1302  0.5551 -0.7333
 1906TIP3    H229914   5.560   6.478  17.291 -0.9036  0.5354 -1.5307
 1907TIP3   OH229915   7.436   7.306  17.740  0.1226  0.6747  0.3432
 1907TIP3    H129916   7.419   7.394  17.707  1.2024  0.5589 -0.6213
 1907TIP3    H229917   7.530   7.307  17.760  0.4807 -0.6457 -1.0610
 1908TIP3   OH229918   4.371   5.684  17.728  0.0614 -0.2862  0.8503
 1908TIP3    H129919   4.441   5.721  17.782 -0.4915  1.1947  0.6173
 1908TIP3    H229920   4.318   5.633  17.789  1.2715 -1.3435  1.0446
 1909TIP3   OH229921   2.264   3.932  17.362  0.1405 -0.0884  0.0277
 1909TIP3    H129922   2.350   3.932  17.403  0.9848 -0.3407 -1.6422
 1909TIP3    H229923   2.245   3.840  17.345  0.9074  0.1071 -2.2158
 1910TIP3   OH229924   6.180   8.409  17.532 -0.0902  0.5358 -0.3762
 1910TIP3    H129925   6.199   8.444  17.619  0.3563 -0.6830  0.0456
 1910TIP3    H229926   6.090   8.376  17.538 -0.2542  0.9516 -0.5466
 1911TIP3   OH229927   3.700   0.027  18.226 -0.2241  0.2988 -0.4046
 1911TIP3    H129928   3.612   0.028  18.264 -0.1777 -1.5204 -0.1752
 1911TIP3    H229929   3.695   0.090  18.154 -1.5559  0.6140 -0.0618
 1912TIP3   OH229930   5.272   3.234  18.867 -0.0237 -0.1163 -0.3603
 1912TIP3    H129931   5.204   3.264  18.806  0.1567 -1.5233 -1.3180
 1912TIP3    H229932   5.239   3.258  18.953 -1.0090  0.5876 -0.9083
 1913TIP3   OH229933   7.206   3.503  18.038 -0.8195  0.0163 -0.2765
 1913TIP3    H129934   7.212   3.583  18.090 -0.0290  0.5412 -1.1328
 1913TIP3    H229935   7.257   3.522  17.959 -1.3337 -1.0275 -0.8891
 1914TIP3   OH229936   3.646   4.589  17.665  0.2335  0.2170  0.2921
 1914TIP3    H129937   3.637   4.671  17.713  2.3151 -0.4553  1.9843
 1914TIP3    H229938   3.734   4.591  17.629  0.1855 -1.0904  0.0306
 1915TIP3   OH229939   3.685   2.679  17.325 -0.0035  0.1485  0.0171
 1915TIP3    H129940   3.656   2.770  17.329 -0.0872  0.1604 -0.6710
 1915TIP3    H229941   3.605   2.627  17.323  0.0248  0.1144 -0.5349
 1916TIP3   OH229942   4.839   1.937  17.194  0.0347  0.7077 -0.4820
 1916TIP3    H129943   4.753   1.940  17.153  0.3504  0.6839 -1.1641
 1916TIP3    H229944   4.845   1.849  17.232 -0.8853  1.2547  1.0414
 1917TIP3   OH229945   6.660   6.595  17.346  0.3111 -0.1947 -0.6413
 1917TIP3    H129946   6.726   6.664  17.338  0.4200 -0.1666  0.3723
 1917TIP3    H229947   6.701   6.517  17.308  0.6242  0.0144 -0.7308
 1918TIP3   OH229948   7.204   0.989  17.789  0.1731  0.3546  0.3487
 1918TIP3    H129949   7.156   0.981  17.707  0.2962  1.8802  0.1053
 1918TIP3    H229950   7.201   1.082  17.810  3.6036  0.6938 -0.0485
 1919TIP3   OH229951   6.287   3.136  16.779 -0.3080  0.1986 -0.0017
 1919TIP3    H129952   6.230   3.062  16.757  0.0052 -0.0158 -0.1121
 1919TIP3    H229953   6.231   3.197  16.826 -1.1668  0.9639 -1.9365
 1920TIP3   OH229954   3.131   4.767  18.011  0.1687 -0.5284 -0.4282
 1920TIP3    H129955   3.201   4.793  17.951 -0.2371 -1.2457 -1.2412
 1920TIP3    H229956   3.168   4.697  18.064  1.0333  1.1500  1.2719
 1921TIP3   OH229957   0.850   2.153  17.279 -0.6940  0.2506 -0.2683
 1921TIP3    H129958   0.854   2.196  17.365 -3.0440  0.1258 -0.0463
 1921TIP3    H229959   0.873   2.222  17.217  0.1010  0.5871  0.3836
 1922TIP3   OH229960   7.139   1.543  17.340  0.1590 -0.3047  0.2153
 1922TIP3    H129961   7.187   1.466  17.309  0.3252 -0.4624  0.8512
 1922TIP3    H229962   7.101   1.515  17.424  0.8945  0.5657  0.8500
 1923TIP3   OH229963   7.827   0.390  18.534 -0.0528 -0.0037 -0.5440
 1923TIP3    H129964   7.882   0.469  18.526 -0.8659  0.5832 -0.4789
 1923TIP3    H229965   7.867   0.327  18.473  1.3993 -0.0210  0.3862
 1924TIP3   OH229966   2.984   4.738  17.532 -0.2449  0.0765  0.4736
 1924TIP3    H129967   3.019   4.811  17.482  1.5090 -1.0633 -0.0539
 1924TIP3    H229968   3.057   4.676  17.538 -1.2784 -1.0568  2.0197
 1925TIP3   OH229969   7.350   5.389  18.636  0.1663 -0.1908  0.1691
 1925TIP3    H129970   7.360   5.430  18.723 -0.4848  0.0136  0.1504
 1925TIP3    H229971   7.371   5.459  18.575 -1.7057  0.3821  0.1167
 1926TIP3   OH229972   5.723   0.104  17.315 -0.0955  0.1822 -0.2329
 1926TIP3    H129973   5.636   0.072  17.337 -0.1937 -0.7194 -1.7940
 1926TIP3    H229974   5.780   0.028  17.324  0.8617  1.0899  2.2304
 1927TIP3   OH229975   8.315   2.205  18.359 -0.6860  0.6345  0.0727
 1927TIP3    H129976   8.330   2.174  18.448  0.1543  0.3698 -0.1526
 1927TIP3    H229977   8.260   2.282  18.369 -1.3324  0.0987  0.7603
 1928TIP3   OH229978   7.524   7.199  18.410  0.8013  0.2227  0.1060
 1928TIP3    H129979   7.485   7.276  18.368  1.0215  0.7043  0.7669
 1928TIP3    H229980   7.548   7.142  18.337  0.0106  0.4698 -0.3623
 1929TIP3   OH229981   2.829   4.939  17.220 -0.4423  0.6131  0.5071
 1929TIP3    H129982   2.908   4.989  17.201 -0.4685  0.3778 -0.2571
 1929TIP3    H229983   2.858   4.848  17.217 -0.6317  0.5441  0.7653
 1930TIP3   OH229984   2.963   5.916  17.305  0.3382 -0.3893 -0.5195
 1930TIP3    H129985   2.932   5.981  17.369  0.9981 -1.1137  0.5729
 1930TIP3    H229986   2.887   5.863  17.285 -0.4938  1.3123 -2.2438
 1931TIP3   OH229987   1.808   1.147  18.107 -0.4914 -0.0766 -0.2632
 1931TIP3    H129988   1.782   1.195  18.028 -2.0979  0.2459  0.4222
 1931TIP3    H229989   1.726   1.131  18.153  0.5053  0.7422  1.9290
 1932TIP3   OH229990   2.538   4.098  19.073 -0.5917  0.3886 -0.0295
 1932TIP3    H129991   2.578   4.086  19.159  0.2825  0.0967 -0.4661
 1932TIP3    H229992   2.605   4.143  19.021  0.4376 -2.7934 -1.6940
 1933TIP3   OH229993   3.708   3.880  16.937 -1.1891 -0.1061  0.1214
 1933TIP3    H129994   3.699   3.899  16.844 -1.5311 -0.9135 -0.0226
 1933TIP3    H229995   3.648   3.807  16.952  1.4603 -2.4835  0.1677
 1934TIP3   OH229996   6.852   0.522  18.889 -0.4560  0.0011 -0.1147
 1934TIP3    H129997   6.945   0.523  18.911 -0.5482  0.9472  0.2977
 1934TIP3    H229998   6.818   0.605  18.924 -1.3881 -0.1839 -0.5401
 1935TIP3   OH229999   4.760   3.126  17.152 -0.2051  0.1756 -0.2682
 1935TIP3    H130000   4.827   3.059  17.148 -0.2386  0.0899  0.5239
 1935TIP3    H230001   4.735   3.130  17.244 -1.7425 -0.2556 -0.6326
 1936TIP3   OH230002   1.276   0.986  17.701  0.2778 -0.1081 -0.0056
 1936TIP3    H130003   1.361   0.998  17.659 -0.1753  2.3855 -0.3362
 1936TIP3    H230004   1.222   1.057  17.667 -1.7585 -1.2272  0.7231
 1937TIP3   OH230005   5.181   0.111  17.180 -0.1732 -0.9352 -0.4585
 1937TIP3    H130006   5.164   0.204  17.170  0.8108 -0.8407 -1.5778
 1937TIP3    H230007   5.217   0.084  17.095  1.1073 -1.9671  0.3663
 1938TIP3   OH230008   2.852   0.345  16.723 -0.0060  0.1350 -0.5545
 1938TIP3    H130009   2.934   0.365  16.769 -0.4444  1.6265 -0.3487
 1938TIP3    H230010   2.857   0.252  16.704  2.1677  0.3527 -1.3593
 1939TIP3   OH230011   4.211   8.413  17.040 -0.0998 -0.3555 -0.0151
 1939TIP3    H130012   4.289   8.466  17.022 -0.3799  0.3675  0.7887
 1939TIP3    H230013   4.212   8.345  16.973  0.4881  0.4347 -0.8375
 1940TIP3   OH230014   5.416   1.570  18.649  0.0198 -0.5212 -0.0022
 1940TIP3    H130015   5.413   1.657  18.608  0.1483 -0.9525 -0.9566
 1940TIP3    H230016   5.443   1.587  18.739 -1.5994  0.5941  0.3170
 1941TIP3   OH230017   1.776   3.007  18.170 -0.1591 -0.3497  0.0767
 1941TIP3    H130018   1.767   2.979  18.261 -0.9577 -1.9496 -0.4566
 1941TIP3    H230019   1.871   3.009  18.155  0.0289  1.0674  1.2420
 1942TIP3   OH230020   6.203   7.648  17.281  0.4593  0.1997 -0.2319
 1942TIP3    H130021   6.151   7.717  17.240 -2.3210 -2.6213 -1.9313
 1942TIP3    H230022   6.255   7.613  17.209  1.0946 -0.1149  0.3758
 1943TIP3   OH230023   3.560   1.012  16.840  0.6167  0.4489 -0.3268
 1943TIP3    H130024   3.636   0.972  16.883  0.6723  0.6217 -0.2610
 1943TIP3    H230025   3.574   1.106  16.851  0.4251  0.4818 -0.3704
 1944TIP3   OH230026   8.128   3.258  19.034 -0.3910 -0.2966 -0.0976
 1944TIP3    H130027   8.159   3.347  19.048 -0.8667 -0.5750  3.8219
 1944TIP3    H230028   8.038   3.268  19.003 -0.2990  0.6001 -0.0880
 1945TIP3   OH230029   4.064   1.562  18.552  0.3791  0.4100 -0.1007
 1945TIP3    H130030   4.048   1.647  18.511  1.1735  0.4780 -0.2924
 1945TIP3    H230031   4.146   1.574  18.600  0.5655 -0.2800 -0.2325
 1946TIP3   OH230032   7.793   0.744  18.496 -0.1776 -0.0007 -0.3305
 1946TIP3    H130033   7.854   0.815  18.479 -0.7159  0.2283 -1.4361
 1946TIP3    H230034   7.732   0.748  18.423 -0.9439 -0.8284  0.2453
 1947TIP3   OH230035   0.302   7.796  18.412 -0.2225  0.1881 -0.5084
 1947TIP3    H130036   0.314   7.725  18.476 -1.8987 -0.2036 -0.5868
 1947TIP3    H230037   0.250   7.861  18.458  0.3293  0.8608 -0.8230
 1948TIP3   OH230038   1.326   2.670  17.221 -0.0109  0.3012  0.2713
 1948TIP3    H130039   1.361   2.589  17.183  0.9365  0.9675 -0.3251
 1948TIP3    H230040   1.395   2.702  17.279 -0.7196  0.2564  1.1609
 1949TIP3   OH230041   0.140   7.511  17.150  0.3907  0.1746 -0.1024
 1949TIP3    H130042   0.147   7.474  17.062  1.0316 -0.2947  0.1387
 1949TIP3    H230043   0.123   7.435  17.206  0.2507  0.4353  0.2125
 1950TIP3   OH230044   6.994   5.348  17.900  0.4046 -0.4079 -0.2971
 1950TIP3    H130045   6.959   5.416  17.958  0.2671 -1.3125  0.7205
 1950TIP3    H230046   6.992   5.387  17.813 -0.6778  0.5019  0.1126
 1951TIP3   OH230047   7.223   8.078  18.407 -0.3848  0.6801  0.3339
 1951TIP3    H130048   7.145   8.118  18.445 -2.9042 -2.1381 -1.4197
 1951TIP3    H230049   7.191   7.997  18.368  3.5425 -0.7700 -0.2525
 1952TIP3   OH230050   8.132   5.744  18.023 -0.1861 -0.4841  0.1552
 1952TIP3    H130051   8.048   5.786  18.008 -0.7107 -1.8202 -0.7998
 1952TIP3    H230052   8.181   5.807  18.076 -1.9445  0.0951  1.1605
 1953TIP3   OH230053   2.185   8.412  17.698  0.1289  0.1598  0.3052
 1953TIP3    H130054   2.155   8.472  17.766  0.2232  0.9733 -0.3556
 1953TIP3    H230055   2.275   8.390  17.723 -0.9015 -2.2995  2.3011
 1954TIP3   OH230056   2.795   6.777  18.602  0.0982  0.0533 -0.0810
 1954TIP3    H130057   2.815   6.744  18.689  0.3386 -0.3085 -0.2722
 1954TIP3    H230058   2.710   6.740  18.581  1.4014 -2.4926 -1.2882
 1955TIP3   OH230059   2.392   1.210  18.607 -0.3222 -0.3571 -0.2979
 1955TIP3    H130060   2.441   1.135  18.640 -1.7737 -0.6659  1.3526
 1955TIP3    H230061   2.328   1.228  18.676 -1.0974  1.3564 -1.4041
 1956TIP3   OH230062   1.081   5.402  17.770  0.4738 -0.7630 -0.7575
 1956TIP3    H130063   1.077   5.452  17.688 -0.9572  0.0479 -0.2298
 1956TIP3    H230064   1.034   5.321  17.751  0.9970 -1.0140 -1.0096
 1957TIP3   OH230065   7.491   6.817  16.457  0.1344  0.3506 -0.5109
 1957TIP3    H130066   7.399   6.806  16.435  0.0745  1.6877 -1.0199
 1957TIP3    H230067   7.537   6.799  16.374  0.5027 -1.9375  0.1042
 1958TIP3   OH230068   7.410   4.781  17.956  0.3153 -0.0658 -0.1597
 1958TIP3    H130069   7.383   4.861  17.910 -0.1367 -0.7529 -1.1324
 1958TIP3    H230070   7.476   4.810  18.018 -2.1263  1.6304  1.8671
 1959TIP3   OH230071   6.796   3.341  18.489  0.6953  0.1058  0.1972
 1959TIP3    H130072   6.833   3.407  18.431  0.0077 -0.0118 -0.3873
 1959TIP3    H230073   6.793   3.261  18.436 -0.5616  0.1606  0.1638
 1960TIP3   OH230074   0.640   1.842  18.866 -0.0255  0.3403 -0.3904
 1960TIP3    H130075   0.657   1.926  18.909  0.5034  0.0540 -0.0289
 1960TIP3    H230076   0.591   1.865  18.787 -0.9637  0.8859  0.3227
 1961TIP3   OH230077   4.676   3.966  17.034 -0.2016  0.3511  0.0544
 1961TIP3    H130078   4.648   3.933  17.119 -1.4877 -0.4626 -0.6407
 1961TIP3    H230079   4.604   4.024  17.006  0.9650  1.9524  0.2330
 1962TIP3   OH230080   0.544   7.464  17.527  1.0523  0.0128  0.3072
 1962TIP3    H130081   0.518   7.399  17.592  0.4417 -1.0263 -0.9303
 1962TIP3    H230082   0.558   7.413  17.447  3.1552  1.0676 -0.0568
 1963TIP3   OH230083   6.761   2.854  16.737 -0.1419 -0.4473 -0.7329
 1963TIP3    H130084   6.704   2.923  16.703  1.0250  0.3310 -1.1885
 1963TIP3    H230085   6.724   2.773  16.703  0.2020  0.2000 -2.7993
 1964TIP3   OH230086   2.849   5.254  17.226  0.0718  0.1692 -0.0600
 1964TIP3    H130087   2.764   5.210  17.234  0.3532 -0.2643  0.6001
 1964TIP3    H230088   2.892   5.209  17.153 -0.6353  1.0292 -1.0409
 1965TIP3   OH230089   7.085   3.388  17.732  0.6711  0.5477 -0.1327
 1965TIP3    H130090   7.089   3.306  17.780  2.2941  1.0149  0.5959
 1965TIP3    H230091   7.142   3.447  17.780 -0.3275  2.0681 -0.7448
 1966TIP3   OH230092   8.030   4.804  19.132 -0.9799 -0.2256 -0.3740
 1966TIP3    H130093   8.075   4.887  19.118  0.4548 -1.0421 -0.7740
 1966TIP3    H230094   7.944   4.816  19.089 -0.3807  0.6726 -1.3809
 1967TIP3   OH230095   0.590   2.764  18.217  0.6055 -0.1476  0.4130
 1967TIP3    H130096   0.566   2.696  18.280  0.9332 -1.7386 -1.0999
 1967TIP3    H230097   0.686   2.765  18.217  0.6082  0.4919  0.5689
 1968TIP3   OH230098   8.208   7.689  17.162  0.0929  0.5104  0.1104
 1968TIP3    H130099   8.245   7.687  17.251  2.6162  1.6740 -0.8274
 1968TIP3    H230100   8.229   7.603  17.125  1.5782  1.0153 -0.2724
 1969TIP3   OH230101   3.674   0.543  17.843  0.4180  0.0067 -0.1067
 1969TIP3    H130102   3.580   0.522  17.847  0.0637  1.6132  0.8721
 1969TIP3    H230103   3.693   0.583  17.928  0.8453  4.1180 -1.9468
 1970TIP3   OH230104   8.331   0.581  17.667 -0.8602  0.2630 -0.3913
 1970TIP3    H130105   8.426   0.587  17.655 -0.9705  2.4290 -0.4652
 1970TIP3    H230106   8.302   0.523  17.597  0.3945 -0.3741 -0.4118
 1971TIP3   OH230107   5.683   3.641  18.592  0.0548  0.4847  0.6342
 1971TIP3    H130108   5.655   3.728  18.563  0.1500 -0.0621 -1.2039
 1971TIP3    H230109   5.601   3.595  18.610 -0.0329  0.6025  0.5410
 1972TIP3   OH230110   7.326   6.948  18.708  0.1023  0.0888 -0.3325
 1972TIP3    H130111   7.298   7.034  18.675 -1.0828  0.7295  2.0530
 1972TIP3    H230112   7.420   6.945  18.690  0.3721  2.3344  0.3159
 1973TIP3   OH230113   2.127   6.582  16.320  0.1279  0.3945 -0.5555
 1973TIP3    H130114   2.085   6.621  16.396  0.8451  0.0225  0.0378
 1973TIP3    H230115   2.169   6.656  16.275  0.4837  0.4792 -0.0838
 1974TIP3   OH230116   4.971   5.741  17.269  0.0577  0.0394 -0.5151
 1974TIP3    H130117   5.043   5.788  17.311  0.5070 -2.3034  1.5352
 1974TIP3    H230118   5.007   5.711  17.186  0.2461  1.8440 -1.1459
 1975TIP3   OH230119   0.718   5.140  17.836  0.7127  0.1645  0.7116
 1975TIP3    H130120   0.667   5.060  17.821  0.1833  0.5059  0.6364
 1975TIP3    H230121   0.794   5.112  17.887  2.8515 -1.1528 -2.8643
 1976TIP3   OH230122   5.949   5.229  17.262 -0.2039  0.2870 -0.1292
 1976TIP3    H130123   6.005   5.152  17.268 -0.7666 -0.0535  1.1677
 1976TIP3    H230124   5.878   5.203  17.204 -0.0950  0.0173 -0.1448
 1977TIP3   OH230125   2.997   6.450  16.407  0.3813  0.1835 -0.4625
 1977TIP3    H130126   3.038   6.502  16.476 -0.0128 -0.9744  0.6709
 1977TIP3    H230127   2.924   6.505  16.377  1.0850  1.0745 -0.6031
 1978TIP3   OH230128   7.817   3.809  17.465 -0.0736 -0.5180  0.4356
 1978TIP3    H130129   7.815   3.724  17.421 -0.6108 -0.4870  0.3845
 1978TIP3    H230130   7.766   3.795  17.545 -2.4908  0.4122 -0.8344
 1979TIP3   OH230131   0.191   1.039  17.901  0.2469 -0.1578 -0.1919
 1979TIP3    H130132   0.204   1.039  17.996 -1.3564  0.9526  0.0580
 1979TIP3    H230133   0.242   1.115  17.871  1.8387 -1.2742 -0.4223
 1980TIP3   OH230134   7.400   4.191  17.967 -0.4231  0.0091  0.2638
 1980TIP3    H130135   7.392   4.132  18.042  2.6828 -1.4137 -0.3809
 1980TIP3    H230136   7.486   4.173  17.930 -0.5289  2.9005 -1.8012
 1981TIP3   OH230137   5.589   7.915  16.480  0.2336  0.1100  0.5136
 1981TIP3    H130138   5.679   7.891  16.458  0.4266  0.7991  0.5194
 1981TIP3    H230139   5.540   7.833  16.472  0.6616 -0.0597 -0.5351
 1982TIP3   OH230140   2.107   3.131  16.950  0.1206 -0.4687 -0.0731
 1982TIP3    H130141   2.153   3.084  16.881  1.8721  0.5968  0.3047
 1982TIP3    H230142   2.107   3.223  16.922 -0.8440 -0.2794  0.4716
 1983TIP3   OH230143   4.496   0.708  18.143 -0.1529  0.0034  0.1145
 1983TIP3    H130144   4.505   0.802  18.159 -1.3544  0.2855 -0.7609
 1983TIP3    H230145   4.463   0.701  18.053  0.0005 -1.2657  0.1298
 1984TIP3   OH230146   1.851   1.179  18.524  0.2332 -0.4207 -0.5667
 1984TIP3    H130147   1.821   1.116  18.459  0.3478 -0.3552 -0.6828
 1984TIP3    H230148   1.781   1.245  18.528  0.4147 -0.2059 -0.9221
 1985TIP3   OH230149   6.165   0.120  16.537  0.4092 -0.3112 -0.7973
 1985TIP3    H130150   6.074   0.119  16.508  0.2524 -0.0360 -0.3209
 1985TIP3    H230151   6.187   0.212  16.546  0.0548 -0.3661  1.1463
 1986TIP3   OH230152   7.208   6.932  16.516  0.1187  0.2741 -0.1458
 1986TIP3    H130153   7.230   6.904  16.605  2.1738 -1.7068 -1.1665
 1986TIP3    H230154   7.219   7.027  16.516  2.7741  0.0341  1.0783
 1987TIP3   OH230155   3.048   6.568  18.173 -0.0137  0.6186  0.3330
 1987TIP3    H130156   3.047   6.498  18.238  2.2003  1.4748  1.4099
 1987TIP3    H230157   3.121   6.624  18.200 -0.1150  1.9553 -1.9290
 1988TIP3   OH230158   4.828   2.810  16.969  0.6793 -0.7826  0.6149
 1988TIP3    H130159   4.824   2.778  16.879 -1.0518  0.3191  0.2479
 1988TIP3    H230160   4.882   2.889  16.963 -1.6848  0.9033 -0.0773
 1989TIP3   OH230161   5.840   2.781  17.210 -0.1605 -0.7511  0.2143
 1989TIP3    H130162   5.874   2.869  17.224  0.5725 -1.1740  1.1485
 1989TIP3    H230163   5.916   2.723  17.214 -0.6225 -1.4327 -0.4265
 1990TIP3   OH230164   0.043   3.399  17.476  0.2867 -0.1922 -0.2205
 1990TIP3    H130165   0.073   3.449  17.552 -2.6474  0.7724  0.4444
 1990TIP3    H230166   0.026   3.465  17.409 -0.8379 -0.5814 -0.3452
 1991TIP3   OH230167   0.491   1.562  18.346 -0.0062  0.2701  0.0060
 1991TIP3    H130168   0.575   1.592  18.381 -0.6680  1.1018  0.9174
 1991TIP3    H230169   0.513   1.481  18.299  2.0529  2.5951 -3.5820
 1992TIP3   OH230170   6.757   1.399  16.954 -0.2256 -0.4301 -0.0119
 1992TIP3    H130171   6.686   1.423  16.893 -0.2084 -1.3260 -0.3971
 1992TIP3    H230172   6.748   1.305  16.965  0.5754 -0.4644  0.3812
 1993TIP3   OH230173   6.407   0.927  18.553 -0.3729 -0.1614  0.6465
 1993TIP3    H130174   6.423   1.011  18.509  1.6034  0.1758  1.8721
 1993TIP3    H230175   6.421   0.861  18.485  1.2491  0.4010  0.3910
 1994TIP3   OH230176   6.569   7.112  17.083  0.3380 -0.6154 -0.1302
 1994TIP3    H130177   6.478   7.140  17.079  0.3718 -0.3859  0.5970
 1994TIP3    H230178   6.564   7.017  17.095  0.1946 -0.5825  0.0674
 1995TIP3   OH230179   1.375   6.642  17.080 -0.3630 -0.2245 -0.3955
 1995TIP3    H130180   1.364   6.682  16.994  0.6633 -1.6423 -1.2227
 1995TIP3    H230181   1.296   6.589  17.091 -0.5707  0.0819 -0.3805
 1996TIP3   OH230182   7.924   3.779  18.820  0.4311 -0.2476 -0.2458
 1996TIP3    H130183   7.966   3.759  18.736 -0.3862  0.1427 -0.7552
 1996TIP3    H230184   7.839   3.735  18.816 -1.2515  2.7766 -1.2234
 1997TIP3   OH230185   3.790   7.168  16.970 -0.6250 -0.0338  0.2523
 1997TIP3    H130186   3.698   7.178  16.995 -0.8425 -0.0752 -0.5047
 1997TIP3    H230187   3.788   7.122  16.886  0.2402 -3.6112  2.0231
 1998TIP3   OH230188   5.791   8.088  17.459 -0.0890 -0.0813 -0.0912
 1998TIP3    H130189   5.862   8.055  17.405  0.4202  0.8026  0.0304
 1998TIP3    H230190   5.809   8.053  17.546 -0.7502 -1.2634 -0.4057
 1999TIP3   OH230191   3.571   7.007  17.535  0.0660  0.4526  0.4312
 1999TIP3    H130192   3.652   7.058  17.530  0.6801 -0.5198 -0.0779
 1999TIP3    H230193   3.570   6.971  17.624  0.9121 -0.6256  0.0273
 2000TIP3   OH230194   3.259   3.024  18.392  0.5520 -0.3948  0.2691
 2000TIP3    H130195   3.325   3.085  18.360  2.2847 -1.9995  0.6361
 2000TIP3    H230196   3.198   3.079  18.441  1.4569  1.1788 -0.3084
 2001TIP3   OH230197   4.734   6.319  18.190  0.1992  0.4165 -0.1754
 2001TIP3    H130198   4.811   6.336  18.135  2.4551 -3.5789  1.3284
 2001TIP3    H230199   4.695   6.240  18.152 -0.4936 -0.1690  1.6345
 2002TIP3   OH230200   6.846   2.119  16.975  0.2962 -0.0254  0.4919
 2002TIP3    H130201   6.910   2.188  16.991 -0.8647  1.0059  0.8449
 2002TIP3    H230202   6.855   2.099  16.882  0.1116  1.1624  0.2120
 2003TIP3   OH230203   7.450   1.361  17.886  0.0231  0.0065  0.7074
 2003TIP3    H130204   7.458   1.361  17.791  0.6641 -1.1438  0.7388
 2003TIP3    H230205   7.461   1.453  17.911 -1.0412  0.4569 -0.3762
 2004TIP3   OH230206   4.134   1.594  17.772  0.3077 -0.5103  0.0743
 2004TIP3    H130207   4.168   1.635  17.851  1.6566  1.7996 -1.5777
 2004TIP3    H230208   4.182   1.511  17.766  1.4612  0.0697  0.7935
 2005TIP3   OH230209   4.517   3.879  17.821  0.4415 -0.7041  0.0201
 2005TIP3    H130210   4.600   3.834  17.833  1.1826  0.7018  0.3676
 2005TIP3    H230211   4.477   3.879  17.908  0.8145 -0.0153  0.2004
 2006TIP3   OH230212   2.682   1.249  18.765 -0.1212 -0.3458  0.1585
 2006TIP3    H130213   2.671   1.313  18.695 -1.3894  2.1679  2.4642
 2006TIP3    H230214   2.601   1.199  18.766  0.8131 -2.0311 -1.5478
 2007TIP3   OH230215   5.007   7.344  17.710  0.2804  0.4840 -0.3124
 2007TIP3    H130216   4.947   7.309  17.776  0.7555 -1.2581 -0.7469
 2007TIP3    H230217   5.090   7.302  17.728  1.4531  2.9197  0.3193
 2008TIP3   OH230218   8.382   6.287  17.483 -0.0438 -0.2952  0.1493
 2008TIP3    H130219   8.418   6.371  17.510 -1.1875  0.2687 -0.0250
 2008TIP3    H230220   8.402   6.282  17.389 -2.0628  0.9376 -0.4153
 2009TIP3   OH230221   5.472   5.037  18.013 -0.1016  0.5338  0.0726
 2009TIP3    H130222   5.393   5.016  18.063  0.7198  1.3437  1.8050
 2009TIP3    H230223   5.530   4.962  18.027 -0.8392 -0.5090 -1.9786
 2010TIP3   OH230224   4.375   2.666  17.261 -0.1903  0.1096 -0.6708
 2010TIP3    H130225   4.461   2.705  17.245  0.4368 -0.7840  0.4054
 2010TIP3    H230226   4.381   2.578  17.224 -1.3299  0.6961 -2.3619
 2011TIP3   OH230227   7.090   5.292  17.308 -0.5436 -0.7642 -0.5020
 2011TIP3    H130228   7.155   5.226  17.331 -0.9866 -1.6984 -1.7448
 2011TIP3    H230229   7.007   5.255  17.339 -0.6347 -0.1287  0.0321
 2012TIP3   OH230230   7.374   6.734  16.699 -0.1261 -0.0987 -0.6593
 2012TIP3    H130231   7.410   6.737  16.610  1.4557 -2.0199 -0.1542
 2012TIP3    H230232   7.362   6.640  16.716 -1.2295  0.2823  0.8617
 2013TIP3   OH230233   1.145   8.005  17.694  0.5495 -0.5069  0.0498
 2013TIP3    H130234   1.211   7.971  17.633  0.4425 -1.1383  0.2759
 2013TIP3    H230235   1.066   7.955  17.673 -0.1822  1.0452 -0.9957
 2014TIP3   OH230236   4.586   3.516  16.710 -0.6958 -0.3034  0.0013
 2014TIP3    H130237   4.641   3.515  16.631 -0.0178  0.0026  0.4663
 2014TIP3    H230238   4.519   3.581  16.691 -1.0993 -0.8976 -0.6962
 2015TIP3   OH230239   0.715   5.831  17.568 -0.2550 -0.1909  0.3244
 2015TIP3    H130240   0.732   5.739  17.550  0.5589  0.1881 -1.0395
 2015TIP3    H230241   0.642   5.831  17.629 -0.9845 -1.7322 -0.4969
 2016TIP3   OH230242   7.266   7.163  17.933 -0.0860 -0.1658  0.6385
 2016TIP3    H130243   7.335   7.200  17.878  2.0220 -1.4671  2.2199
 2016TIP3    H230244   7.313   7.129  18.009 -2.8450  2.1102  3.6531
 2017TIP3   OH230245   5.202   4.971  18.080  0.0547 -0.5257  0.1357
 2017TIP3    H130246   5.113   5.003  18.066  0.4870  0.9109  0.4871
 2017TIP3    H230247   5.192   4.897  18.140 -0.8631 -0.0887  0.5427
 2018TIP3   OH230248   3.471   4.385  17.998  0.3311  0.2017  0.3408
 2018TIP3    H130249   3.470   4.478  18.022  0.4667 -0.1759  1.9149
 2018TIP3    H230250   3.544   4.348  18.048  1.0040 -0.5565 -1.1367
 2019TIP3   OH230251   2.866   3.775  18.414 -0.4017  0.3950  0.5617
 2019TIP3    H130252   2.934   3.737  18.357  1.8135  3.1395  1.1265
 2019TIP3    H230253   2.887   3.743  18.501 -0.8772 -0.0523  0.5164
 2020TIP3   OH230254   4.934   0.721  18.398 -0.0894 -0.6958 -0.3492
 2020TIP3    H130255   5.024   0.694  18.417 -0.4520 -0.7889  1.3707
 2020TIP3    H230256   4.908   0.666  18.324  0.9190 -1.3848 -0.2129
 2021TIP3   OH230257   6.564   5.139  18.306 -0.4341 -0.1849  0.0510
 2021TIP3    H130258   6.606   5.053  18.306  0.6122  0.2957 -0.5342
 2021TIP3    H230259   6.612   5.189  18.239 -0.4101  1.1313  0.9955
 2022TIP3   OH230260   6.881   3.657  17.341 -0.2941 -0.3382 -0.0905
 2022TIP3    H130261   6.802   3.608  17.322 -0.3060  0.6645 -3.0350
 2022TIP3    H230262   6.947   3.590  17.359 -0.3250 -1.6226 -3.8977
 2023TIP3   OH230263   6.601   5.355  17.865 -0.2170 -0.2665 -0.0305
 2023TIP3    H130264   6.602   5.268  17.906 -0.8796 -0.5803 -0.6463
 2023TIP3    H230265   6.582   5.338  17.773  0.8026  0.4617 -0.3871
 2024TIP3   OH230266   3.879   7.174  16.649 -0.1062 -0.1605  0.3424
 2024TIP3    H130267   3.790   7.181  16.683  0.0908 -0.0322  0.8304
 2024TIP3    H230268   3.908   7.265  16.639 -0.4801 -0.1612 -1.0254
 2025TIP3   OH230269   8.378   5.721  18.504 -0.1858  0.2506  0.4294
 2025TIP3    H130270   8.439   5.783  18.463  0.0737 -0.6933 -0.6967
 2025TIP3    H230271   8.430   5.679  18.572 -0.1452  0.7567  0.7146
 2026TIP3   OH230272   3.705   1.830  17.400  0.1631  0.5159  0.0707
 2026TIP3    H130273   3.664   1.915  17.380  0.9548  1.4710  2.1350
 2026TIP3    H230274   3.652   1.795  17.472 -1.7281 -2.0681 -2.3726
 2027TIP3   OH230275   0.324   3.590  18.242  0.5537  0.2593 -0.0871
 2027TIP3    H130276   0.408   3.545  18.231  0.1022 -0.1741 -2.3803
 2027TIP3    H230277   0.259   3.525  18.214 -0.6991  0.2226  2.6254
 2028TIP3   OH230278   3.152   4.936  17.425  0.1376 -0.5198  0.3276
 2028TIP3    H130279   3.203   5.013  17.451 -0.0266  0.2725 -1.5509
 2028TIP3    H230280   3.212   4.885  17.372 -0.7999  0.1721 -1.4879
 2029TIP3   OH230281   1.029   2.739  16.964 -0.1664 -0.1371 -0.1979
 2029TIP3    H130282   0.933   2.734  16.955 -0.0691 -2.7634 -0.5027
 2029TIP3    H230283   1.061   2.751  16.874 -0.1799  0.0251 -0.1812
 2030TIP3   OH230284   1.325   2.614  17.529 -0.3022  0.0829 -0.9040
 2030TIP3    H130285   1.402   2.566  17.560 -1.0653 -1.0164 -0.6260
 2030TIP3    H230286   1.320   2.690  17.587 -0.2342 -0.5920  0.0103
 2031TIP3   OH230287   8.178   3.606  17.958 -0.1467 -0.2635 -0.1753
 2031TIP3    H130288   8.253   3.660  17.982 -1.4807  1.2334  0.8730
 2031TIP3    H230289   8.147   3.645  17.876  0.6581 -1.3868 -1.0433
 2032TIP3   OH230290   7.170   5.916  16.959  0.4255 -0.0116 -0.3056
 2032TIP3    H130291   7.212   5.915  16.873 -2.8826 -0.9251 -2.0996
 2032TIP3    H230292   7.199   5.998  16.999  0.3832  1.5792 -3.2631
 2033TIP3   OH230293   1.898   5.769  17.428 -0.1975  0.0506  0.1337
 2033TIP3    H130294   1.993   5.758  17.417 -0.1912  0.3240 -0.1042
 2033TIP3    H230295   1.884   5.863  17.420 -0.6043 -0.0767 -0.8068
 2034TIP3   OH230296   0.433   4.689  17.676  0.2980  0.3967 -0.6265
 2034TIP3    H130297   0.375   4.719  17.746  1.8958 -2.3260  2.1104
 2034TIP3    H230298   0.515   4.735  17.692  0.8148 -0.5922 -0.3302
 2035TIP3   OH230299   7.839   4.970  16.428 -0.2888  0.2979  0.4552
 2035TIP3    H130300   7.780   5.044  16.441 -2.4273 -1.1016 -0.6862
 2035TIP3    H230301   7.908   5.003  16.371 -0.8960  1.5414  0.4158
 2036TIP3   OH230302   3.275   6.083  16.818  0.1511 -0.3046  0.0726
 2036TIP3    H130303   3.240   6.008  16.770  0.4544 -0.7062  0.4740
 2036TIP3    H230304   3.230   6.158  16.780  1.9494 -0.3524 -2.3481
 2037TIP3   OH230305   5.910   5.499  16.478  0.2183  0.9551 -0.1191
 2037TIP3    H130306   5.972   5.565  16.446 -0.2486  1.0083 -0.9300
 2037TIP3    H230307   5.835   5.505  16.419  0.7726 -1.3642 -1.1543
 2038TIP3   OH230308   5.088   2.440  16.984  0.2114 -0.6574 -0.7397
 2038TIP3    H130309   5.020   2.452  16.917 -0.5028 -0.6339 -0.0311
 2038TIP3    H230310   5.086   2.520  17.035 -0.6605 -1.4510  0.5344
 2039TIP3   OH230311   6.541   5.286  16.244  0.1858  0.1935  0.2723
 2039TIP3    H130312   6.498   5.294  16.328  1.5050  1.5137  0.8649
 2039TIP3    H230313   6.488   5.339  16.184 -2.2450 -2.7405 -0.4590
 2040TIP3   OH230314   7.986   4.777  17.770  0.1627  0.1261  0.2174
 2040TIP3    H130315   7.899   4.772  17.730  0.7298 -1.1496 -0.9246
 2040TIP3    H230316   8.019   4.687  17.769  1.2263  0.4645  1.2977
 2041TIP3   OH230317   4.032   7.275  17.006  0.2208 -0.3548 -0.1979
 2041TIP3    H130318   3.950   7.226  17.013  0.4489 -0.7638 -0.3954
 2041TIP3    H230319   4.093   7.215  16.965  1.2036 -0.7404  1.7316
 2042TIP3   OH230320   5.778   6.344  16.511  0.1713 -0.4841  0.4108
 2042TIP3    H130321   5.869   6.374  16.505  0.3393 -0.9324  0.6689
 2042TIP3    H230322   5.747   6.344  16.421  0.2184  0.3109  0.3932
 2043TIP3   OH230323   6.114   5.674  17.671  0.1749 -0.0531 -0.7398
 2043TIP3    H130324   6.114   5.760  17.628  0.9323 -0.9559 -2.7160
 2043TIP3    H230325   6.057   5.685  17.747  0.1718  2.1578 -0.9721
 2044TIP3   OH230326   4.053   6.891  17.464  0.2500  0.3144 -0.3598
 2044TIP3    H130327   4.098   6.956  17.410 -0.6885 -0.0427 -1.6091
 2044TIP3    H230328   3.960   6.907  17.450 -0.0027 -0.7403 -0.0232
 2045TIP3   OH230329   7.670   2.197  18.400 -0.1238 -0.4965 -0.1135
 2045TIP3    H130330   7.654   2.289  18.378  0.2952 -0.2582  0.5587
 2045TIP3    H230331   7.601   2.175  18.462 -1.2572 -1.1470 -1.5349
 2046TIP3   OH230332   1.278   3.225  18.666 -0.2479 -0.1331 -0.0904
 2046TIP3    H130333   1.349   3.191  18.721 -0.4639 -0.5069 -0.0390
 2046TIP3    H230334   1.310   3.310  18.635 -0.6778  0.7290  1.7170
 2047TIP3   OH230335   0.759   0.874  17.499 -0.3055  0.1131  0.0149
 2047TIP3    H130336   0.831   0.859  17.438 -0.5319 -1.5921  0.1248
 2047TIP3    H230337   0.779   0.959  17.538  2.0139 -0.5715  0.4994
 2048TIP3   OH230338   4.815   1.144  17.202  0.4012 -0.1618 -0.3654
 2048TIP3    H130339   4.879   1.186  17.145  0.2707 -0.1587 -0.5108
 2048TIP3    H230340   4.768   1.216  17.243 -1.0422 -0.1208 -1.9668
 2049TIP3   OH230341   3.382   6.897  18.691  0.4668  0.3460  0.5219
 2049TIP3    H130342   3.412   6.944  18.614 -0.6627 -0.0966 -0.2061
 2049TIP3    H230343   3.417   6.808  18.681 -1.1852 -0.2474 -0.4599
 2050TIP3   OH230344   7.252   3.301  18.598 -0.3992 -0.8099 -0.0935
 2050TIP3    H130345   7.172   3.293  18.650 -0.7723 -1.4815 -0.7579
 2050TIP3    H230346   7.290   3.213  18.600 -0.5218 -0.8955 -1.1151
 2051TIP3   OH230347   0.885   1.220  18.571  0.3541  0.8699  0.1773
 2051TIP3    H130348   0.960   1.184  18.619 -0.2121  1.6338  1.7286
 2051TIP3    H230349   0.820   1.150  18.569 -0.0355  1.1644  1.5452
 2052TIP3   OH230350   1.735   6.754  17.714  0.2470  0.0970  0.0211
 2052TIP3    H130351   1.706   6.769  17.804 -1.3942 -1.7049 -0.1424
 2052TIP3    H230352   1.701   6.830  17.666  0.6904  0.8199  0.8168
 2053TIP3   OH230353   0.753   5.890  17.000 -0.0728  0.2385  0.2851
 2053TIP3    H130354   0.840   5.896  16.962 -1.2273  0.9072 -2.4776
 2053TIP3    H230355   0.758   5.815  17.060  1.6417 -1.6405 -2.0393
 2054TIP3   OH230356   5.959   4.654  18.368 -0.6654 -0.0924 -0.0364
 2054TIP3    H130357   5.953   4.559  18.363 -1.2026 -0.0671  0.0908
 2054TIP3    H230358   6.049   4.670  18.398 -0.3348 -0.5244 -0.7642
 2055TIP3   OH230359   6.616   7.394  16.418 -0.1284 -0.3819  0.0535
 2055TIP3    H130360   6.625   7.311  16.371  0.5482 -0.7956  0.8892
 2055TIP3    H230361   6.538   7.434  16.380 -0.9794 -1.7900  0.2177
 2056TIP3   OH230362   6.082   6.717  17.727 -0.0319  0.0565  0.2038
 2056TIP3    H130363   6.031   6.786  17.685  1.2808  0.4718 -0.7816
 2056TIP3    H230364   6.034   6.697  17.807  0.5879  3.5833  1.6327
 2057TIP3   OH230365   2.051   6.659  16.924  0.5235  0.1140  0.1888
 2057TIP3    H130366   2.116   6.678  16.991  1.4069 -0.7312 -0.4075
 2057TIP3    H230367   2.024   6.745  16.892 -0.1024  0.5394  1.7707
 2058TIP3   OH230368   7.468   4.482  18.123 -0.1919  0.0090  0.0608
 2058TIP3    H130369   7.543   4.443  18.077 -0.6220 -0.9857  0.1853
 2058TIP3    H230370   7.404   4.498  18.054 -0.6415 -1.0165  0.2319
 2059TIP3   OH230371   4.147   3.692  18.394 -0.0414 -0.6754 -0.2344
 2059TIP3    H130372   4.193   3.624  18.444  1.0847 -1.2952 -2.0053
 2059TIP3    H230373   4.059   3.657  18.380 -0.0567 -0.9198  0.4295
 2060TIP3   OH230374   4.816   0.602  18.182 -0.6906 -0.0936  0.4305
 2060TIP3    H130375   4.835   0.564  18.096 -2.3318 -1.6753  0.6974
 2060TIP3    H230376   4.728   0.640  18.173 -0.5944  0.3480  1.2107
 2061TIP3   OH230377   4.054   5.141  18.827 -0.0294 -0.0782 -0.1315
 2061TIP3    H130378   3.962   5.115  18.826 -0.3600  0.9103  1.2121
 2061TIP3    H230379   4.099   5.068  18.871 -0.4197  0.0932  0.5659
 2062TIP3   OH230380   3.842   7.530  17.901 -0.1089  0.1319 -0.0931
 2062TIP3    H130381   3.772   7.491  17.954  0.6068  1.6413  2.1309
 2062TIP3    H230382   3.819   7.623  17.897  0.5335  0.2494 -1.3972
 2063TIP3   OH230383   7.486   4.803  18.503 -0.2260 -0.2633  0.5529
 2063TIP3    H130384   7.398   4.823  18.471 -0.3558 -0.6287  0.6805
 2063TIP3    H230385   7.512   4.724  18.456 -0.5850 -1.0459  1.6495
 2064TIP3   OH230386   2.344   0.697  18.546  0.1227 -0.5981 -0.4041
 2064TIP3    H130387   2.309   0.736  18.466  0.1023  0.6095  0.1716
 2064TIP3    H230388   2.432   0.732  18.553  0.8640 -2.2675 -0.9218
 2065TIP3   OH230389   5.619   3.096  18.582  0.7535  0.0988 -0.4928
 2065TIP3    H130390   5.707   3.082  18.547  0.2059 -0.3453 -1.7645
 2065TIP3    H230391   5.601   3.188  18.565  0.3599 -0.1888 -1.7825
 2066TIP3   OH230392   4.672   5.119  17.929  0.0443  0.5414  0.0500
 2066TIP3    H130393   4.613   5.172  17.984  0.2564 -0.6422  1.4949
 2066TIP3    H230394   4.638   5.029  17.939  1.3938  0.0082 -0.0258
 2067TIP3   OH230395   6.929   5.579  18.056  0.0115 -0.4244 -0.3467
 2067TIP3    H130396   6.934   5.563  18.151  1.7615 -1.5882 -0.5884
 2067TIP3    H230397   6.952   5.671  18.046  1.0537 -0.6019  0.2784
 2068TIP3   OH230398   0.768   8.193  18.428 -0.3201 -0.3298 -0.1668
 2068TIP3    H130399   0.772   8.262  18.362 -2.5326  0.5813  0.5714
 2068TIP3    H230400   0.856   8.155  18.428  0.9355  2.3883 -0.6932
 2069TIP3   OH230401   1.530   6.358  16.408  0.4021  0.3207 -0.3543
 2069TIP3    H130402   1.518   6.453  16.402 -1.2146  0.0392 -4.0423
 2069TIP3    H230403   1.441   6.323  16.411  0.9771 -1.1572  0.7734
 2070TIP3   OH230404   7.589   8.227  17.411  0.5311  0.2975  0.6517
 2070TIP3    H130405   7.518   8.200  17.469  1.3866 -2.0809  0.7143
 2070TIP3    H230406   7.666   8.183  17.446  1.2189 -0.6205 -1.7867
 2071TIP3   OH230407   1.070   1.083  18.052  0.0211  0.2176 -0.2508
 2071TIP3    H130408   1.077   1.034  17.970 -0.5249 -0.2694 -0.0149
 2071TIP3    H230409   1.137   1.151  18.045 -0.1500  0.3082 -1.1822
 2072TIP3   OH230410   5.368   2.671  17.752  0.4230  0.4245  0.5632
 2072TIP3    H130411   5.421   2.595  17.775 -0.4995 -0.5251 -0.2842
 2072TIP3    H230412   5.359   2.720  17.833  1.5629 -0.0370  0.9858
 2073TIP3   OH230413   6.322   3.506  16.702  0.2085 -0.5329  0.5641
 2073TIP3    H130414   6.248   3.554  16.665  0.3626 -0.7937 -0.1057
 2073TIP3    H230415   6.282   3.437  16.755 -0.0806 -1.5291 -0.8839
 2074TIP3   OH230416   6.902   5.103  18.039 -0.0245  0.2981  0.4429
 2074TIP3    H130417   6.882   5.152  18.118  0.5106  0.6000  0.3986
 2074TIP3    H230418   6.959   5.161  17.989 -0.5211  0.1921 -0.2586
 2075TIP3   OH230419   4.208   6.085  17.323 -0.0867  0.2104  0.3040
 2075TIP3    H130420   4.179   6.176  17.330 -0.8522 -0.1424  2.2415
 2075TIP3    H230421   4.169   6.041  17.398  1.6771 -1.3470  0.3922
 2076TIP3   OH230422   5.153   6.736  16.589  0.5873  0.4673 -0.7095
 2076TIP3    H130423   5.163   6.641  16.577 -1.2504 -0.1683  1.9392
 2076TIP3    H230424   5.228   6.761  16.643  1.6291  0.7949 -2.2313
 2077TIP3   OH230425   2.830   2.867  17.080  0.1425 -0.9390  0.1546
 2077TIP3    H130426   2.912   2.834  17.116  1.0179  0.9609  0.0280
 2077TIP3    H230427   2.762   2.811  17.117  1.3589 -1.5184  1.5717
 2078TIP3   OH230428   7.802   1.648  17.966 -0.1327  0.4974 -0.1956
 2078TIP3    H130429   7.889   1.618  17.991 -0.4250 -1.2848 -1.1350
 2078TIP3    H230430   7.779   1.714  18.032  1.8238  0.8591  0.1694
 2079TIP3   OH230431   4.006   4.657  18.400 -0.5964 -0.2986 -0.3491
 2079TIP3    H130432   3.987   4.658  18.306  0.5424  0.8087 -0.6120
 2079TIP3    H230433   4.082   4.600  18.408  0.4036  0.9738 -0.3874
 2080TIP3   OH230434   0.091   0.371  17.324  0.3040 -0.1568 -0.5427
 2080TIP3    H130435   0.115   0.368  17.231  0.6602  0.4700 -0.4771
 2080TIP3    H230436   0.032   0.447  17.331 -0.0609 -0.4565 -0.3299
 2081TIP3   OH230437   6.509   5.496  16.622  0.2298  0.0271  0.3927
 2081TIP3    H130438   6.451   5.420  16.618 -0.7378  0.7100  0.7908
 2081TIP3    H230439   6.583   5.467  16.674  0.0028 -0.7208  0.3136
 2082TIP3   OH230440   7.989   3.808  17.794 -0.7318 -0.1702  0.3726
 2082TIP3    H130441   7.895   3.791  17.791 -0.9101  0.2771  2.1655
 2082TIP3    H230442   8.002   3.857  17.875  0.9658  0.3744 -0.1773
 2083TIP3   OH230443   0.572   5.225  19.173 -0.1340  0.2809  0.1657
 2083TIP3    H130444   0.480   5.217  19.197  0.4937  1.5280  3.4531
 2083TIP3    H230445   0.590   5.319  19.181  1.4518  0.0479 -0.4243
 2084TIP3   OH230446   2.768   6.343  17.995 -0.3039  0.3987 -0.2307
 2084TIP3    H130447   2.824   6.314  17.924  0.6589  0.9874  0.2712
 2084TIP3    H230448   2.688   6.372  17.952  1.3113  3.4903 -1.4395
 2085TIP3   OH230449   7.161   1.641  16.996 -0.3694 -0.1222 -0.5905
 2085TIP3    H130450   7.243   1.665  17.039 -0.9942  0.0622  0.5102
 2085TIP3    H230451   7.168   1.546  16.983  0.6399  0.0953 -1.8717
 2086TIP3   OH230452   6.877   4.911  16.309 -0.1942 -0.4759  0.1487
 2086TIP3    H130453   6.904   4.831  16.354 -0.1242 -0.0305  0.9179
 2086TIP3    H230454   6.959   4.949  16.278 -0.0820  0.0083  1.0097
 2087TIP3   OH230455   7.106   8.435  18.823  0.6289 -0.2206  0.0708
 2087TIP3    H130456   7.108   8.531  18.815 -0.1354 -0.0714  1.4171
 2087TIP3    H230457   7.196   8.408  18.803  0.7283  0.7066 -0.8878
 2088TIP3   OH230458   0.221   4.132  18.083  0.1914 -0.5091 -0.2604
 2088TIP3    H130459   0.219   4.037  18.096  1.5843 -0.6485 -0.9684
 2088TIP3    H230460   0.129   4.157  18.080 -0.2060 -1.7310  0.6164
 2089TIP3   OH230461   3.274   1.608  18.255  0.3795  0.5036 -0.2839
 2089TIP3    H130462   3.292   1.608  18.349 -0.2014 -0.0529 -0.1693
 2089TIP3    H230463   3.216   1.682  18.242 -1.0478 -0.5117  0.1042
 2090TIP3   OH230464   2.097   5.946  18.092  0.2855 -0.2934  1.1425
 2090TIP3    H130465   2.005   5.930  18.071  0.3078 -2.8523  2.4700
 2090TIP3    H230466   2.095   5.980  18.181  0.6056 -1.6400  1.6985
 2091TIP3   OH230467   7.112   1.581  18.766  0.4266 -0.0093 -0.9707
 2091TIP3    H130468   7.044   1.531  18.812  1.0452  0.2553  0.2656
 2091TIP3    H230469   7.184   1.586  18.828  0.9195  1.2129 -1.6175
 2092TIP3   OH230470   6.371   5.479  17.339 -0.2847 -0.4468 -0.2557
 2092TIP3    H130471   6.439   5.455  17.275  0.6377  0.6569  0.2696
 2092TIP3    H230472   6.372   5.575  17.340 -1.5501 -0.4296  0.0998
 2093TIP3   OH230473   3.240   7.747  18.551  0.5589 -0.5019  0.2951
 2093TIP3    H130474   3.222   7.655  18.571 -0.2636 -0.6198 -0.8434
 2093TIP3    H230475   3.156   7.791  18.567  0.1310 -0.4544 -1.7941
 2094TIP3   OH230476   4.917   0.127  18.147 -0.3055 -0.1720 -0.4798
 2094TIP3    H130477   4.849   0.190  18.173 -0.6402 -0.2004 -1.2406
 2094TIP3    H230478   4.869   0.047  18.129 -0.0961 -0.1411 -1.2050
 2095TIP3   OH230479   7.047   1.831  17.210 -0.2574  0.5936 -0.2109
 2095TIP3    H130480   7.140   1.855  17.204  0.0107  1.2073  3.6151
 2095TIP3    H230481   7.046   1.736  17.195  0.6138  0.8554 -2.3088
 2096TIP3   OH230482   5.225   6.459  16.586 -1.0610 -0.7104 -0.2803
 2096TIP3    H130483   5.194   6.394  16.649 -2.3410  0.0925 -0.0449
 2096TIP3    H230484   5.314   6.431  16.564 -1.6067 -2.5833 -0.2642
 2097TIP3   OH230485   3.714   5.552  17.469  0.1231 -0.3908  0.3486
 2097TIP3    H130486   3.717   5.492  17.395  0.9022 -0.1243  0.1556
 2097TIP3    H230487   3.753   5.502  17.541 -2.5909 -1.4648  1.2188
 2098TIP3   OH230488   8.336   2.827  19.236 -0.6139 -0.1863 -0.0117
 2098TIP3    H130489   8.257   2.881  19.244 -0.2607  0.4157 -0.5083
 2098TIP3    H230490   8.408   2.890  19.239 -0.1144 -0.7881  1.0642
 2099TIP3   OH230491   3.790   6.897  17.391 -0.0508 -0.2953  0.3411
 2099TIP3    H130492   3.757   6.840  17.321 -0.1066 -0.9853  0.9193
 2099TIP3    H230493   3.716   6.905  17.452  0.5532 -1.1690  1.2225
 2100TIP3   OH230494   4.077   5.772  17.941  0.3523 -0.0863 -0.1733
 2100TIP3    H130495   4.146   5.837  17.951 -0.0751  0.5014 -0.9156
 2100TIP3    H230496   4.123   5.690  17.926  0.8876  0.2168 -0.2048
 2101TIP3   OH230497   7.480   5.595  17.854 -0.7942 -0.2320  0.7556
 2101TIP3    H130498   7.397   5.558  17.882 -2.5399  1.4477 -1.7443
 2101TIP3    H230499   7.470   5.610  17.760  2.6663 -0.6951  0.1498
 2102TIP3   OH230500   6.736   5.127  16.419  0.4786 -0.3756  0.1137
 2102TIP3    H130501   6.790   5.058  16.378 -2.4094 -3.0205  0.3490
 2102TIP3    H230502   6.668   5.145  16.354  1.2211  2.4801  0.0226
 2103TIP3   OH230503   2.182   4.573  17.511  0.5995 -0.5772 -0.2148
 2103TIP3    H130504   2.204   4.545  17.423  2.2097 -1.3672  0.4051
 2103TIP3    H230505   2.115   4.511  17.540 -1.2842  0.7398 -1.4512
 2104TIP3   OH230506   4.839   4.333  17.393 -0.3844 -0.6386 -0.5272
 2104TIP3    H130507   4.867   4.369  17.477 -1.4327 -0.5935 -0.1837
 2104TIP3    H230508   4.921   4.319  17.345  0.4365 -2.6880  1.2975
 2105TIP3   OH230509   5.326   4.484  17.250 -0.1487 -0.5770  0.3295
 2105TIP3    H130510   5.326   4.502  17.344  2.6737  1.9405  0.0127
 2105TIP3    H230511   5.403   4.429  17.237  2.0253  2.4403 -0.8100
 2106TIP3   OH230512   1.317   5.325  16.590  0.0194  0.6376  0.3099
 2106TIP3    H130513   1.275   5.264  16.529  0.2497  0.4474  0.3392
 2106TIP3    H230514   1.362   5.268  16.652 -0.3142  0.8260  0.7300
 2107TIP3   OH230515   0.404   0.523  17.690 -0.3511 -0.4812 -0.8654
 2107TIP3    H130516   0.474   0.532  17.626  1.9048  3.1443  1.7263
 2107TIP3    H230517   0.441   0.468  17.759 -1.1137 -0.8278 -0.7215
 2108TIP3   OH230518   3.095   4.732  18.827 -0.1391  0.4534  0.1783
 2108TIP3    H130519   3.013   4.707  18.784 -1.0365  3.7524 -0.2833
 2108TIP3    H230520   3.126   4.651  18.868 -2.0588 -1.5978 -2.0894
 2109TIP3   OH230521   0.162   2.169  18.318 -0.0026 -0.6117 -0.4151
 2109TIP3    H130522   0.079   2.169  18.366  0.5893 -0.8903  0.6402
 2109TIP3    H230523   0.225   2.209  18.379  0.1877  1.7570 -2.0435
 2110TIP3   OH230524   7.379   5.596  19.082 -0.2068 -0.2227  0.1364
 2110TIP3    H130525   7.419   5.512  19.102  0.2324  0.4478  2.4529
 2110TIP3    H230526   7.326   5.617  19.160 -0.5118  1.5144 -0.4745
 2111TIP3   OH230527   5.234   4.863  17.768 -0.0311 -0.3867 -0.1389
 2111TIP3    H130528   5.167   4.796  17.780 -1.4025  0.8652 -0.4252
 2111TIP3    H230529   5.252   4.895  17.856  0.1510 -0.6928 -0.0649
 2112TIP3   OH230530   0.959   1.857  17.980 -0.0775 -0.7873 -0.4897
 2112TIP3    H130531   0.904   1.891  17.910  0.1066 -1.8933 -1.1999
 2112TIP3    H230532   0.985   1.770  17.950 -0.9025 -1.7622  1.4537
 2113TIP3   OH230533   6.774   0.777  19.028  0.1092  0.4021 -0.0045
 2113TIP3    H130534   6.687   0.737  19.028  0.4450 -0.3597 -0.4940
 2113TIP3    H230535   6.759   0.867  19.058 -1.0288  0.6682 -1.2240
 2114TIP3   OH230536   2.205   5.518  17.983  0.1206  0.1852 -0.0939
 2114TIP3    H130537   2.160   5.565  17.913 -0.6232  0.5492  0.6163
 2114TIP3    H230538   2.259   5.584  18.026 -0.3551  0.2357  0.4363
 2115TIP3   OH230539   0.342   1.135  18.575 -0.1548  0.3275 -0.3775
 2115TIP3    H130540   0.313   1.221  18.605  0.8900 -0.0715  1.9941
 2115TIP3    H230541   0.281   1.073  18.614 -0.4613 -0.0802 -1.4660
 2116TIP3   OH230542   6.477   5.479  18.738  0.4129 -0.4044 -0.1328
 2116TIP3    H130543   6.540   5.465  18.808  0.6747 -0.7608 -0.4360
 2116TIP3    H230544   6.524   5.455  18.658  0.8016  1.8787 -0.6690
 2117TIP3   OH230545   0.537   3.954  19.111 -0.4323  0.6864  0.5263
 2117TIP3    H130546   0.461   4.000  19.147 -1.3139 -0.8406  0.6746
 2117TIP3    H230547   0.594   3.941  19.187 -1.4772 -0.9342  1.0943
 2118TIP3   OH230548   4.573   2.295  18.009 -0.3828  0.2958  0.1945
 2118TIP3    H130549   4.484   2.326  18.022  0.2397  1.8959  0.9674
 2118TIP3    H230550   4.588   2.232  18.079 -0.5039  1.0228  0.8960
 2119TIP3   OH230551   2.627   7.521  18.651  0.2469  0.0647 -0.4039
 2119TIP3    H130552   2.588   7.465  18.585  1.4719  0.9038 -1.9149
 2119TIP3    H230553   2.554   7.572  18.686 -0.1333  1.3484 -2.8820
 2120TIP3   OH230554   8.271   2.731  18.750  0.3252 -0.1889 -0.2403
 2120TIP3    H130555   8.299   2.701  18.836  2.8172  0.9913 -0.5271
 2120TIP3    H230556   8.245   2.822  18.763 -1.8686 -0.7503 -0.3284
 2121TIP3   OH230557   1.569   1.544  16.806  0.1093  0.2688 -0.7457
 2121TIP3    H130558   1.482   1.576  16.781 -0.1928 -0.0265 -0.0890
 2121TIP3    H230559   1.623   1.623  16.812 -0.5457  0.6411  0.5278
 2122TIP3   OH230560   5.517   7.999  18.289  0.0207  0.4518 -0.2010
 2122TIP3    H130561   5.541   8.089  18.310  1.5514  0.2601 -1.0307
 2122TIP3    H230562   5.599   7.950  18.294 -0.7644 -0.8772  0.0951
 2123TIP3   OH230563   6.053   2.601  17.229 -0.5776 -0.2645  0.0393
 2123TIP3    H130564   6.125   2.562  17.179 -0.4691  0.1983 -0.1713
 2123TIP3    H230565   6.097   2.657  17.294 -0.7142 -0.9098  0.7027
 2124TIP3   OH230566   0.223   5.159  17.706 -0.2726  0.3842 -0.6737
 2124TIP3    H130567   0.306   5.204  17.716 -0.5065  0.4288  1.5312
 2124TIP3    H230568   0.162   5.227  17.679 -0.2701  1.0928  0.9996
 2125TIP3   OH230569   3.170   4.021  17.307  0.0839  0.2753 -0.1293
 2125TIP3    H130570   3.190   3.958  17.376  0.4577  0.8689  0.3147
 2125TIP3    H230571   3.173   4.106  17.351  1.2895  0.7517 -1.0732
 2126TIP3   OH230572   7.683   3.205  18.169 -0.0270 -0.0826 -0.3769
 2126TIP3    H130573   7.648   3.203  18.258  0.1339  1.3212 -0.2433
 2126TIP3    H230574   7.625   3.265  18.122  1.2431  1.0762 -0.5489
 2127TIP3   OH230575   1.327   5.313  17.858 -0.2855  0.8038 -0.2811
 2127TIP3    H130576   1.248   5.355  17.824 -0.5638  0.9793  0.5412
 2127TIP3    H230577   1.399   5.369  17.829 -0.6189  1.6401  0.4531
 2128TIP3   OH230578   6.791   6.011  18.904 -0.1125  0.0129 -0.2772
 2128TIP3    H130579   6.864   6.071  18.888 -0.1597  0.1627  0.0514
 2128TIP3    H230580   6.717   6.069  18.924  0.2157 -0.1508  1.6499
 2129TIP3   OH230581   2.627   3.961  17.895  0.5094 -0.2103  0.1571
 2129TIP3    H130582   2.583   4.045  17.906 -1.2250 -1.2808  2.1212
 2129TIP3    H230583   2.575   3.915  17.829  0.0997 -0.5750  0.7289
 2130TIP3   OH230584   8.393   4.623  18.540 -0.1806  0.3173  0.2980
 2130TIP3    H130585   8.347   4.660  18.464  1.0435  1.2079 -0.0343
 2130TIP3    H230586   8.348   4.662  18.615  0.3107  1.5688 -0.0277
 2131TIP3   OH230587   4.597   5.174  18.595  0.0135 -0.0784  0.7336
 2131TIP3    H130588   4.533   5.226  18.644 -1.3656 -1.5679  0.5858
 2131TIP3    H230589   4.553   5.091  18.579  0.9348 -0.1622 -1.7973
 2132TIP3   OH230590   3.291   4.184  17.879  0.7474 -0.0372  0.1657
 2132TIP3    H130591   3.305   4.111  17.939  0.9205  0.0389  0.2162
 2132TIP3    H230592   3.345   4.255  17.913 -0.1742  0.4363  0.6829
 2133TIP3   OH230593   7.383   6.002  16.796  0.2329 -0.5117  0.0892
 2133TIP3    H130594   7.443   6.074  16.818  1.7045 -0.8832 -2.2885
 2133TIP3    H230595   7.325   6.039  16.729 -0.5895 -0.8799  0.5863
 2134TIP3   OH230596   2.864   4.393  18.955 -0.2710  0.1651 -0.0739
 2134TIP3    H130597   2.832   4.480  18.932  0.9575  0.3598 -1.1256
 2134TIP3    H230598   2.956   4.407  18.981  0.6616 -1.0691 -2.4256
 2135TIP3   OH230599   6.396   1.571  18.201  0.1928 -0.3641 -0.3324
 2135TIP3    H130600   6.389   1.647  18.260  0.9523 -0.2592 -0.3630
 2135TIP3    H230601   6.489   1.548  18.204 -0.0460 -1.3347 -0.2804
 2136TIP3   OH230602   5.975   6.165  18.674 -0.3086  0.0829  0.5399
 2136TIP3    H130603   5.990   6.120  18.591 -1.3224  2.6453 -1.1683
 2136TIP3    H230604   6.061   6.197  18.701 -0.2787  1.3242 -0.8961
 2137TIP3   OH230605   4.343   3.777  17.636 -0.0949 -0.5589  0.0120
 2137TIP3    H130606   4.421   3.819  17.673 -0.2901 -0.3221  0.1592
 2137TIP3    H230607   4.351   3.789  17.542 -1.5438  2.3640  0.1383
 2138TIP3   OH230608   2.826   0.643  16.829 -0.3701 -0.3769  0.4445
 2138TIP3    H130609   2.818   0.738  16.834 -0.4924 -0.4046  0.7672
 2138TIP3    H230610   2.828   0.624  16.735  0.1931 -0.0131  0.3797
 2139TIP3   OH230611   0.294   3.777  19.314 -0.5264 -0.5169 -0.0718
 2139TIP3    H130612   0.376   3.740  19.347 -1.3005 -2.7157 -0.4153
 2139TIP3    H230613   0.268   3.841  19.379 -0.1257 -2.0744  1.7094
 2140TIP3   OH230614   7.084   6.451  17.352 -0.7442 -0.3844  0.1078
 2140TIP3    H130615   7.109   6.535  17.389 -0.4005 -1.0033  1.3507
 2140TIP3    H230616   7.130   6.447  17.268 -1.7646  1.1779 -0.5629
 2141TIP3   OH230617   0.484   6.705  17.749 -0.3105 -0.0049 -0.2283
 2141TIP3    H130618   0.573   6.702  17.712  0.1781  1.4553  0.7021
 2141TIP3    H230619   0.496   6.681  17.841 -0.9396 -0.1842 -0.1955
 2142TIP3   OH230620   8.048   0.840  18.612 -0.5082  0.2075  0.6131
 2142TIP3    H130621   8.078   0.909  18.554 -0.9675 -0.5103 -0.5136
 2142TIP3    H230622   8.068   0.759  18.565 -1.6075 -0.3637  1.0986
 2143TIP3   OH230623   1.041   2.399  16.923 -0.0367  0.4738  0.0974
 2143TIP3    H130624   0.990   2.464  16.873  0.9662  1.6704  0.5701
 2143TIP3    H230625   1.131   2.430  16.918  0.2642 -0.0547  1.6064
 2144TIP3   OH230626   4.097   3.381  18.394 -0.0939  0.4118  0.6353
 2144TIP3    H130627   4.006   3.379  18.422 -0.0631  1.5763  0.8932
 2144TIP3    H230628   4.093   3.405  18.302 -0.0564  0.0629  0.5404
 2145TIP3   OH230629   0.596   7.964  17.114 -0.7098 -0.3615  0.1509
 2145TIP3    H130630   0.643   7.982  17.033  0.4045 -3.2800  0.0246
 2145TIP3    H230631   0.571   7.872  17.107 -2.9050  0.0079  2.0191
 2146TIP3   OH230632   6.290   5.085  17.459  0.2432 -0.3615  0.4930
 2146TIP3    H130633   6.258   5.168  17.424 -0.0775  0.2187  2.0818
 2146TIP3    H230634   6.214   5.026  17.453  0.6098 -0.7217 -1.0840
 2147TIP3   OH230635   0.933   5.813  18.448  0.3199 -0.3065  0.3741
 2147TIP3    H130636   0.900   5.750  18.385 -0.6771  2.1327 -1.7532
 2147TIP3    H230637   1.028   5.805  18.443  0.2215 -2.0313  0.6793
 2148TIP3   OH230638   5.057   3.962  18.096 -0.0086 -0.2521 -0.2715
 2148TIP3    H130639   5.130   3.994  18.043  1.5310 -0.4723  1.5919
 2148TIP3    H230640   4.987   4.025  18.081  1.3005  1.2265 -0.4501
 2149TIP3   OH230641   6.516   0.769  16.832 -0.6561  0.1880  0.3056
 2149TIP3    H130642   6.489   0.845  16.884  0.8630  0.7263  0.3659
 2149TIP3    H230643   6.513   0.801  16.741  1.1702  0.7431  0.4140
 2150TIP3   OH230644   7.097   2.353  17.505  0.3117 -0.4721 -0.4283
 2150TIP3    H130645   7.058   2.437  17.529  0.1161 -1.0934  1.6041
 2150TIP3    H230646   7.033   2.313  17.446 -0.2184  0.2452 -0.3560
 2151TIP3   OH230647   2.449   0.614  18.075  0.2158  0.1153  0.2765
 2151TIP3    H130648   2.370   0.574  18.038 -0.0664  1.4596 -0.6213
 2151TIP3    H230649   2.504   0.634  18.000  0.9477  0.1816  0.8165
 2152TIP3   OH230650   7.291   6.531  18.267  0.0432 -0.4714  0.4249
 2152TIP3    H130651   7.294   6.438  18.246 -1.7590 -0.2678 -0.9564
 2152TIP3    H230652   7.325   6.575  18.189 -1.1709  0.0896  0.1930
 2153TIP3   OH230653   1.089   1.708  18.772  0.1647  0.2955  0.6295
 2153TIP3    H130654   1.136   1.624  18.775  0.7131  0.5945  0.5879
 2153TIP3    H230655   1.005   1.690  18.814 -0.0695 -0.4903 -0.1436
 2154TIP3   OH230656   4.288   0.554  17.582  0.4492  0.4003 -0.0842
 2154TIP3    H130657   4.217   0.569  17.643 -1.0537 -0.3496 -1.5532
 2154TIP3    H230658   4.245   0.551  17.496  2.4289  1.1517 -1.1566
 2155TIP3   OH230659   3.844   7.443  17.231  0.3812  0.1708 -0.0601
 2155TIP3    H130660   3.891   7.399  17.160 -0.2610  1.1527 -1.1135
 2155TIP3    H230661   3.793   7.511  17.188 -0.5997  0.3102  1.2685
 2156TIP3   OH230662   2.373   2.590  17.074 -0.8204  0.0065  0.0047
 2156TIP3    H130663   2.427   2.653  17.026 -1.7350 -0.1440 -1.2712
 2156TIP3    H230664   2.409   2.591  17.163  1.0295  0.1777 -0.6948
 2157TIP3   OH230665   0.698   2.620  17.315 -0.3834  0.0413 -0.9740
 2157TIP3    H130666   0.635   2.548  17.314 -1.3508  0.8210  0.4454
 2157TIP3    H230667   0.645   2.699  17.313  0.5913  0.7231 -0.8189
 2158TIP3   OH230668   4.458   5.104  16.959  0.1869 -0.4500 -0.0633
 2158TIP3    H130669   4.546   5.079  16.984 -0.0438 -0.7932  0.4160
 2158TIP3    H230670   4.414   5.127  17.041  0.0596  0.4897 -0.3707
 2159TIP3   OH230671   4.148   3.343  18.082  0.4609 -0.3779  0.1024
 2159TIP3    H130672   4.166   3.425  18.035  0.6834  1.1009  2.5896
 2159TIP3    H230673   4.055   3.348  18.104  0.7283 -0.2549  1.2258
 2160TIP3   OH230674   0.024   4.822  16.778  0.5510 -0.4384 -0.0752
 2160TIP3    H130675   0.058   4.839  16.690 -1.7088 -0.2659 -0.9839
 2160TIP3    H230676   0.084   4.757  16.815  1.6320 -0.4104 -1.6822
 2161TIP3   OH230677   4.932   8.396  17.872  0.0701  0.2278  0.2027
 2161TIP3    H130678   5.009   8.441  17.837 -0.4518  0.3090 -0.8689
 2161TIP3    H230679   4.967   8.315  17.908  1.1971  1.8272  3.0898
 2162TIP3   OH230680   2.381   6.255  18.606  0.6430  0.4425  0.0238
 2162TIP3    H130681   2.306   6.238  18.663  0.6865 -2.4977 -0.6488
 2162TIP3    H230682   2.422   6.334  18.643 -3.1163  2.6384 -0.0372
 2163TIP3   OH230683   8.281   6.449  17.786 -0.0270  0.2095  0.2400
 2163TIP3    H130684   8.367   6.409  17.796 -0.3013 -0.9656 -1.5668
 2163TIP3    H230685   8.220   6.380  17.813 -0.4391  0.6141  0.3626
 2164TIP3   OH230686   7.167   6.675  17.477  0.1264 -0.2517 -0.1443
 2164TIP3    H130687   7.153   6.688  17.571  2.5061 -0.3890  0.2920
 2164TIP3    H230688   7.141   6.758  17.437  1.5647  0.7774  0.9680
 2165TIP3   OH230689   0.599   0.254  18.528  0.2214 -0.5246 -0.0851
 2165TIP3    H130690   0.629   0.342  18.552 -0.4727 -0.1886 -0.4168
 2165TIP3    H230691   0.505   0.264  18.511  0.4794 -0.8855 -2.0719
 2166TIP3   OH230692   7.278   7.965  18.697 -0.2118 -0.2760 -0.8385
 2166TIP3    H130693   7.198   8.007  18.728  1.2633  0.8571  1.7563
 2166TIP3    H230694   7.323   8.033  18.646 -0.3310 -0.4765 -1.2059
 2167TIP3   OH230695   0.895   6.216  16.802  0.2334 -0.3242 -0.3414
 2167TIP3    H130696   0.803   6.204  16.782  0.4816 -2.8222 -0.2716
 2167TIP3    H230697   0.941   6.153  16.746  1.5384 -1.9782  2.3873
 2168TIP3   OH230698   0.134   3.541  17.687 -0.3584 -0.2292  0.2430
 2168TIP3    H130699   0.175   3.499  17.763  0.5178 -1.1843 -0.7263
 2168TIP3    H230700   0.189   3.618  17.671 -1.8456  1.2541  1.8950
 2169TIP3   OH230701   2.266   6.137  18.821  0.1490 -0.4120 -0.1190
 2169TIP3    H130702   2.250   6.047  18.852  2.5008 -1.3689 -1.4414
 2169TIP3    H230703   2.267   6.190  18.901 -2.5594 -1.2618  0.6000
 2170TIP3   OH230704   8.380   0.617  17.187  0.6127 -0.0779 -0.1724
 2170TIP3    H130705   8.299   0.609  17.236  1.3692 -1.0779  0.9630
 2170TIP3    H230706   8.395   0.711  17.181  0.7863  0.0833  2.0485
 2171TIP3   OH230707   2.068   1.395  17.759  0.2288 -0.3068  0.4159
 2171TIP3    H130708   1.997   1.400  17.822 -1.3108 -0.8385 -1.1897
 2171TIP3    H230709   2.073   1.483  17.720 -0.8523 -0.7303 -0.7625
 2172TIP3   OH230710   7.888   8.166  18.708  0.4830  0.4458 -0.0358
 2172TIP3    H130711   7.872   8.252  18.747 -0.9986  0.4571 -0.5712
 2172TIP3    H230712   7.981   8.149  18.723  0.4548  1.4347  1.4517
 2173TIP3   OH230713   6.511   0.680  18.967  0.2420 -0.2663  0.3021
 2173TIP3    H130714   6.497   0.756  18.911 -0.1784 -1.1114 -0.7623
 2173TIP3    H230715   6.425   0.641  18.977  0.6649 -1.4337 -0.3891
 2174TIP3   OH230716   1.468   4.668  17.155  0.1025  0.1843 -0.2902
 2174TIP3    H130717   1.534   4.608  17.189  0.6869 -0.2430 -2.0663
 2174TIP3    H230718   1.466   4.651  17.061 -2.1682  0.5685 -0.3723
 2175TIP3   OH230719   4.153   2.333  16.457  0.6453 -0.3844 -0.5410
 2175TIP3    H130720   4.240   2.299  16.479  1.0615 -0.3950 -2.1294
 2175TIP3    H230721   4.159   2.356  16.365 -0.9046  0.0864 -0.5411
 2176TIP3   OH230722   8.392   5.477  18.296  0.2378 -0.5975 -0.5291
 2176TIP3    H130723   8.464   5.421  18.326  0.2884 -0.5453 -0.5533
 2176TIP3    H230724   8.333   5.482  18.371  1.1637  0.8601  0.1493
 2177TIP3   OH230725   1.017   5.549  17.558  0.0113  0.1686  0.2020
 2177TIP3    H130726   1.034   5.536  17.465 -0.7679  0.3527  0.0225
 2177TIP3    H230727   0.925   5.574  17.562  0.6682  2.9197  0.7482
 2178TIP3   OH230728   6.616   0.509  16.824  0.2738  0.7613  0.2469
 2178TIP3    H130729   6.631   0.601  16.806 -2.3143  1.1104 -0.4988
 2178TIP3    H230730   6.571   0.476  16.746 -0.8548 -0.5538  1.3841
 2179TIP3   OH230731   1.765   1.230  17.848 -0.6788  0.5106  0.0692
 2179TIP3    H130732   1.673   1.227  17.822 -0.6551 -0.3492  0.0452
 2179TIP3    H230733   1.811   1.177  17.782 -0.2167  0.6735  0.2540
 2180TIP3   OH230734   5.455   7.465  17.158  0.2242  0.3054 -0.0887
 2180TIP3    H130735   5.508   7.515  17.219  1.8625 -1.2143 -0.1693
 2180TIP3    H230736   5.506   7.465  17.077 -0.8281  0.3909 -0.7627
 2181TIP3   OH230737   7.598   1.115  17.326  0.4779  0.2007  0.4942
 2181TIP3    H130738   7.628   1.112  17.235 -0.6336 -0.3396  0.1290
 2181TIP3    H230739   7.649   1.047  17.370  1.8889  1.2734  0.5684
 2182TIP3   OH230740   3.147   5.129  18.554 -0.2306  0.1325 -0.1654
 2182TIP3    H130741   3.102   5.160  18.633 -1.2232  0.0339 -0.6718
 2182TIP3    H230742   3.215   5.070  18.587 -0.5956  0.1288  0.6213
 2183TIP3   OH230743   6.894   4.420  17.414 -0.5768 -0.6399  0.0110
 2183TIP3    H130744   6.815   4.367  17.415 -0.7091 -0.4342  0.4208
 2183TIP3    H230745   6.964   4.358  17.392 -0.8697 -0.7886 -0.5282
 2184TIP3   OH230746   4.622   4.806  17.208  0.0755  0.9123 -0.5068
 2184TIP3    H130747   4.595   4.734  17.151 -0.0563  0.2014  0.4391
 2184TIP3    H230748   4.718   4.799  17.212 -0.0484 -0.2697  0.9310
 2185TIP3   OH230749   5.535   2.215  16.483  0.0191  0.0448  0.1314
 2185TIP3    H130750   5.589   2.230  16.561 -0.7712 -1.1024  0.9183
 2185TIP3    H230751   5.554   2.125  16.458  1.3141  0.8142 -1.8669
 2186TIP3   OH230752   6.296   4.240  18.169 -0.0612 -0.0692 -0.0423
 2186TIP3    H130753   6.381   4.206  18.197  1.0638  2.2318 -0.4044
 2186TIP3    H230754   6.294   4.226  18.075  0.6353  1.1945 -0.2758
 2187TIP3   OH230755   3.423   2.785  18.214  0.6594 -0.0692  0.2254
 2187TIP3    H130756   3.430   2.763  18.306  0.0878 -2.6293 -0.2728
 2187TIP3    H230757   3.482   2.724  18.170 -0.1771  0.1066 -1.2283
 2188TIP3   OH230758   2.142   1.011  17.835 -0.2647  0.3355 -0.3184
 2188TIP3    H130759   2.087   1.081  17.800  0.3971  0.4763 -1.0845
 2188TIP3    H230760   2.219   1.057  17.871 -0.7985  0.1761  1.1046
 2189TIP3   OH230761   1.329   4.165  17.323 -0.4994 -0.0613  0.0474
 2189TIP3    H130762   1.239   4.182  17.294 -0.1208  1.7406 -0.2279
 2189TIP3    H230763   1.381   4.229  17.275  0.9780 -1.2146  0.0487
 2190TIP3   OH230764   4.741   4.104  17.540  0.4430 -0.4047  0.0536
 2190TIP3    H130765   4.819   4.061  17.506  0.2060  0.3613 -1.5379
 2190TIP3    H230766   4.745   4.194  17.506 -1.1084 -0.3401 -0.0576
 2191TIP3   OH230767   3.580   4.009  18.340 -1.0017 -0.3989  0.2738
 2191TIP3    H130768   3.605   4.018  18.432 -1.1653  0.5836  0.2373
 2191TIP3    H230769   3.663   4.001  18.293 -0.9609 -2.5609  0.6399
 2192TIP3   OH230770   7.026   1.819  18.622  0.0294 -0.3614 -0.3382
 2192TIP3    H130771   7.068   1.755  18.679 -0.3276 -0.4767 -0.2042
 2192TIP3    H230772   7.067   1.806  18.536 -0.1426 -0.8642 -0.3480
 2193TIP3   OH230773   6.368   4.879  17.167 -0.3313  0.1795  0.1327
 2193TIP3    H130774   6.311   4.820  17.215  0.4791 -0.3046  0.5352
 2193TIP3    H230775   6.393   4.830  17.088  1.6177 -0.7297  1.2251
 2194TIP3   OH230776   5.555   3.472  17.779 -0.3640  0.1217  0.1436
 2194TIP3    H130777   5.638   3.428  17.801 -0.4163  0.5438  1.2709
 2194TIP3    H230778   5.505   3.405  17.733  0.8305  0.0509 -1.1436
 2195TIP3   OH230779   4.343   5.900  18.708  0.1403 -0.3022  0.0093
 2195TIP3    H130780   4.350   5.864  18.620 -2.1588  0.6238 -0.6144
 2195TIP3    H230781   4.251   5.924  18.718  0.7105  1.4194  1.9471
 2196TIP3   OH230782   6.827   7.559  16.462 -0.6817  0.0291 -0.1697
 2196TIP3    H130783   6.887   7.541  16.390 -0.5965 -0.7606  0.0841
 2196TIP3    H230784   6.753   7.502  16.446 -0.4033 -0.5895  0.6742
 2197TIP3   OH230785   7.390   6.717  18.565  0.7700  0.5563 -0.1648
 2197TIP3    H130786   7.312   6.666  18.546  0.2449  1.4965 -0.6131
 2197TIP3    H230787   7.363   6.780  18.632  0.7929  1.6616 -1.1480
 2198TIP3   OH230788   1.920   1.788  17.382 -0.1861  0.4890 -0.7008
 2198TIP3    H130789   1.884   1.705  17.411  1.2078 -0.0947 -0.5852
 2198TIP3    H230790   1.989   1.809  17.445  0.6555  0.8493 -1.7000
 2199TIP3   OH230791   1.501   3.134  18.794  0.4208 -0.0972  0.1538
 2199TIP3    H130792   1.569   3.161  18.731  0.3669  0.2541  0.2407
 2199TIP3    H230793   1.547   3.126  18.877  0.4577 -0.3852  0.1059
 2200TIP3   OH230794   6.749   2.872  18.696 -0.4949  0.1630  0.1236
 2200TIP3    H130795   6.687   2.847  18.627 -1.0772  0.0924  0.6679
 2200TIP3    H230796   6.798   2.945  18.658  1.2419 -1.6813 -1.5123
 2201TIP3   OH230797   4.870   6.289  17.489 -0.7874  0.0040  0.1524
 2201TIP3    H130798   4.781   6.324  17.485 -2.3799 -3.6927 -1.0747
 2201TIP3    H230799   4.858   6.197  17.511  2.7039 -0.8081 -0.8460
 2202TIP3   OH230800   7.835   0.934  17.721 -0.0981  0.2678 -0.3870
 2202TIP3    H130801   7.890   0.862  17.690  0.8673  0.9794 -0.3772
 2202TIP3    H230802   7.746   0.900  17.716  0.4529 -1.8426  1.9696
 2203TIP3   OH230803   4.531   6.554  18.682 -0.1127  0.2351 -0.6473
 2203TIP3    H130804   4.441   6.566  18.714  1.1994  0.2520  3.7538
 2203TIP3    H230805   4.558   6.642  18.654 -0.8043  0.7147  0.1320
 2204TIP3   OH230806   0.431   7.426  18.876 -0.6662 -0.5230 -0.3006
 2204TIP3    H130807   0.449   7.336  18.904 -3.6145 -1.0910  0.0132
 2204TIP3    H230808   0.397   7.417  18.787  2.4069  0.7094 -1.7716
 2205TIP3   OH230809   2.046   1.424  17.301 -0.1721  0.1995 -0.4670
 2205TIP3    H130810   2.095   1.466  17.371 -0.6534  2.5837 -1.4378
 2205TIP3    H230811   2.084   1.459  17.221 -0.0952 -1.9222 -1.4267
 2206TIP3   OH230812   7.819   7.863  17.757 -0.4607  0.1576 -0.1917
 2206TIP3    H130813   7.901   7.815  17.745 -0.0937 -0.2145  3.0371
 2206TIP3    H230814   7.750   7.798  17.745 -0.1095 -0.4008  0.7500
 2207TIP3   OH230815   4.977   7.907  17.672  0.3776 -0.1638 -0.1141
 2207TIP3    H130816   4.928   7.861  17.604 -0.2159 -0.2797  0.3832
 2207TIP3    H230817   5.047   7.846  17.697 -0.7029 -1.0445  0.9008
 2208TIP3   OH230818   6.000   6.910  16.422  0.3484  0.1245 -0.6055
 2208TIP3    H130819   5.913   6.918  16.459 -0.0545 -0.4415 -1.4115
 2208TIP3    H230820   6.033   7.000  16.417  0.0555  0.2849  0.2605
 2209TIP3   OH230821   1.434   6.686  18.588 -0.2160 -0.4577 -0.2867
 2209TIP3    H130822   1.353   6.670  18.636  0.3851  0.2986  1.0265
 2209TIP3    H230823   1.410   6.751  18.522 -1.4351 -2.7026 -2.1969
 2210TIP3   OH230824   6.418   0.384  16.974  0.2052 -0.1714 -0.2211
 2210TIP3    H130825   6.474   0.451  16.935  0.4608  0.0479  0.5054
 2210TIP3    H230826   6.329   0.412  16.954  0.3003  0.5381  0.3018
 2211TIP3   OH230827   2.701   1.974  18.185 -0.7029 -0.2731 -0.2169
 2211TIP3    H130828   2.634   2.041  18.196 -0.0150  0.3038  0.5583
 2211TIP3    H230829   2.690   1.943  18.095 -0.4462  1.5158 -0.8860
 2212TIP3   OH230830   3.534   0.448  18.192 -0.0645  0.4231 -0.5063
 2212TIP3    H130831   3.499   0.510  18.128 -0.0173  1.0652  0.0781
 2212TIP3    H230832   3.575   0.503  18.258 -1.1181 -0.1739  0.6831
 2213TIP3   OH230833   4.668   3.723  17.218  0.3102  0.1840 -0.1782
 2213TIP3    H130834   4.616   3.737  17.139  0.0963 -1.0437 -0.2820
 2213TIP3    H230835   4.751   3.687  17.186 -0.0814 -1.1027  0.1704
 2214TIP3   OH230836   6.823   7.848  16.474 -0.5115 -0.7709  0.2390
 2214TIP3    H130837   6.743   7.886  16.439 -0.0086  0.2031  0.1107
 2214TIP3    H230838   6.818   7.755  16.452 -1.2930 -0.5935 -0.3463
 2215TIP3   OH230839   3.101   2.633  18.651  0.0680  0.1453  0.1008
 2215TIP3    H130840   3.071   2.562  18.594 -3.1110 -0.3131  2.0895
 2215TIP3    H230841   3.162   2.590  18.712  1.3656  0.0820 -1.1810
 2216TIP3   OH230842   6.710   7.631  17.352 -0.3327  0.1656 -0.2272
 2216TIP3    H130843   6.622   7.663  17.369  0.3370  1.7446  0.4825
 2216TIP3    H230844   6.727   7.569  17.423 -0.6010  0.4390  0.0806
 2217TIP3   OH230845   6.782   0.426  18.269  0.2848  0.2437  0.0054
 2217TIP3    H130846   6.822   0.405  18.353  0.1255  0.5045  0.1489
 2217TIP3    H230847   6.785   0.522  18.264 -0.2449  0.2625 -0.0155
 2218TIP3   OH230848   1.713   3.493  18.275  0.5200 -0.4870 -0.1893
 2218TIP3    H130849   1.635   3.481  18.329 -0.3063  2.5370 -0.5123
 2218TIP3    H230850   1.708   3.584  18.246  3.7903 -0.3971 -0.8555
 2219TIP3   OH230851   4.316   5.265  17.557  0.1617 -0.5098 -0.1600
 2219TIP3    H130852   4.303   5.171  17.571 -0.6876 -0.4986 -0.7816
 2219TIP3    H230853   4.264   5.285  17.480  1.1231  0.2920 -0.6207
 2220TIP3   OH230854   4.364   4.217  18.415  0.1174  0.0816  0.2647
 2220TIP3    H130855   4.380   4.224  18.321 -1.9177 -0.8863 -0.2136
 2220TIP3    H230856   4.339   4.125  18.428 -0.7326  0.4684  1.5622
 2221TIP3   OH230857   0.900   4.528  17.386 -0.2601  0.0566  0.4515
 2221TIP3    H130858   0.942   4.448  17.417  1.3298  1.6023  2.5906
 2221TIP3    H230859   0.820   4.535  17.437 -0.0821  0.1318  0.7223
 2222TIP3   OH230860   5.331   4.693  19.194  0.4801 -0.3442  0.1779
 2222TIP3    H130861   5.296   4.717  19.109  1.7315  1.4607  0.1080
 2222TIP3    H230862   5.265   4.725  19.257 -1.2212 -3.0734 -0.0540
 2223TIP3   OH230863   4.347   2.468  18.090 -0.1898  0.8263  0.0800
 2223TIP3    H130864   4.336   2.554  18.051 -0.8106  0.1345 -1.3394
 2223TIP3    H230865   4.397   2.484  18.170  1.2748  2.2861 -1.0656
 2224TIP3   OH230866   2.520   2.970  17.893 -0.3923 -0.2696  0.0660
 2224TIP3    H130867   2.535   2.978  17.799 -0.8675 -4.2834 -0.5179
 2224TIP3    H230868   2.426   2.978  17.904 -0.7631 -3.1452 -0.3934
 2225TIP3   OH230869   6.909   3.544  18.346  0.1084  0.1828  0.3981
 2225TIP3    H130870   6.926   3.504  18.260 -0.8219 -0.7589  0.6358
 2225TIP3    H230871   6.856   3.621  18.326  0.3111  0.2489  0.0915
 2226TIP3   OH230872   1.720   7.060  18.662 -0.2507  0.0673  0.1286
 2226TIP3    H130873   1.643   7.077  18.607  0.0643 -0.1741 -0.3915
 2226TIP3    H230874   1.710   6.969  18.688  0.6066 -0.4028 -1.1386
 2227TIP3   OH230875   1.045   6.748  16.616  0.6438 -0.0628 -0.7636
 2227TIP3    H130876   1.020   6.840  16.612  0.6617 -0.0802 -1.4335
 2227TIP3    H230877   1.140   6.749  16.605  0.5175 -0.2279 -2.0167
 2228TIP3   OH230878   0.366   6.083  18.762 -0.3110 -0.4655 -0.0962
 2228TIP3    H130879   0.315   6.082  18.682 -1.9412  0.8030  0.8511
 2228TIP3    H230880   0.435   6.148  18.746 -0.4953 -0.3804 -0.5524
 2229TIP3   OH230881   0.810   0.304  18.857 -0.4694  0.0084 -0.6625
 2229TIP3    H130882   0.751   0.330  18.927 -1.8936  2.3168 -2.5792
 2229TIP3    H230883   0.893   0.349  18.877 -0.2328 -0.9203  0.5136
 2230TIP3   OH230884   0.559   5.741  17.763  0.6336 -0.0946 -0.5390
 2230TIP3    H130885   0.485   5.785  17.807  2.1029  0.4488  1.5784
 2230TIP3    H230886   0.522   5.659  17.730 -0.9302  0.1370  0.5039
 2231TIP3   OH230887   8.427   7.810  18.543 -0.0975 -0.1739 -0.5023
 2231TIP3    H130888   8.391   7.875  18.482 -1.5258 -0.4179  0.0450
 2231TIP3    H230889   8.496   7.857  18.590 -2.7279  1.8350  1.6880
 2232TIP3   OH230890   1.308   3.036  18.392  0.4768  0.2730  0.1884
 2232TIP3    H130891   1.233   2.978  18.382 -0.9650  2.0065  0.3737
 2232TIP3    H230892   1.370   2.987  18.446 -1.2897 -0.5480  1.5591
 2233TIP3   OH230893   7.089   5.126  16.961  0.2836  0.3052 -0.3858
 2233TIP3    H130894   7.043   5.077  17.028  0.7792 -0.0782 -0.3166
 2233TIP3    H230895   7.179   5.133  16.993  0.5272  0.1247 -0.9951
 2234TIP3   OH230896   1.391   5.176  16.799  0.1296  0.0409 -0.4416
 2234TIP3    H130897   1.378   5.081  16.808  0.4173 -0.0576 -1.0587
 2234TIP3    H230898   1.364   5.211  16.884 -1.7275 -0.4112 -0.8058
 2235TIP3   OH230899   7.601   7.458  18.831  0.0837  0.2137 -0.3837
 2235TIP3    H130900   7.569   7.408  18.755 -0.2078 -1.2520  0.6584
 2235TIP3    H230901   7.595   7.549  18.803 -1.6667 -0.1878 -1.5154
 2236TIP3   OH230902   4.927   2.470  18.713  0.0601 -0.0121 -0.0599
 2236TIP3    H130903   5.015   2.507  18.718  0.3634 -0.7740  0.3599
 2236TIP3    H230904   4.884   2.520  18.643 -0.0052  2.0416  1.3861
 2237TIP3   OH230905   6.033   4.978  17.408  0.2671  0.1018  0.2943
 2237TIP3    H130906   5.946   5.003  17.440  0.0938  1.3406 -1.0348
 2237TIP3    H230907   6.017   4.923  17.332  0.6712 -0.8000  0.8395
 2238TIP3   OH230908   1.384   7.727  17.101  0.0492  0.3547  0.1485
 2238TIP3    H130909   1.449   7.710  17.034 -0.8987 -0.2496 -0.6416
 2238TIP3    H230910   1.383   7.823  17.110  0.2104  0.4387 -0.6823
 2239TIP3   OH230911   6.488   7.814  17.097  0.2586  0.2974 -0.4460
 2239TIP3    H130912   6.421   7.879  17.077  0.6965  0.9622  0.2234
 2239TIP3    H230913   6.519   7.837  17.185 -0.0987 -1.2518  0.1183
 2240TIP3   OH230914   7.738   6.482  16.368  0.1978  0.1977  0.2569
 2240TIP3    H130915   7.778   6.395  16.369  0.7151  0.4284 -0.3182
 2240TIP3    H230916   7.803   6.539  16.407 -0.2239  0.3063  0.8240
 2241TIP3   OH230917   7.695   3.085  19.046  0.8277 -0.5842  0.1200
 2241TIP3    H130918   7.747   3.072  19.126  0.8980 -3.0680 -0.2483
 2241TIP3    H230919   7.758   3.114  18.981  1.1253 -0.3583  0.5047
 2242TIP3   OH230920   5.274   5.705  18.739  0.3024  0.3370  0.1613
 2242TIP3    H130921   5.225   5.717  18.820 -1.0140  0.6342 -0.6519
 2242TIP3    H230922   5.235   5.767  18.678  1.0160 -0.1470 -0.8151
 2243TIP3   OH230923   5.108   6.630  18.146  0.0339  0.1145 -0.1974
 2243TIP3    H130924   5.030   6.611  18.198 -0.4499 -0.7926 -1.1815
 2243TIP3    H230925   5.112   6.725  18.141  0.1924  0.2287  1.5929
 2244TIP3   OH230926   0.249   6.977  18.600  0.2037  0.5407 -0.1413
 2244TIP3    H130927   0.192   6.900  18.603  0.5169  0.2570 -1.0394
 2244TIP3    H230928   0.198   7.047  18.640  0.2360 -0.3225  1.4913
 2245TIP3   OH230929   0.014   0.384  16.695  0.1269 -0.2847  0.2457
 2245TIP3    H130930  -0.028   0.300  16.714  0.0598  0.0246  1.5631
 2245TIP3    H230931  -0.051   0.450  16.720 -0.8193  0.2168 -3.0701
 2246TIP3   OH230932   2.616   0.738  18.532  0.0634  0.5157  0.0618
 2246TIP3    H130933   2.650   0.681  18.600 -0.5707 -0.9519 -0.7987
 2246TIP3    H230934   2.693   0.767  18.483  0.5368  1.7109  1.4508
 2247TIP3   OH230935   6.500   4.894  16.467  0.5091 -0.2684  0.1443
 2247TIP3    H130936   6.491   4.875  16.560  0.3348  1.7302  0.5656
 2247TIP3    H230937   6.571   4.958  16.462  1.4982 -1.3969 -1.2670
 2248TIP3   OH230938   1.473   3.319  17.433  0.7676 -0.0337  0.0901
 2248TIP3    H130939   1.445   3.288  17.347  1.6777  1.4977 -0.8001
 2248TIP3    H230940   1.547   3.377  17.415  1.1533  0.1168  1.9369
 2249TIP3   OH230941   3.269   7.354  16.926  0.0157  0.3306  0.0182
 2249TIP3    H130942   3.337   7.410  16.888  0.8247 -0.3875  0.3719
 2249TIP3    H230943   3.228   7.312  16.851  1.0486 -0.4455 -0.1450
 2250TIP3   OH230944   3.400   6.167  18.232  0.3054  0.0542 -0.1948
 2250TIP3    H130945   3.431   6.190  18.320  0.8902  0.5507 -0.5172
 2250TIP3    H230946   3.404   6.250  18.184 -1.5039  0.1294 -0.2753
 2251TIP3   OH230947   3.419   3.286  16.870  0.0697 -0.3417 -0.1679
 2251TIP3    H130948   3.466   3.362  16.834 -1.8230  0.4540 -1.0782
 2251TIP3    H230949   3.403   3.230  16.794 -0.3589 -0.6570  0.1557
 2252TIP3   OH230950   4.987   2.374  17.644  0.0139  0.1428 -0.0822
 2252TIP3    H130951   5.006   2.364  17.738 -0.8166  0.3057  0.1109
 2252TIP3    H230952   5.074   2.379  17.603  0.3927 -0.3826  0.6232
 2253TIP3   OH230953   3.817   2.412  18.046  0.1323  0.1009 -0.0828
 2253TIP3    H130954   3.820   2.395  17.952  0.3371 -0.0404 -0.0495
 2253TIP3    H230955   3.850   2.332  18.087 -1.1893 -0.3340  0.1637
 2254TIP3   OH230956   6.669   7.841  17.572  0.4425 -0.5258 -0.1242
 2254TIP3    H130957   6.598   7.785  17.603 -0.0120  0.3168  0.3820
 2254TIP3    H230958   6.749   7.793  17.596  0.0780 -0.5714  1.0957
 2255TIP3   OH230959   1.893   1.215  17.174 -0.1594  0.0248 -0.4640
 2255TIP3    H130960   1.941   1.284  17.220 -0.8899 -0.3162  0.8705
 2255TIP3    H230961   1.950   1.189  17.102  0.5440  1.3554 -0.4143
 2256TIP3   OH230962   5.446   4.231  18.490  0.2406 -0.0763  0.1032
 2256TIP3    H130963   5.443   4.265  18.579 -1.0644  1.0713 -0.3465
 2256TIP3    H230964   5.519   4.169  18.490  1.9182  1.7943  1.3007
 2257TIP3   OH230965   4.145   7.126  16.356 -0.2402  0.2548 -0.1580
 2257TIP3    H130966   4.172   7.042  16.392  0.2682 -0.1904 -1.5209
 2257TIP3    H230967   4.070   7.106  16.300  0.2059  0.6203 -0.8985
 2258TIP3   OH230968   6.567   8.019  18.055  0.4664  0.0140  0.6730
 2258TIP3    H130969   6.500   8.079  18.088  0.8553  0.2587  1.0351
 2258TIP3    H230970   6.650   8.059  18.082  0.7154 -1.1172  1.6710
 2259TIP3   OH230971   1.885   3.019  17.884 -0.2887 -0.0916  0.4869
 2259TIP3    H130972   1.952   2.987  17.944  1.9469  0.3714 -1.6006
 2259TIP3    H230973   1.933   3.042  17.805 -3.0128 -0.2162 -1.3323
 2260TIP3   OH230974   1.548   3.709  16.922  0.4656 -0.2934 -0.6322
 2260TIP3    H130975   1.470   3.683  16.874 -0.4006  0.8814  0.0762
 2260TIP3    H230976   1.562   3.639  16.986 -1.2830  0.4701  0.6481
 2261TIP3   OH230977   0.688   3.627  18.518 -0.0881 -0.5824  0.0075
 2261TIP3    H130978   0.755   3.675  18.566 -0.2034 -0.2304 -0.1794
 2261TIP3    H230979   0.734   3.588  18.444 -0.2184  0.3047 -0.5652
 2262TIP3   OH230980   0.775   2.903  18.529 -0.4743 -0.0819  0.0302
 2262TIP3    H130981   0.752   2.855  18.608  0.2833  1.1780  1.0442
 2262TIP3    H230982   0.728   2.986  18.537 -0.3943  0.0565 -0.8521
 2263TIP3   OH230983   7.719   4.883  16.843  0.5226  0.1910 -0.3114
 2263TIP3    H130984   7.645   4.886  16.782  0.7386  1.1472 -0.5344
 2263TIP3    H230985   7.733   4.789  16.859  0.1619 -0.0537 -1.3650
 2264TIP3   OH230986   2.629   4.567  18.248 -0.0032 -0.6503 -0.4566
 2264TIP3    H130987   2.601   4.483  18.211  1.1021 -1.3348  0.2098
 2264TIP3    H230988   2.694   4.600  18.186  0.3796 -0.8279 -0.1515
 2265TIP3   OH230989   3.052   0.103  17.522 -0.2437 -0.6720 -0.3634
 2265TIP3    H130990   3.122   0.039  17.515 -1.3038 -1.7954 -1.1688
 2265TIP3    H230991   3.093   0.180  17.562  0.6074 -2.5977  2.9097
 2266TIP3   OH230992   2.672   5.088  17.934 -0.1162 -0.5443  0.5215
 2266TIP3    H130993   2.663   4.998  17.902 -0.9888 -1.0011  1.9757
 2266TIP3    H230994   2.594   5.102  17.987 -0.9498  1.7322 -1.1437
 2267TIP3   OH230995   0.506   2.141  17.657 -0.3080 -0.3569  0.1091
 2267TIP3    H130996   0.443   2.176  17.720 -0.1986  0.2514 -0.1114
 2267TIP3    H230997   0.532   2.216  17.604 -0.8647 -0.9783 -1.0870
 2268TIP3   OH230998   6.534   2.502  17.225  0.5445  0.0828  0.0599
 2268TIP3    H130999   6.593   2.456  17.166  1.2515 -0.9626  1.5045
 2268TIP3    H231000   6.592   2.549  17.286 -0.1596  1.5887 -0.3818
 2269TIP3   OH231001   6.504   2.680  17.938 -0.0583  0.1791 -0.3096
 2269TIP3    H131002   6.540   2.591  17.946 -0.8879  0.0039  2.1740
 2269TIP3    H231003   6.580   2.737  17.950  0.1372 -0.1971  0.2963
 2270TIP3   OH231004   7.655   7.428  16.594  0.0047 -0.0863  0.0390
 2270TIP3    H131005   7.703   7.345  16.601 -0.2691 -0.1455  1.4637
 2270TIP3    H231006   7.693   7.484  16.662 -0.4413  0.6364 -0.2989
 2271TIP3   OH231007   2.265   7.862  16.956  0.0489  0.2832 -0.5315
 2271TIP3    H131008   2.212   7.892  16.882 -1.1830 -0.4660  0.0055
 2271TIP3    H231009   2.355   7.877  16.928 -0.1856 -2.4564 -3.3817
 2272TIP3   OH231010   3.181   4.188  18.578 -0.1257 -0.0090 -0.2047
 2272TIP3    H131011   3.187   4.186  18.482 -0.9027 -0.3907 -0.2539
 2272TIP3    H231012   3.087   4.198  18.595  0.1942  2.4727  0.4899
 2273TIP3   OH231013   5.849   1.376  17.305  0.8954 -0.3678  0.0553
 2273TIP3    H131014   5.811   1.288  17.304  0.7751 -0.3305  0.7130
 2273TIP3    H231015   5.944   1.361  17.301  0.8486 -0.4824 -0.9066
 2274TIP3   OH231016   3.928   8.091  17.773  0.2853 -0.1969  0.0789
 2274TIP3    H131017   3.850   8.131  17.810  0.9330  1.4041 -0.1988
 2274TIP3    H231018   3.897   8.043  17.696 -0.4348  0.3640  0.0169
 2275TIP3   OH231019   4.949   5.574  17.870  0.1828  0.0138  0.2719
 2275TIP3    H131020   4.962   5.618  17.954  0.4805  1.1789 -0.3546
 2275TIP3    H231021   4.928   5.484  17.893 -0.0512  0.3824  1.6003
 2276TIP3   OH231022   5.062   7.854  17.308  0.1539 -0.0201  0.3319
 2276TIP3    H131023   5.154   7.879  17.309  0.1650 -0.0846  1.0120
 2276TIP3    H231024   5.035   7.867  17.217  0.7281  0.3693  0.2127
 2277TIP3   OH231025   7.109   2.843  18.106  0.0934 -0.2928  0.2171
 2277TIP3    H131026   7.063   2.924  18.085  0.7137  0.3815  1.3559
 2277TIP3    H231027   7.062   2.808  18.181 -0.6546 -1.4288 -0.7488
 2278TIP3   OH231028   6.453   8.059  17.804 -0.4636  0.4547  0.2685
 2278TIP3    H131029   6.522   8.087  17.745  0.0792  1.2583  1.2512
 2278TIP3    H231030   6.499   8.028  17.882 -0.9675 -3.6632 -0.8444
 2279TIP3   OH231031   7.029   4.442  18.462 -0.5890  0.6521 -0.0681
 2279TIP3    H131032   6.955   4.390  18.432 -0.1341  0.5376 -1.0495
 2279TIP3    H231033   7.103   4.409  18.410  0.6936 -0.9541  2.5713
 2280TIP3   OH231034   5.388   1.527  17.931  0.1445  0.0929  0.4175
 2280TIP3    H131035   5.367   1.477  18.010  1.3406 -1.6006 -0.2763
 2280TIP3    H231036   5.454   1.591  17.959  0.2619 -0.2278  0.8757
 2281TIP3   OH231037   1.434   7.493  18.291 -0.0806 -0.3907  0.0225
 2281TIP3    H131038   1.485   7.519  18.215  1.3639 -0.7397  0.8277
 2281TIP3    H231039   1.359   7.446  18.255  0.9859 -1.2467 -1.1498
 2282TIP3   OH231040   0.561   6.368  18.137 -0.4001 -0.0093 -0.4845
 2282TIP3    H131041   0.506   6.305  18.184  0.8918 -0.9043 -0.1034
 2282TIP3    H231042   0.587   6.323  18.057 -0.0945  0.3361 -0.5830
 2283TIP3   OH231043   2.812   3.100  18.904  0.1016  0.1940 -0.4657
 2283TIP3    H131044   2.841   3.009  18.894  0.9287  0.2804  0.9626
 2283TIP3    H231045   2.757   3.116  18.827 -1.6086 -2.1149  0.1826
 2284TIP3   OH231046   5.233   0.818  17.686  0.3246  0.1021 -0.4544
 2284TIP3    H131047   5.154   0.773  17.717  0.4506  0.5434  0.5424
 2284TIP3    H231048   5.302   0.751  17.692  0.2155 -0.0073 -0.4141
 2285TIP3   OH231049   1.040   6.085  18.373  0.1350  0.4748  0.3744
 2285TIP3    H131050   0.993   6.010  18.337  0.9103 -0.4504  1.2334
 2285TIP3    H231051   1.113   6.100  18.312  0.3892  0.0745  0.5783
 2286TIP3   OH231052   4.257   6.059  17.945 -0.1631 -0.3388  0.3491
 2286TIP3    H131053   4.337   6.030  17.990 -0.2269 -1.7722 -0.4036
 2286TIP3    H231054   4.260   6.015  17.860 -0.6966  1.2973 -0.5495
 2287TIP3   OH231055   0.851   4.782  17.263  0.2006 -0.3194 -0.2283
 2287TIP3    H131056   0.787   4.809  17.329  3.7324 -0.4036  3.6449
 2287TIP3    H231057   0.864   4.689  17.278 -0.8245 -1.0124 -3.0578
 2288TIP3   OH231058   0.902   0.874  18.231  0.0600  0.1124  0.5047
 2288TIP3    H131059   0.862   0.790  18.210  0.4220  0.0319  0.1155
 2288TIP3    H231060   0.832   0.938  18.220  0.2747  0.1106 -1.2537
 2289TIP3   OH231061   0.348   6.210  18.264  0.2279 -0.1595 -0.1251
 2289TIP3    H131062   0.277   6.167  18.217 -0.3270 -1.7704  2.0318
 2289TIP3    H231063   0.405   6.138  18.293  2.1058  1.0057 -0.7636
 2290TIP3   OH231064   1.276   3.398  18.040  0.4147  0.4296 -0.1376
 2290TIP3    H131065   1.284   3.322  17.982  1.2321 -0.1080  0.6401
 2290TIP3    H231066   1.332   3.376  18.114 -0.2576  1.2945  0.6431
 2291TIP3   OH231067   8.336   7.061  18.002 -0.3143 -0.4457  0.3100
 2291TIP3    H131068   8.257   7.090  18.048 -0.3001  0.1708 -0.0379
 2291TIP3    H231069   8.384   7.142  17.985 -0.5266 -0.5986 -1.1672
 2292TIP3   OH231070   1.512   1.110  17.550 -0.1911  0.2138  0.6980
 2292TIP3    H131071   1.533   1.035  17.495  0.1272  0.2735  0.7360
 2292TIP3    H231072   1.557   1.184  17.509  0.3444  0.1944  1.2286
 2293TIP3   OH231073   1.753   8.289  17.965 -0.0183  0.3189  0.4033
 2293TIP3    H131074   1.691   8.237  17.914  0.0046  2.1677 -1.6684
 2293TIP3    H231075   1.839   8.261  17.935 -0.0019  1.2417 -0.4983
 2294TIP3   OH231076   4.978   3.345  17.316 -0.0892 -0.5802  0.8978
 2294TIP3    H131077   4.950   3.366  17.227  1.8320  1.1689  0.6437
 2294TIP3    H231078   4.916   3.278  17.345 -1.9422  0.1730 -1.0479
 2295TIP3   OH231079   4.712   3.752  18.880 -0.2199  0.3626 -0.0589
 2295TIP3    H131080   4.759   3.836  18.880 -1.4837  1.1293  1.4816
 2295TIP3    H231081   4.620   3.776  18.886 -0.6786 -1.1363 -0.6367
 2296TIP3   OH231082   6.654   1.853  18.051 -0.3721  0.0510 -0.3596
 2296TIP3    H131083   6.599   1.830  18.126 -0.1878 -0.4769 -0.3892
 2296TIP3    H231084   6.723   1.787  18.050 -0.9834 -0.5850 -1.6441
 2297TIP3   OH231085   5.350   5.897  18.209  0.1870 -0.1064  0.1190
 2297TIP3    H131086   5.320   5.859  18.127  1.6884 -1.2233  0.0533
 2297TIP3    H231087   5.422   5.955  18.184  0.4083 -0.1677  0.6046
 2298TIP3   OH231088   4.318   3.210  18.399  0.0620 -0.1908  0.4000
 2298TIP3    H131089   4.262   3.286  18.411  0.2989  0.0495  0.0020
 2298TIP3    H231090   4.357   3.222  18.313  3.1912  1.2690  1.8433
 2299TIP3   OH231091   2.872   0.463  17.025 -0.4726 -0.2382  0.5053
 2299TIP3    H131092   2.942   0.509  17.071  1.2942 -0.1939 -1.9880
 2299TIP3    H231093   2.845   0.524  16.956 -0.3467 -1.6505 -0.8508
 2300TIP3   OH231094   7.901   3.367  17.097  0.6916  0.0682  0.0113
 2300TIP3    H131095   7.956   3.439  17.067  1.1237 -0.1675  0.2292
 2300TIP3    H231096   7.813   3.405  17.101  1.2889  1.4234  2.7518
 2301TIP3   OH231097   6.118   2.731  16.893  0.4109 -0.0038 -0.2458
 2301TIP3    H131098   6.195   2.679  16.869  0.3154  0.0534 -0.6970
 2301TIP3    H231099   6.047   2.692  16.841 -0.2038 -1.0703  1.3277
 2302TIP3   OH231100   8.007   1.695  18.984 -0.7678 -0.4061  0.4271
 2302TIP3    H131101   8.103   1.689  18.990 -0.8759 -3.0191  0.6761
 2302TIP3    H231102   7.991   1.762  18.917  1.2005  0.2862  0.5804
 2303TIP3   OH231103   3.526   5.211  19.317 -0.6173  0.1825 -0.0427
 2303TIP3    H131104   3.577   5.134  19.343  0.9038  0.5803 -1.6315
 2303TIP3    H231105   3.542   5.275  19.387  0.4283 -0.0034 -0.0853
 2304TIP3   OH231106   5.644   6.285  17.584 -0.1141 -0.1115 -0.0715
 2304TIP3    H131107   5.700   6.344  17.633  0.3205 -0.1337 -0.5261
 2304TIP3    H231108   5.560   6.288  17.628  0.0430  0.4819  0.1896
 2305TIP3   OH231109   4.513   4.888  17.981  0.3334 -0.0263  0.4468
 2305TIP3    H131110   4.440   4.835  18.014  1.7221 -1.7534  0.8463
 2305TIP3    H231111   4.581   4.825  17.959  2.7144  1.6343  2.5265
 2306TIP3   OH231112   5.654   4.194  17.593  0.2057  0.5918 -0.1398
 2306TIP3    H131113   5.627   4.103  17.583 -0.8344  0.6019  1.9982
 2306TIP3    H231114   5.572   4.243  17.596  0.7416  1.5640 -0.8723
 2307TIP3   OH231115   4.517   5.491  17.995 -0.1936  0.2969  0.2191
 2307TIP3    H131116   4.525   5.475  17.901  1.0157 -0.1924  0.3762
 2307TIP3    H231117   4.548   5.409  18.035 -0.3890  0.6190  1.0405
 2308TIP3   OH231118   5.623   5.578  17.177 -0.1512  0.7678 -0.3069
 2308TIP3    H131119   5.568   5.629  17.236 -1.1856  1.7278 -2.0133
 2308TIP3    H231120   5.638   5.495  17.223 -0.9407  1.4434  1.2489
 2309TIP3   OH231121   4.178   8.387  17.310  0.9250 -0.2745 -0.2791
 2309TIP3    H131122   4.094   8.341  17.312  0.6649  0.2127  0.2066
 2309TIP3    H231123   4.183   8.422  17.221 -0.1129  0.9938  0.1315
 2310TIP3   OH231124   6.815   0.998  17.162  0.3442 -0.6213 -0.4067
 2310TIP3    H131125   6.780   1.001  17.252 -0.2362 -1.6871 -0.5804
 2310TIP3    H231126   6.798   0.908  17.133 -1.3827  0.2422 -2.3260
 2311TIP3   OH231127   1.877   5.129  17.728  0.0430 -0.3560 -0.8016
 2311TIP3    H131128   1.801   5.080  17.758  1.2702 -1.1153  1.3308
 2311TIP3    H231129   1.841   5.213  17.698 -1.6021 -0.4488  0.7307
 2312TIP3   OH231130   6.032   0.308  18.765 -0.1202  0.0667 -0.1397
 2312TIP3    H131131   6.027   0.341  18.675 -0.3287 -0.0004 -0.1528
 2312TIP3    H231132   6.094   0.235  18.760 -0.2369 -0.0248 -0.2550
 2313TIP3   OH231133   0.575   0.536  18.519  0.4957 -0.7061  0.4368
 2313TIP3    H131134   0.600   0.607  18.460  0.2134 -0.6758  0.3504
 2313TIP3    H231135   0.503   0.573  18.571 -1.3660 -1.6996 -1.2929
 2314TIP3   OH231136   0.594   3.594  19.073  0.1286 -0.1335 -0.4770
 2314TIP3    H131137   0.558   3.569  19.158  1.9548 -1.4475 -0.0294
 2314TIP3    H231138   0.601   3.511  19.025  1.7836  0.1670 -0.8095
 2315TIP3   OH231139   2.810   4.465  18.454 -0.0204 -0.3585  0.0405
 2315TIP3    H131140   2.749   4.516  18.402  1.7608  1.4884 -0.3512
 2315TIP3    H231141   2.771   4.462  18.542 -0.9552  0.2378 -0.3464
 2316TIP3   OH231142   3.811   6.672  17.048  0.4424 -0.0564  0.4068
 2316TIP3    H131143   3.873   6.624  16.993  2.1244  0.0989  2.0814
 2316TIP3    H231144   3.858   6.750  17.074 -0.6802  0.3523  1.2735
 2317TIP3   OH231145   4.629   5.743  18.542  0.6241  0.0571 -0.0378
 2317TIP3    H131146   4.546   5.748  18.495  1.8736 -0.2309 -2.4143
 2317TIP3    H231147   4.636   5.827  18.587 -0.9444  0.0619  0.2441
 2318TIP3   OH231148   4.663   8.392  16.990  0.2806 -0.1428 -0.4492
 2318TIP3    H131149   4.726   8.387  17.062  0.7043  0.2302 -0.7858
 2318TIP3    H231150   4.639   8.300  16.974  0.0001 -0.2090  0.3150
 2319TIP3   OH231151   4.717   1.530  17.945 -0.1358 -0.1021 -0.5877
 2319TIP3    H131152   4.737   1.504  17.855 -0.8749  1.1091 -1.1333
 2319TIP3    H231153   4.676   1.616  17.936  0.2526  0.2730  0.9595
 2320TIP3   OH231154   6.956   2.530  18.671  0.1311 -0.0328  0.0587
 2320TIP3    H131155   7.038   2.572  18.696  0.5092  0.5695 -2.0571
 2320TIP3    H231156   6.895   2.554  18.742  1.2994  0.9770  0.7608
 2321TIP3   OH231157   8.084   3.186  17.776 -0.2843  1.0223  0.5465
 2321TIP3    H131158   8.167   3.226  17.797  0.2227 -0.3573  1.3088
 2321TIP3    H231159   8.105   3.122  17.708 -0.6292  0.3679  1.0420
 2322TIP3   OH231160   7.143   6.605  18.497  0.3924  0.0873  0.2187
 2322TIP3    H131161   7.067   6.640  18.452 -1.3360 -2.5405  0.8309
 2322TIP3    H231162   7.191   6.557  18.430  0.9124  0.8245  0.0590
 2323TIP3   OH231163   1.806   7.187  17.147  0.2591  0.6130 -0.0468
 2323TIP3    H131164   1.732   7.139  17.110  0.0241  0.1542  0.9937
 2323TIP3    H231165   1.841   7.236  17.073 -1.2010  0.9928 -0.5335
 2324TIP3   OH231166   6.934   5.562  18.349  0.6144 -0.4433 -0.3733
 2324TIP3    H131167   6.868   5.630  18.356  0.2469 -0.4917 -2.6647
 2324TIP3    H231168   7.007   5.594  18.402  0.2786  1.5165 -1.0097
 2325TIP3   OH231169   0.709   4.830  18.888  0.4422 -0.2800  0.2628
 2325TIP3    H131170   0.739   4.777  18.814 -1.7564  1.9867 -2.4802
 2325TIP3    H231171   0.732   4.920  18.864 -1.1199  0.6388  1.9349
 2326TIP3   OH231172   4.313   8.426  17.736  0.1308 -0.1601  0.0321
 2326TIP3    H131173   4.229   8.383  17.749 -0.0179 -0.0096 -0.4115
 2326TIP3    H231174   4.299   8.517  17.763 -0.5926  0.5345 -2.4354
 2327TIP3   OH231175   7.012   5.833  18.048 -0.1146 -0.4927  0.4161
 2327TIP3    H131176   7.020   5.867  18.137 -0.3867 -0.0572  0.2771
 2327TIP3    H231177   6.980   5.907  17.997  0.0990 -0.7212 -0.0587
 2328TIP3   OH231178   1.121   1.039  18.318 -0.0387 -0.2577 -0.1700
 2328TIP3    H131179   1.033   1.010  18.342  0.6938 -2.6345 -0.0555
 2328TIP3    H231180   1.117   1.052  18.223 -0.2203 -1.6685 -0.3779
 2329TIP3   OH231181   4.632   4.007  13.325  0.0380 -0.2922 -0.1490
 2329TIP3    H131182   4.665   4.058  13.399  0.9682 -1.0919  0.0246
 2329TIP3    H231183   4.685   4.035  13.251  0.8209 -1.2304  0.0256
 2330TIP3   OH231184   2.623   2.444  18.078  0.4668 -0.1713 -0.2051
 2330TIP3    H131185   2.600   2.358  18.115 -2.0814 -0.0168 -1.2248
 2330TIP3    H231186   2.547   2.499  18.096  1.5266  1.5382 -0.7045
 2331TIP3   OH231187   1.254   2.955  17.808 -0.2616  0.2994  0.0152
 2331TIP3    H131188   1.307   3.029  17.781  0.2977 -0.3974 -0.8687
 2331TIP3    H231189   1.236   2.970  17.901 -1.5372  2.3560 -0.5032
 2332TIP3   OH231190   3.612   7.838  17.252 -0.2093  0.1059 -0.0383
 2332TIP3    H131191   3.537   7.779  17.247  0.7698 -1.1420 -0.5257
 2332TIP3    H231192   3.623   7.870  17.162 -0.3222  0.5066  0.0883
 2333TIP3   OH231193   0.321   7.658  17.281 -0.4514 -0.1306 -0.2628
 2333TIP3    H131194   0.251   7.601  17.249  0.8409 -0.7144 -2.2215
 2333TIP3    H231195   0.331   7.723  17.212  1.1258 -0.2410 -0.1577
 2334TIP3   OH231196   0.372   2.762  19.135 -0.2382  1.2164 -0.1916
 2334TIP3    H131197   0.325   2.807  19.064  0.2898  2.5382  0.2539
 2334TIP3    H231198   0.406   2.682  19.095 -1.4679  1.0504 -0.9467
 2335TIP3   OH231199   6.165   4.257  16.777 -0.2257 -0.1443  0.2589
 2335TIP3    H131200   6.157   4.319  16.850  1.1786 -0.5541  0.7861
 2335TIP3    H231201   6.105   4.186  16.800 -0.7866  0.3494  0.3497
 2336TIP3   OH231202   5.067   4.544  18.974 -0.2690 -0.0246 -0.0466
 2336TIP3    H131203   5.060   4.492  18.895  0.1688 -0.7072  0.3493
 2336TIP3    H231204   5.139   4.504  19.023  0.6334  1.4509 -0.0961
 2337TIP3   OH231205   6.033   3.164  16.372 -0.2220 -0.7165 -0.5427
 2337TIP3    H131206   6.106   3.205  16.324 -1.5865  0.7586 -1.4316
 2337TIP3    H231207   5.985   3.237  16.410 -1.5136 -1.6385 -0.3536
 2338TIP3   OH231208   2.355   5.654  16.964 -0.1302  0.6679 -0.2887
 2338TIP3    H131209   2.326   5.711  16.893 -0.9161  1.1397  0.3937
 2338TIP3    H231210   2.297   5.578  16.959 -0.8753  1.1797  0.4915
 2339TIP3   OH231211   3.936   7.765  18.593  0.1513  0.9474 -0.6317
 2339TIP3    H131212   3.863   7.804  18.544  0.3359  0.9083 -0.9461
 2339TIP3    H231213   4.012   7.816  18.565  0.4444  0.1716 -1.2669
 2340TIP3   OH231214   6.649   4.850  17.682 -0.0139 -0.1446 -0.0580
 2340TIP3    H131215   6.702   4.926  17.705 -0.4238  0.1825 -0.1972
 2340TIP3    H231216   6.681   4.824  17.595  0.0029 -0.0208 -0.0900
 2341TIP3   OH231217   5.542   2.323  18.514 -0.0385 -0.1252 -0.1482
 2341TIP3    H131218   5.574   2.381  18.583  0.7595 -1.0404  0.2716
 2341TIP3    H231219   5.451   2.347  18.503  0.3548  1.4426 -0.2239
 2342TIP3   OH231220   0.587   7.951  18.446 -0.0039 -0.1687 -0.4265
 2342TIP3    H131221   0.639   8.027  18.421  1.6281 -1.2806 -0.5491
 2342TIP3    H231222   0.583   7.897  18.367 -0.7619 -0.4260 -0.2186
 2343TIP3   OH231223   5.463   0.296  18.528 -0.1242 -0.8663 -0.1342
 2343TIP3    H131224   5.486   0.361  18.595 -0.5455  0.5412 -1.3102
 2343TIP3    H231225   5.415   0.228  18.576 -0.6665  0.2446  0.9495
 2344TIP3   OH231226   4.341   1.968  18.024 -0.2455 -0.0627  0.0243
 2344TIP3    H131227   4.288   1.890  18.044  0.6281 -0.1284  2.5170
 2344TIP3    H231228   4.350   1.968  17.929 -0.7110 -2.7278 -0.0948
 2345TIP3   OH231229   1.544   2.933  17.040  0.0141 -0.3296 -0.5618
 2345TIP3    H131230   1.560   3.026  17.056  0.6519 -0.6438  0.7454
 2345TIP3    H231231   1.456   2.931  17.001 -0.4121  0.7600  0.2567
 2346TIP3   OH231232   6.806   5.390  16.893  0.4956  0.1965 -0.4726
 2346TIP3    H131233   6.804   5.472  16.843 -4.5440 -0.4943 -1.9768
 2346TIP3    H231234   6.810   5.321  16.826  0.2911 -0.7713  0.4890
 2347TIP3   OH231235   5.291   2.293  16.403  0.2271  0.3805 -0.0307
 2347TIP3    H131236   5.238   2.213  16.407  0.7004  0.0434 -0.3450
 2347TIP3    H231237   5.380   2.263  16.424  0.4273  0.8084 -0.2675
 2348TIP3   OH231238   2.087   5.112  17.885 -0.9266 -0.6930  0.1710
 2348TIP3    H131239   2.006   5.107  17.835 -0.7742 -0.0326 -0.1620
 2348TIP3    H231240   2.059   5.107  17.977 -1.5184  1.0521  0.1257
 2349TIP3   OH231241   0.973   3.767  17.884  0.8156  0.9924  0.1469
 2349TIP3    H131242   0.972   3.765  17.979 -1.6633  0.6160  0.1864
 2349TIP3    H231243   0.899   3.711  17.858  1.4432  1.0550 -1.9908
 2350TIP3   OH231244   1.971   5.902  18.446 -0.6685 -0.4119 -0.7818
 2350TIP3    H131245   2.055   5.939  18.417 -0.4878 -1.5597 -1.7755
 2350TIP3    H231246   1.942   5.962  18.515  0.8728  0.1240 -0.5443
 2351TIP3   OH231247   5.456   5.510  18.643 -0.0156 -0.1250 -0.4862
 2351TIP3    H131248   5.540   5.543  18.674 -0.2009  0.0512 -0.1648
 2351TIP3    H231249   5.391   5.565  18.686 -0.2741  0.3306 -1.4461
 2352TIP3   OH231250   2.582   8.107  18.475  0.1173  0.0760  0.3203
 2352TIP3    H131251   2.628   8.120  18.392 -1.8546 -0.2409 -0.8905
 2352TIP3    H231252   2.532   8.026  18.463 -1.5247  0.8997  1.1488
 2353TIP3   OH231253   5.695   6.574  18.312  0.6868 -0.6978 -1.2370
 2353TIP3    H131254   5.776   6.624  18.320  0.2018 -0.0222 -0.4772
 2353TIP3    H231255   5.625   6.638  18.324  0.0388 -1.6795  0.7309
 2354TIP3   OH231256   0.424   6.351  18.623 -0.1608  0.1681 -0.3472
 2354TIP3    H131257   0.513   6.333  18.654 -0.7261 -0.7919  0.7981
 2354TIP3    H231258   0.389   6.415  18.685 -0.8955 -0.8771  0.3465
 2355TIP3   OH231259   5.064   0.400  17.214  0.0763 -0.3498 -0.3010
 2355TIP3    H131260   5.065   0.477  17.157  2.0328  0.9988  1.4329
 2355TIP3    H231261   4.976   0.400  17.252 -0.4488  0.1308 -1.4670
 2356TIP3   OH231262   7.771   5.977  17.586 -0.0798  0.0107  0.0301
 2356TIP3    H131263   7.717   5.971  17.664 -0.5188  1.5949 -0.1048
 2356TIP3    H231264   7.827   6.053  17.601  0.8481 -0.5245 -0.5949
 2357TIP3   OH231265   4.859   4.016  18.661  0.5782  0.1068  0.5402
 2357TIP3    H131266   4.954   4.031  18.664  0.5897 -0.0512  1.0007
 2357TIP3    H231267   4.847   3.960  18.584  0.7597  0.8067 -0.0118
 2358TIP3   OH231268   5.304   6.276  17.475  0.0087  0.2351 -0.1946
 2358TIP3    H131269   5.349   6.349  17.432  1.1328  0.6575  1.5683
 2358TIP3    H231270   5.264   6.226  17.404  0.7630  1.5526 -1.5880
 2359TIP3   OH231271   2.212   5.371  18.423 -0.3486  0.1310 -0.1016
 2359TIP3    H131272   2.176   5.405  18.505 -0.2432 -0.4314  0.1830
 2359TIP3    H231273   2.163   5.416  18.355 -0.8269  0.1875  0.2748
 2360TIP3   OH231274   7.734   0.278  18.761  0.3007  0.1721  0.5211
 2360TIP3    H131275   7.737   0.333  18.683  0.4797  0.1183  0.4878
 2360TIP3    H231276   7.654   0.227  18.753  0.8825 -0.6662 -0.2066
 2361TIP3   OH231277   5.130   2.456  18.048 -0.3782 -0.2051  0.0797
 2361TIP3    H131278   5.067   2.493  17.985  0.3307  1.7201  0.4319
 2361TIP3    H231279   5.100   2.488  18.133  1.0186  0.7188  0.2562
 2362TIP3   OH231280   5.160   4.250  17.736 -0.1872  0.4194 -0.4099
 2362TIP3    H131281   5.160   4.228  17.643 -1.4225 -2.6379  0.1924
 2362TIP3    H231282   5.213   4.181  17.777 -0.7467  0.9413  1.2781
 2363TIP3   OH231283   5.080   5.805  18.559  0.1761  0.4281  0.2461
 2363TIP3    H131284   5.045   5.726  18.518 -0.3286  0.7381  0.0668
 2363TIP3    H231285   5.107   5.861  18.486 -0.0249  0.6640  0.3467
 2364TIP3   OH231286   7.649   7.310  17.153 -0.0244 -0.0456  0.9345
 2364TIP3    H131287   7.723   7.251  17.165  0.6242  1.0431  2.6651
 2364TIP3    H231288   7.647   7.363  17.233 -1.2601  1.5142 -0.0554
 2365TIP3   OH231289   2.923   0.239  18.157 -0.2910 -0.3268 -0.3031
 2365TIP3    H131290   2.904   0.146  18.167 -0.7499 -0.2213 -0.1503
 2365TIP3    H231291   3.002   0.253  18.208 -1.6855 -0.1341  1.9583
 2366TIP3   OH231292   5.949   6.645  17.969 -0.0712 -0.4844 -0.2077
 2366TIP3    H131293   5.872   6.698  17.947 -0.5681 -0.3345  1.6662
 2366TIP3    H231294   5.914   6.577  18.027  1.0458 -1.0585 -0.1918
 2367TIP3   OH231295   3.139   2.375  19.123  0.2845  0.0813  0.0480
 2367TIP3    H131296   3.190   2.362  19.043  0.5499 -0.7111  0.3385
 2367TIP3    H231297   3.156   2.297  19.176  0.5017  0.8131  1.0887
 2368TIP3   OH231298   7.304   4.214  18.982  0.4100  1.1538  0.6266
 2368TIP3    H131299   7.235   4.218  19.048  0.8271  0.4009  1.1140
 2368TIP3    H231300   7.284   4.137  18.929  0.9546  0.8379  0.8678
 2369TIP3   OH231301   1.866   3.364  16.951 -0.0551 -0.4146  0.2295
 2369TIP3    H131302   1.778   3.356  16.912 -0.3948  0.2064  0.8684
 2369TIP3    H231303   1.853   3.346  17.044  0.3807  0.3433  0.4435
 2370TIP3   OH231304   5.997   4.352  18.399 -0.3625 -0.1205 -0.4403
 2370TIP3    H131305   5.971   4.344  18.491 -3.2482 -0.6299 -1.1746
 2370TIP3    H231306   6.078   4.301  18.393 -0.5971 -0.8590  1.6265
 2371TIP3   OH231307   1.655   7.743  17.791 -0.4086 -0.7178  0.2559
 2371TIP3    H131308   1.682   7.725  17.882 -0.1998 -0.7266  0.1933
 2371TIP3    H231309   1.602   7.822  17.798  1.5281  0.6628  0.1013
 2372TIP3   OH231310   3.338   0.232  18.709  0.3107  0.0255  0.1485
 2372TIP3    H131311   3.404   0.280  18.659 -0.7216  0.0215 -1.2882
 2372TIP3    H231312   3.382   0.208  18.790  1.8840  0.5147 -0.5221
 2373TIP3   OH231313   5.498   8.379  17.815  0.1453  0.2513 -0.4520
 2373TIP3    H131314   5.429   8.318  17.790 -1.3057  2.5726 -2.6442
 2373TIP3    H231315   5.548   8.392  17.734 -0.8863  3.4289 -0.7226
 2374TIP3   OH231316   5.439   0.532  18.732 -0.6099 -0.0086  0.0197
 2374TIP3    H131317   5.478   0.620  18.733 -1.8028  0.5303  0.8827
 2374TIP3    H231318   5.464   0.494  18.816 -1.2660  0.0350  0.2364
 2375TIP3   OH231319   2.062   3.314  17.942 -0.6148 -0.1293 -0.1051
 2375TIP3    H131320   2.080   3.405  17.919  0.0833 -0.3836 -0.5835
 2375TIP3    H231321   1.993   3.286  17.882  1.0477 -0.7257 -1.8123
 2376TIP3   OH231322   1.008   3.467  18.020  0.1920  0.0250  0.2419
 2376TIP3    H131323   0.978   3.465  18.110  0.9486 -0.0618  0.4963
 2376TIP3    H231324   1.104   3.469  18.026  0.4070  4.8991 -0.3707
 2377TIP3   OH231325   7.504   5.266  16.893 -0.0772  0.5172  0.0897
 2377TIP3    H131326   7.485   5.279  16.800 -0.8851 -2.0275 -0.1707
 2377TIP3    H231327   7.438   5.203  16.923  2.5731 -1.8852  1.3535
 2378TIP3   OH231328   0.410   3.637  17.920 -0.9127 -0.2932 -0.4902
 2378TIP3    H131329   0.362   3.554  17.921 -1.1495 -0.1514 -0.1000
 2378TIP3    H231330   0.444   3.646  18.008 -1.0599  0.1261 -0.4738
 2379TIP3   OH231331   8.215   0.293  17.718 -0.6405 -0.1198 -0.5625
 2379TIP3    H131332   8.267   0.327  17.646  0.3958 -0.0657  0.1902
 2379TIP3    H231333   8.234   0.352  17.791  0.7153 -1.8899  0.6045
 2380TIP3   OH231334   0.854   2.437  17.524 -0.1312  0.3740 -0.3330
 2380TIP3    H131335   0.892   2.478  17.601  1.5594  0.4408 -1.1581
 2380TIP3    H231336   0.906   2.357  17.512 -3.1057 -1.9758  1.0490
 2381TIP3   OH231337   8.413   5.792  18.143  0.3804 -0.3512 -0.4613
 2381TIP3    H131338   8.470   5.811  18.217 -1.0726 -1.4154  0.9964
 2381TIP3    H231339   8.408   5.696  18.140 -2.9335 -0.3524  0.8507
 2382TIP3   OH231340   8.200   3.524  19.302 -0.2432 -0.0646  0.1504
 2382TIP3    H131341   8.122   3.565  19.339  0.8482  1.7491  0.5581
 2382TIP3    H231342   8.182   3.519  19.208 -1.5411 -1.3476  0.4192
 2383TIP3   OH231343   0.419   6.738  19.242 -0.9189  0.4376  0.0228
 2383TIP3    H131344   0.361   6.804  19.281 -2.5297 -0.0370 -1.4825
 2383TIP3    H231345   0.361   6.679  19.194  0.7739 -0.3342 -1.1864
 2384TIP3   OH231346   7.466   7.246  18.675 -0.0515  0.3153  0.3716
 2384TIP3    H131347   7.370   7.249  18.679 -0.2062 -1.5662 -0.4298
 2384TIP3    H231348   7.485   7.210  18.588  1.4153  1.0508  0.3597
 2385TIP3   OH231349   1.238   6.960  18.087 -0.0292 -0.1661  0.3397
 2385TIP3    H131350   1.284   7.037  18.055 -1.4098  1.1366  1.3035
 2385TIP3    H231351   1.200   6.921  18.008  2.4999 -1.1982 -0.4511
 2386TIP3   OH231352   5.542   3.362  18.582 -0.4917 -0.0440 -0.3553
 2386TIP3    H131353   5.498   3.444  18.561  1.6035  1.1614 -0.2201
 2386TIP3    H231354   5.533   3.353  18.677 -0.4673  0.1607 -0.3345
 2387TIP3   OH231355   5.434   3.657  18.399 -0.0908  0.1466  0.2459
 2387TIP3    H131356   5.478   3.729  18.445  0.2137  0.9848 -1.3020
 2387TIP3    H231357   5.341   3.678  18.405  0.0253  1.0700 -0.7671
 2388TIP3   OH231358   4.673   1.330  17.734  0.3451  0.2775 -0.1602
 2388TIP3    H131359   4.683   1.274  17.657  0.8263 -1.5224  1.1424
 2388TIP3    H231360   4.760   1.370  17.746  0.0159  1.3090 -1.0559
 2389TIP3   OH231361   5.707   3.128  18.031  0.0802  0.0341 -0.2497
 2389TIP3    H131362   5.707   3.035  18.055  0.1691 -0.2282 -1.2176
 2389TIP3    H231363   5.699   3.174  18.114 -2.8282 -0.8697  0.0740
 2390TIP3   OH231364   5.695   0.177  18.702  0.0116 -0.2612  0.0307
 2390TIP3    H131365   5.616   0.127  18.682 -0.3748  1.0719 -2.1419
 2390TIP3    H231366   5.753   0.161  18.628  0.5223  1.1906  0.0738
 2391TIP3   OH231367   3.006   8.422  17.051 -0.0950 -0.2155  0.0081
 2391TIP3    H131368   2.943   8.350  17.054  1.6011 -1.7090  0.6762
 2391TIP3    H231369   2.982   8.477  17.126  0.4075 -1.6799  1.2903
 2392TIP3   OH231370   4.787   0.932  16.933  0.7721  0.5653 -0.7171
 2392TIP3    H131371   4.833   0.966  17.010  0.0087  0.1382 -0.0544
 2392TIP3    H231372   4.749   0.849  16.962 -1.2301  1.3556 -0.9033
 2393TIP3   OH231373   3.119   5.632  18.547 -0.2190  0.0659  0.4511
 2393TIP3    H131374   3.087   5.639  18.637 -0.0893 -0.7797  0.5662
 2393TIP3    H231375   3.214   5.621  18.556 -0.1067  0.7525  0.1769
 2394TIP3   OH231376   4.366   1.720  17.499 -0.4157 -0.4163 -0.3994
 2394TIP3    H131377   4.404   1.652  17.555 -1.3011 -1.0393 -0.5407
 2394TIP3    H231378   4.322   1.779  17.559 -0.0626 -0.2307 -0.3195
 2395TIP3   OH231379   7.002   8.323  17.869  0.1019 -0.1933  0.2606
 2395TIP3    H131380   6.997   8.417  17.887  1.1262  0.0105 -0.4565
 2395TIP3    H231381   6.948   8.311  17.791 -0.4342 -0.2928  0.6391
 2396TIP3   OH231382   8.170   8.340  17.990  0.0710  0.2079  0.2627
 2396TIP3    H131383   8.236   8.372  18.051  0.0428  1.6831 -0.4349
 2396TIP3    H231384   8.219   8.292  17.924  0.2190 -0.4054  0.8063
 2397TIP3   OH231385   0.463   6.847  17.278  0.8098 -0.0129 -0.1316
 2397TIP3    H131386   0.423   6.905  17.343 -3.7010 -1.2709 -1.4371
 2397TIP3    H231387   0.467   6.900  17.198  2.8199  0.3626  0.1618
 2398TIP3   OH231388   2.349   8.234  18.579  0.4523  0.2798  0.7196
 2398TIP3    H131389   2.305   8.183  18.647 -2.0599 -1.1089 -1.7053
 2398TIP3    H231390   2.406   8.171  18.535  1.2681  0.8972  0.8751
 2399TIP3   OH231391   1.805   1.549  17.435  0.0673 -0.3136  0.2104
 2399TIP3    H131392   1.873   1.492  17.399 -0.3443 -0.7751  0.1511
 2399TIP3    H231393   1.728   1.493  17.440 -0.5623  0.4546 -0.5813
 2400TIP3   OH231394   5.749   1.419  18.393 -0.0105  0.1765  0.5882
 2400TIP3    H131395   5.770   1.330  18.364  1.2111  0.1625  1.4414
 2400TIP3    H231396   5.834   1.463  18.398 -0.6526  1.6014 -0.4182
 2401TIP3   OH231397   8.275   4.864  18.385  0.0307 -0.2840 -0.5509
 2401TIP3    H131398   8.238   4.937  18.336  0.5649  1.7286  1.7911
 2401TIP3    H231399   8.357   4.843  18.340 -0.4140  0.1439 -1.5876
 2402TIP3   OH231400   1.393   2.106  17.581 -0.0110  0.8528 -0.3893
 2402TIP3    H131401   1.337   2.050  17.635  0.0157 -0.0941 -1.3010
 2402TIP3    H231402   1.332   2.156  17.527 -0.0469 -0.4416 -1.6435
 2403TIP3   OH231403   3.125   2.485  18.236 -0.0735  0.1180  0.0288
 2403TIP3    H131404   3.112   2.527  18.151 -1.1626  1.2634  0.7249
 2403TIP3    H231405   3.203   2.527  18.272 -0.8670  1.2437  0.5040
 2404TIP3   OH231406   4.356   6.323  17.131 -0.4010 -0.2913 -0.1823
 2404TIP3    H131407   4.370   6.346  17.039 -1.5397  0.8144 -0.0997
 2404TIP3    H231408   4.262   6.307  17.137 -0.2756 -0.7433  0.7264
 2405TIP3   OH231409   6.893   6.766  17.959  0.3225 -0.6027 -1.0515
 2405TIP3    H131410   6.949   6.713  18.016 -0.5784 -1.4048 -0.8703
 2405TIP3    H231411   6.901   6.855  17.993  1.0012 -0.8158 -0.6426
 2406TIP3   OH231412   0.947   6.671  17.214 -0.0963 -0.6442 -0.4359
 2406TIP3    H131413   0.947   6.709  17.301 -1.0062  1.1510 -1.1660
 2406TIP3    H231414   1.031   6.626  17.207  0.6344  0.4660  0.8203
 2407TIP3   OH231415   7.108   1.123  18.674  0.0891  0.4270  0.2490
 2407TIP3    H131416   7.114   1.186  18.602 -1.8053 -0.1252 -0.4270
 2407TIP3    H231417   7.024   1.142  18.716  1.1753  0.7925  2.4057
 2408TIP3   OH231418   7.938   1.178  18.816 -0.0755  0.0054  0.5786
 2408TIP3    H131419   7.883   1.123  18.872 -1.0392  0.7107  0.3508
 2408TIP3    H231420   7.907   1.267  18.831  1.1657  0.4496  0.6009
 2409TIP3   OH231421   7.324   2.772  18.749  0.1772 -0.2470 -0.1290
 2409TIP3    H131422   7.367   2.841  18.800 -1.2606 -1.2313  2.6272
 2409TIP3    H231423   7.260   2.735  18.809  0.3018 -3.4199 -1.7720
 2410TIP3   OH231424   3.926   2.159  17.573 -0.2778  0.1249  0.3071
 2410TIP3    H131425   3.890   2.073  17.596  2.2781 -0.9875  0.4637
 2410TIP3    H231426   3.874   2.221  17.624 -1.7981 -1.3734  0.6582
 2411TIP3   OH231427   3.459   4.232  17.232 -0.0012 -0.1634 -0.1153
 2411TIP3    H131428   3.395   4.270  17.172 -1.5872 -0.2137  1.4672
 2411TIP3    H231429   3.490   4.153  17.186 -1.0089 -0.0977 -0.9569
 2412TIP3   OH231430   7.905   7.570  17.969 -0.2195  0.1991 -0.1988
 2412TIP3    H131431   7.969   7.617  17.916 -1.0068  0.5365 -0.8821
 2412TIP3    H231432   7.956   7.530  18.039  0.8631 -0.2860 -1.2349
 2413TIP3   OH231433   3.491   5.285  17.732  0.1129 -0.0947  0.2897
 2413TIP3    H131434   3.508   5.248  17.646  0.4602  0.5864  0.0646
 2413TIP3    H231435   3.532   5.223  17.793  3.2249  1.3125 -0.2094
 2414TIP3   OH231436   5.746   2.528  18.417  0.2437 -1.0781  0.3145
 2414TIP3    H131437   5.706   2.465  18.357  0.6975  0.3129 -1.5716
 2414TIP3    H231438   5.824   2.558  18.370 -0.1182  1.0676  0.9894
 2415TIP3   OH231439   8.332   3.777  18.110 -0.0699 -0.2661 -0.0134
 2415TIP3    H131440   8.260   3.818  18.158 -0.8895 -0.1316 -1.3334
 2415TIP3    H231441   8.372   3.850  18.062  1.0531 -0.3149  0.8025
 2416TIP3   OH231442   1.874   1.485  18.615 -0.6784  0.4279 -0.3354
 2416TIP3    H131443   1.945   1.543  18.588  0.7739 -1.4657 -0.8060
 2416TIP3    H231444   1.917   1.416  18.665 -2.4701  0.2308  1.0481
 2417TIP3   OH231445   3.399   4.452  17.705  0.3128  0.1411  0.3882
 2417TIP3    H131446   3.417   4.420  17.793 -0.0782 -1.5141 -0.0972
 2417TIP3    H231447   3.486   4.464  17.666  0.4764 -0.7075  0.4730
 2418TIP3   OH231448   1.123   7.808  17.112  0.9423 -0.0464 -0.3332
 2418TIP3    H131449   1.082   7.722  17.124  0.5689  0.0486 -0.8927
 2418TIP3    H231450   1.212   7.789  17.083  0.2803 -0.2574 -2.3654
 2419TIP3   OH231451   6.268   6.266  17.196  0.4266 -0.2964 -0.4234
 2419TIP3    H131452   6.329   6.332  17.231  0.4636 -0.8576  0.6122
 2419TIP3    H231453   6.277   6.274  17.101 -0.3171  1.8866 -0.3682
 2420TIP3   OH231454   1.371   8.420  18.491  0.1918 -0.1782 -0.3672
 2420TIP3    H131455   1.403   8.420  18.581 -1.0038 -0.8337  0.0885
 2420TIP3    H231456   1.292   8.365  18.494 -0.2297  0.3136 -1.6866
 2421TIP3   OH231457   8.106   1.700  18.316 -0.2334  0.1861 -0.2572
 2421TIP3    H131458   8.113   1.789  18.280  1.8563 -0.9119 -2.9463
 2421TIP3    H231459   8.197   1.671  18.326 -0.8551 -1.2875  1.6362
 2422TIP3   OH231460   2.406   0.316  17.382  0.4456 -0.0362  0.5916
 2422TIP3    H131461   2.479   0.377  17.391  1.6445 -1.3018 -0.0203
 2422TIP3    H231462   2.443   0.243  17.332 -0.9926 -1.1286  1.0683
 2423TIP3   OH231463   1.366   2.341  17.764 -0.3732 -0.0312  0.5976
 2423TIP3    H131464   1.279   2.342  17.723  0.3362  1.6861 -1.0372
 2423TIP3    H231465   1.360   2.274  17.831 -2.5835 -0.8453 -0.3061
 2424TIP3   OH231466   7.997   1.389  18.551  0.2926  0.1660  0.3067
 2424TIP3    H131467   7.973   1.346  18.633  2.2207  0.4924  1.0850
 2424TIP3    H231468   7.998   1.318  18.487 -1.3734 -0.0659  0.4845
 2425TIP3   OH231469   1.231   1.594  17.507  0.6315  0.0072 -0.1697
 2425TIP3    H131470   1.276   1.561  17.585  0.4547 -0.8855 -0.4222
 2425TIP3    H231471   1.193   1.515  17.468  1.3927  0.3062 -1.5953
 2426TIP3   OH231472   7.162   7.675  16.452  0.3166  0.5757 -0.4804
 2426TIP3    H131473   7.205   7.630  16.524 -1.6613  0.7391  0.9045
 2426TIP3    H231474   7.105   7.609  16.413  1.7061  0.3696 -2.2300
 2427TIP3   OH231475   5.374   2.816  18.750  0.2982  0.1269  0.2976
 2427TIP3    H131476   5.292   2.865  18.754  1.3989  1.9843  1.6577
 2427TIP3    H231477   5.391   2.805  18.656 -1.6526 -0.6390 -0.0130
 2428TIP3   OH231478   1.585   8.154  17.518 -0.3708 -0.1713  0.4385
 2428TIP3    H131479   1.591   8.194  17.431  0.1064 -0.4655  0.3295
 2428TIP3    H231480   1.599   8.061  17.502  1.7496 -0.0115  1.0391
 2429TIP3   OH231481   6.271   5.628  16.788  0.4821 -0.0063 -0.1897
 2429TIP3    H131482   6.324   5.549  16.799 -0.9098 -0.9995 -0.2940
 2429TIP3    H231483   6.218   5.632  16.868  1.6056  1.6998  0.5140
 2430TIP3   OH231484   5.567   3.194  17.585  0.3430  0.1683 -0.8310
 2430TIP3    H131485   5.517   3.217  17.507  0.5682  0.7004 -0.8260
 2430TIP3    H231486   5.528   3.112  17.616 -1.5521  1.3334  0.0394
 2431TIP3   OH231487   3.076   6.939  17.223 -0.2863 -0.3500 -0.8963
 2431TIP3    H131488   3.049   7.031  17.216  0.0373 -0.1483  0.3517
 2431TIP3    H231489   3.120   6.933  17.307 -0.9509 -1.8371 -0.6269
 2432TIP3   OH231490   1.730   7.773  17.334 -0.1138  0.3747  0.5703
 2432TIP3    H131491   1.742   7.705  17.268 -0.2855 -0.4843  1.4015
 2432TIP3    H231492   1.693   7.847  17.286  1.1148  0.2985 -0.5651
 2433TIP3   OH231493   7.057   4.879  17.450 -0.2693 -0.1474 -0.0943
 2433TIP3    H131494   7.087   4.846  17.534  1.4092 -3.1801 -1.7093
 2433TIP3    H231495   7.126   4.940  17.422 -0.2042 -0.0960  0.1794
 2434TIP3   OH231496   1.878   6.313  18.485 -0.0902 -0.0815 -0.2061
 2434TIP3    H131497   1.928   6.357  18.416  2.2813 -0.6475  1.0151
 2434TIP3    H231498   1.873   6.222  18.456 -1.2581  0.1374 -0.7418
 2435TIP3   OH231499   8.069   7.177  17.178 -0.1152  0.5243 -0.4434
 2435TIP3    H131500   8.109   7.179  17.090 -0.4565 -2.2034 -0.7498
 2435TIP3    H231501   7.976   7.164  17.162 -0.1122 -0.5454  0.2957
 2436TIP3   OH231502   6.720   6.976  17.696  0.3688 -0.0851 -0.1805
 2436TIP3    H131503   6.753   7.059  17.661 -2.4940  1.4066  0.3757
 2436TIP3    H231504   6.685   6.998  17.782 -1.3909 -1.6455 -0.4317
 2437TIP3   OH231505   7.279   7.713  16.936  0.2828 -0.2873 -0.2375
 2437TIP3    H131506   7.320   7.740  16.853  1.8727 -1.2576  0.1959
 2437TIP3    H231507   7.263   7.796  16.982  0.4055  0.1963 -1.0390
 2438TIP3   OH231508   2.018   6.681  16.550 -0.0451  0.6360  0.0513
 2438TIP3    H131509   1.923   6.666  16.553 -0.1095  0.6143 -1.3333
 2438TIP3    H231510   2.030   6.766  16.590 -0.4714 -0.0057  1.6161
 2439TIP3   OH231511   7.446   5.677  17.600 -0.5926  0.1939  0.1642
 2439TIP3    H131512   7.469   5.603  17.545 -1.0914  0.2215 -0.0898
 2439TIP3    H231513   7.471   5.754  17.549  2.2606  0.2401  1.4191
 2440TIP3   OH231514   1.279   7.879  17.472  0.3936 -0.3952 -0.2408
 2440TIP3    H131515   1.207   7.816  17.473 -0.1666  0.2304  1.0628
 2440TIP3    H231516   1.357   7.827  17.456 -0.4750 -0.8993 -3.6028
 2441TIP3   OH231517   5.609   5.663  17.874 -0.4711  0.4664  0.0823
 2441TIP3    H131518   5.611   5.682  17.968  1.7708 -0.4854  0.2961
 2441TIP3    H231519   5.553   5.586  17.867 -0.0587  0.0909  0.7587
 2442TIP3   OH231520   3.162   2.089  18.370  0.4616 -0.3266  0.0645
 2442TIP3    H131521   3.075   2.120  18.345  1.0891  0.1690 -1.6609
 2442TIP3    H231522   3.198   2.159  18.424 -0.7359 -1.1870  2.0662
 2443TIP3   OH231523   8.165   1.612  17.394 -0.9977 -0.4008  0.1921
 2443TIP3    H131524   8.110   1.601  17.317 -2.0726  1.3017  0.6523
 2443TIP3    H231525   8.254   1.591  17.364 -1.4403 -0.0567 -1.4231
 2444TIP3   OH231526   5.661   6.999  17.256 -0.0983 -0.5234 -0.5217
 2444TIP3    H131527   5.614   7.040  17.329 -0.5752 -0.0919 -1.0642
 2444TIP3    H231528   5.654   7.062  17.185  2.9679  0.4796 -0.0700
 2445TIP3   OH231529   2.262   5.312  17.788 -0.1732  0.1064 -0.3765
 2445TIP3    H131530   2.250   5.386  17.847 -1.9144  1.3771 -2.1833
 2445TIP3    H231531   2.209   5.242  17.825  0.9732 -0.0843  0.9971
 2446TIP3   OH231532   4.898   6.393  17.989  0.5319  0.0388 -0.5066
 2446TIP3    H131533   4.827   6.457  17.987 -1.2795 -1.8730 -1.3068
 2446TIP3    H231534   4.912   6.370  17.897 -0.1465 -1.9855 -0.1558
 2447TIP3   OH231535   2.297   3.189  18.002 -0.6674  0.3172 -0.6698
 2447TIP3    H131536   2.203   3.207  18.000 -0.6707  0.2399 -1.6354
 2447TIP3    H231537   2.337   3.274  17.984 -0.5548  0.3359 -0.3277
 2448TIP3   OH231538   1.304   6.968  17.021  0.2199  0.1924 -0.2477
 2448TIP3    H131539   1.288   7.049  16.972  0.5592  0.7135  0.4940
 2448TIP3    H231540   1.328   6.904  16.953 -1.9343  0.1732 -1.0592
 2449TIP3   OH231541   1.359   2.490  18.544 -0.2714  0.3242 -0.2356
 2449TIP3    H131542   1.338   2.397  18.534 -0.8804  0.5498 -1.1710
 2449TIP3    H231543   1.443   2.491  18.590  0.3922 -0.7209 -1.3583
 2450TIP3   OH231544   5.014   2.208  18.766 -0.1329 -0.0997  0.1362
 2450TIP3    H131545   4.991   2.287  18.716  0.0427 -0.7164 -0.9630
 2450TIP3    H231546   4.947   2.201  18.833 -0.5843  0.5708 -0.2350
 2451TIP3   OH231547   6.611   1.720  18.322  0.1112  0.6764  0.4709
 2451TIP3    H131548   6.586   1.739  18.413 -0.9084 -1.3985  0.6933
 2451TIP3    H231549   6.696   1.677  18.329  0.5773  1.5766  0.3359
 2452TIP3   OH231550   1.821   0.716  18.205  0.2994 -0.2648 -0.1328
 2452TIP3    H131551   1.816   0.773  18.128 -1.9079  1.7748  1.3831
 2452TIP3    H231552   1.731   0.690  18.222  0.8454 -1.3171  1.3140
 2453TIP3   OH231553   3.131   6.907  17.808 -0.0519  0.1791  0.2980
 2453TIP3    H131554   3.035   6.903  17.807 -0.0377 -0.5279 -1.8843
 2453TIP3    H231555   3.153   6.917  17.901 -2.2562  1.4954  0.7652
 2454TIP3   OH231556   7.975   3.177  18.794  0.2630 -0.1709  0.0569
 2454TIP3    H131557   7.997   3.268  18.773  1.3580 -0.4369 -0.0106
 2454TIP3    H231558   7.937   3.142  18.714  3.0257 -0.7410 -1.1290
 2455TIP3   OH231559   0.549   3.459  18.152 -0.2543  0.0929  0.0311
 2455TIP3    H131560   0.634   3.462  18.108 -0.3256 -0.8187 -0.1936
 2455TIP3    H231561   0.512   3.375  18.125 -0.3584 -0.4429  1.7359
 2456TIP3   OH231562   7.667   7.074  18.227  0.0319 -0.2906 -0.6087
 2456TIP3    H131563   7.679   7.152  18.173 -1.6336  0.7087  0.3869
 2456TIP3    H231564   7.710   7.004  18.178  1.5862  1.2191 -1.5291
 2457TIP3   OH231565   4.788   0.834  17.455  0.1811 -0.1222  0.7624
 2457TIP3    H131566   4.836   0.776  17.514 -0.0382 -0.9231  0.1794
 2457TIP3    H231567   4.726   0.776  17.411 -0.9535  0.7938  1.1142
 2458TIP3   OH231568   3.794   5.266  17.569 -0.3565  0.1145 -0.2655
 2458TIP3    H131569   3.850   5.268  17.646  1.2611  1.8941 -1.4016
 2458TIP3    H231570   3.855   5.265  17.495 -1.8326 -1.8811 -1.5876
 2459TIP3   OH231571   0.140   0.842  18.128  0.1372  0.9900 -0.5529
 2459TIP3    H131572   0.107   0.760  18.092 -0.5534  1.5612 -1.2504
 2459TIP3    H231573   0.071   0.906  18.110  1.7343  2.3048 -2.3726
 2460TIP3   OH231574   6.053   1.252  18.274 -0.7122 -0.1062  0.3968
 2460TIP3    H131575   6.147   1.265  18.258 -1.0319  2.0244 -0.1291
 2460TIP3    H231576   6.048   1.212  18.361  0.6875 -1.0208  0.0867
 2461TIP3   OH231577   7.761   8.316  18.106 -0.4686 -0.0155 -0.1916
 2461TIP3    H131578   7.840   8.369  18.117 -1.7854  2.0141  0.1283
 2461TIP3    H231579   7.693   8.380  18.082 -2.3471 -1.4446  1.0401
 2462TIP3   OH231580   2.735   5.796  17.287  0.0174  0.5476 -0.5062
 2462TIP3    H131581   2.688   5.724  17.245 -1.7394  1.4734 -0.2217
 2462TIP3    H231582   2.667   5.848  17.330  1.2773  2.1282 -0.2994
 2463TIP3   OH231583   8.180   6.702  17.810  0.1203  0.9199  0.0146
 2463TIP3    H131584   8.165   6.694  17.904  0.3407  0.0346 -0.0198
 2463TIP3    H231585   8.203   6.613  17.782  2.0995  1.5325 -0.5037
 2464TIP3   OH231586   0.794   0.373  17.523 -0.3343 -0.2774 -0.1327
 2464TIP3    H131587   0.786   0.314  17.448  1.6513  0.3431 -0.8973
 2464TIP3    H231588   0.806   0.314  17.598  2.3946 -0.9200 -0.9821
 2465TIP3   OH231589   0.804   6.651  16.628  0.6905  0.0969 -0.1063
 2465TIP3    H131590   0.787   6.745  16.629  1.0768  0.1701 -0.0995
 2465TIP3    H231591   0.899   6.645  16.620  0.5801 -0.2828 -1.5278
 2466TIP3   OH231592   5.315   3.955  17.629 -0.0414  0.0711 -0.2170
 2466TIP3    H131593   5.376   3.992  17.693  0.9435  1.7069 -1.9915
 2466TIP3    H231594   5.356   3.872  17.602  0.6649  0.4374 -0.3088
 2467TIP3   OH231595   5.412   2.680  17.456 -0.0329 -0.0001  0.0424
 2467TIP3    H131596   5.495   2.637  17.436  0.0301  0.4892 -0.7817
 2467TIP3    H231597   5.392   2.652  17.545  2.4680  2.1358  1.3983
 2468TIP3   OH231598   7.628   4.156  17.375 -0.1757 -0.8826 -0.5394
 2468TIP3    H131599   7.562   4.095  17.407 -1.6916  1.6925  1.6608
 2468TIP3    H231600   7.598   4.180  17.287 -0.9690 -1.3791 -0.4149
 2469TIP3   OH231601   2.776   6.351  18.852 -0.3400 -0.0015  0.1318
 2469TIP3    H131602   2.717   6.387  18.786 -0.2686 -0.5629 -0.2461
 2469TIP3    H231603   2.850   6.412  18.854 -0.8893  0.6718  0.5640
 2470TIP3   OH231604   1.465   6.629  16.391  0.1878  0.2633 -0.4558
 2470TIP3    H131605   1.515   6.705  16.361  0.5845  0.7954  1.4524
 2470TIP3    H231606   1.416   6.661  16.466 -0.2095 -1.1947 -0.0777
 2471TIP3   OH231607   2.950   6.251  17.812  0.6987 -0.2535  0.3287
 2471TIP3    H131608   3.024   6.193  17.826  1.9885  1.6380  1.6583
 2471TIP3    H231609   2.988   6.331  17.774 -0.6606  0.7037  0.9002
 2472TIP3   OH231610   2.169   6.113  18.304 -0.4626 -0.0693 -0.1941
 2472TIP3    H131611   2.246   6.168  18.287 -0.5630 -0.5570 -2.5617
 2472TIP3    H231612   2.193   6.060  18.379 -0.0662  2.6164  1.7138
 2473TIP3   OH231613   0.579   3.798  19.425  0.0779 -0.0806 -0.6112
 2473TIP3    H131614   0.632   3.730  19.465 -0.1820 -0.8365 -1.5118
 2473TIP3    H231615   0.637   3.874  19.418 -0.0020  0.2610  1.6005
 2474TIP3   OH231616   5.666   1.626  18.022  0.9261 -0.6984  0.5454
 2474TIP3    H131617   5.683   1.555  17.961  0.2202 -0.9378  0.6171
 2474TIP3    H231618   5.727   1.611  18.095 -0.0963 -1.9864  1.1650
 2475TIP3   OH231619   0.022   1.917  17.377 -0.1328 -0.3019  0.3079
 2475TIP3    H131620   0.060   1.842  17.332 -0.2284 -1.2418  1.7239
 2475TIP3    H231621   0.058   1.914  17.466 -2.2634 -0.3468  1.2485
 2476TIP3   OH231622   7.551   4.575  18.815 -0.6021 -0.3804 -0.1537
 2476TIP3    H131623   7.522   4.635  18.747  2.1116 -0.0349 -1.1343
 2476TIP3    H231624   7.505   4.493  18.796 -0.9017  0.0955 -1.5854
 2477TIP3   OH231625   3.780   2.825  17.928  0.5454 -0.1635 -0.0555
 2477TIP3    H131626   3.836   2.820  17.851  0.3524 -1.6773 -0.1308
 2477TIP3    H231627   3.692   2.807  17.895 -0.6819  5.2261 -0.5011
 2478TIP3   OH231628   4.806   5.279  18.777 -0.3477  0.2519 -0.3382
 2478TIP3    H131629   4.732   5.222  18.753 -0.1539 -0.0238 -0.2929
 2478TIP3    H231630   4.884   5.226  18.757 -0.1734  0.3020  0.1942
 2479TIP3   OH231631   5.178   8.077  16.436  0.0410 -0.1731 -0.0743
 2479TIP3    H131632   5.108   8.027  16.477 -1.6426  0.9873 -1.4163
 2479TIP3    H231633   5.142   8.165  16.426  0.7059 -0.1411 -3.0461
 2480TIP3   OH231634   4.831   0.388  16.882 -0.2609 -0.2301  0.5115
 2480TIP3    H131635   4.915   0.435  16.884 -0.7662  0.7682 -0.6070
 2480TIP3    H231636   4.768   0.453  16.849 -1.4490 -1.0125  1.1879
 2481TIP3   OH231637   2.561   4.799  18.627 -0.3752  0.7908  0.3687
 2481TIP3    H131638   2.602   4.885  18.633  0.9279  0.1849  0.4859
 2481TIP3    H231639   2.525   4.796  18.539  0.0825  1.2403  0.1580
 2482TIP3   OH231640   1.210   4.562  17.157  0.1407  0.1684 -0.5051
 2482TIP3    H131641   1.292   4.595  17.195  0.3951  0.0961 -0.9784
 2482TIP3    H231642   1.142   4.614  17.199  0.5151  1.0819 -0.9899
 2483TIP3   OH231643   2.133   7.004  18.191  0.1013 -0.0751 -0.3284
 2483TIP3    H131644   2.053   7.002  18.244 -0.8488 -1.3122 -1.7421
 2483TIP3    H231645   2.106   7.042  18.108  1.3476  0.8896 -0.3180
 2484TIP3   OH231646   6.786   2.578  17.318 -0.3898 -0.2240  0.7876
 2484TIP3    H131647   6.804   2.591  17.411 -0.8894 -2.0365  1.1691
 2484TIP3    H231648   6.859   2.526  17.287  0.7569  1.9058 -0.3274
 2485TIP3   OH231649   6.946   7.670  16.973 -0.2225 -0.0183  0.0588
 2485TIP3    H131650   6.988   7.753  16.949  2.4528 -1.3329 -0.2680
 2485TIP3    H231651   6.942   7.671  17.068  0.8065  0.0891  0.1166
 2486TIP3   OH231652   0.984   8.070  16.997  0.3038 -0.5132 -0.0313
 2486TIP3    H131653   1.020   7.984  16.974 -1.0023 -0.9563 -0.5046
 2486TIP3    H231654   1.057   8.116  17.038  1.0347 -1.8444  0.2283
 2487TIP3   OH231655   1.268   2.168  18.050 -0.3330 -0.4679  0.1685
 2487TIP3    H131656   1.206   2.110  18.095  0.0713 -1.0277  0.0224
 2487TIP3    H231657   1.351   2.121  18.053 -0.6946 -1.5712 -3.0011
 2488TIP3   OH231658   6.432   1.191  18.460  0.7193 -0.0793 -0.0969
 2488TIP3    H131659   6.471   1.267  18.503  2.1365 -0.6588 -0.2698
 2488TIP3    H231660   6.390   1.226  18.382  3.2759  0.3484 -1.3957
 2489TIP3   OH231661   2.817   2.906  18.186  0.2454  0.3213  0.0464
 2489TIP3    H131662   2.783   2.927  18.273  1.4763  0.6165  0.4873
 2489TIP3    H231663   2.825   2.811  18.187  0.1028  0.3092  0.1996
 2490TIP3   OH231664   4.540   4.959  17.570 -0.1845 -0.3668 -0.2463
 2490TIP3    H131665   4.450   4.988  17.585  0.5419  1.2704  1.5381
 2490TIP3    H231666   4.542   4.869  17.601 -0.6384  0.4752  2.5609
 2491TIP3   OH231667   5.714   3.293  18.258  0.1959  0.3476  0.0270
 2491TIP3    H131668   5.781   3.356  18.234  0.3754  0.8567  1.7277
 2491TIP3    H231669   5.633   3.344  18.265  0.0398  0.1124 -0.0341
 2492TIP3   OH231670   4.808   0.059  17.446  0.6634 -0.2691  0.4814
 2492TIP3    H131671   4.901   0.044  17.466  0.6957  0.1376  0.6454
 2492TIP3    H231672   4.765   0.063  17.532  0.4981 -0.4296  0.4070
 2493TIP3   OH231673   4.104   1.317  18.447  0.3057  0.2158  0.4814
 2493TIP3    H131674   4.155   1.344  18.370 -0.7608  0.1861 -0.2580
 2493TIP3    H231675   4.072   1.399  18.484  1.9386  0.3332  1.7249
 2494TIP3   OH231676   8.158   0.736  18.831  0.2830 -0.1600 -0.3915
 2494TIP3    H131677   8.111   0.805  18.784  1.2628  0.6776 -0.1896
 2494TIP3    H231678   8.106   0.722  18.911 -0.4793 -0.4085 -0.9157
 2495TIP3   OH231679   3.360   3.080  17.939 -0.0153  0.1507  0.4006
 2495TIP3    H131680   3.284   3.081  17.997 -1.7326 -0.1791 -1.7097
 2495TIP3    H231681   3.396   2.991  17.947  0.5115  0.4630  1.7876
 2496TIP3   OH231682   7.454   7.746  16.731  0.1692 -0.3472  0.2441
 2496TIP3    H131683   7.448   7.713  16.642 -0.8904  1.9002 -0.6011
 2496TIP3    H231684   7.538   7.790  16.735 -0.2673  0.5453 -0.0569
 2497TIP3   OH231685   7.186   3.888  18.430 -0.1128 -0.1715 -0.5761
 2497TIP3    H131686   7.265   3.895  18.484 -0.0977  0.6268 -0.6972
 2497TIP3    H231687   7.126   3.836  18.484 -0.3132  1.1071  0.4895
 2498TIP3   OH231688   6.872   5.151  17.423 -0.1948  0.0625 -0.2397
 2498TIP3    H131689   6.781   5.122  17.422 -0.0562 -0.4019 -1.3142
 2498TIP3    H231690   6.901   5.136  17.513 -0.5225 -1.9859 -0.4107
 2499TIP3   OH231691   0.215   5.766  17.297  0.1899  0.2719  0.5644
 2499TIP3    H131692   0.265   5.786  17.377  1.2382  1.8975 -0.4358
 2499TIP3    H231693   0.218   5.671  17.291 -0.4923  0.0511  2.7959
 2500TIP3   OH231694   8.157   4.187  18.268 -0.5218 -0.0842 -0.0844
 2500TIP3    H131695   8.098   4.261  18.283  1.2205  1.6394 -1.2628
 2500TIP3    H231696   8.172   4.187  18.174  0.6939 -0.9949  0.0865
 2501TIP3   OH231697   3.085   5.769  17.835 -0.2800  0.0640  0.5757
 2501TIP3    H131698   3.173   5.767  17.798 -0.5388  2.5435 -0.3461
 2501TIP3    H231699   3.062   5.677  17.847  2.4490 -0.6503  0.9375
 2502TIP3   OH231700   7.780   1.652  17.659  0.2981  0.4650  0.0494
 2502TIP3    H131701   7.757   1.707  17.734 -1.6593 -0.5092  0.2464
 2502TIP3    H231702   7.856   1.601  17.688  0.0299  0.6409  1.1040
 2503TIP3   OH231703   4.755   5.272  18.363 -0.2365  0.4924 -0.4135
 2503TIP3    H131704   4.767   5.351  18.416 -2.3938  1.1244 -0.7529
 2503TIP3    H231705   4.725   5.206  18.426  0.7411  0.1757 -0.2709
 2504TIP3   OH231706   8.343   2.833  18.449  0.0705 -0.0313 -0.1047
 2504TIP3    H131707   8.318   2.849  18.541  0.4071 -0.7018  0.1061
 2504TIP3    H231708   8.421   2.887  18.436 -0.3592  0.5775 -0.1952
 2505TIP3   OH231709   4.922   0.161  17.122 -0.2969  0.3363  0.0356
 2505TIP3    H131710   4.994   0.117  17.168 -0.9788 -0.1449  0.6758
 2505TIP3    H231711   4.861   0.090  17.101  0.1631  0.4861 -1.9690
 2506TIP3   OH231712   7.083   1.866  18.183 -0.2513 -0.1557 -0.2570
 2506TIP3    H131713   7.013   1.930  18.172  0.2068  0.3189 -0.4540
 2506TIP3    H231714   7.159   1.918  18.210  0.0152 -0.6658 -0.0200
 2507TIP3   OH231715   8.088   4.153  17.779  0.2915  0.3554 -0.2595
 2507TIP3    H131716   8.007   4.146  17.829  1.3258 -0.7649  1.3981
 2507TIP3    H231717   8.065   4.204  17.702 -1.6354  1.3222  0.8747
 2508TIP3   OH231718   5.427   6.288  17.728 -0.1390 -0.3896 -0.1698
 2508TIP3    H131719   5.366   6.281  17.655 -3.3199  1.0611  2.1013
 2508TIP3    H231720   5.377   6.259  17.804  2.6902 -0.9299  1.6347
 2509TIP3   OH231721   7.778   6.542  18.592 -0.7730 -0.4679  0.0373
 2509TIP3    H131722   7.860   6.517  18.549 -0.2898 -0.1079  0.7347
 2509TIP3    H231723   7.802   6.615  18.648 -1.7930  0.3742 -0.5776
 2510TIP3   OH231724   8.181   4.794  17.551 -0.1627 -0.0102 -0.4967
 2510TIP3    H131725   8.179   4.749  17.635  0.3393  0.9347  0.0295
 2510TIP3    H231726   8.250   4.859  17.560  1.7324 -1.5627 -2.4868
 2511TIP3   OH231727   7.683   6.484  18.245 -0.0370 -0.2663 -0.2310
 2511TIP3    H131728   7.650   6.508  18.332  0.8271  1.8604 -0.4502
 2511TIP3    H231729   7.613   6.508  18.185  1.4526  3.8463 -0.6485
 2512TIP3   OH231730   1.156   1.428  18.420  0.0067  0.1998 -0.1378
 2512TIP3    H131731   1.070   1.396  18.394  0.3225 -0.2467 -0.6367
 2512TIP3    H231732   1.209   1.349  18.434  0.5475  0.4797 -0.5505
 2513TIP3   OH231733   1.987   5.209  17.055  0.8347  0.1234 -0.0648
 2513TIP3    H131734   1.971   5.271  16.984  3.0798  0.5610 -0.2569
 2513TIP3    H231735   1.986   5.123  17.013  1.3269  0.3178 -0.4783
 2514TIP3   OH231736   7.488   6.009  18.380  0.1251  0.1054 -0.0223
 2514TIP3    H131737   7.548   6.015  18.455  0.0027  0.3035  0.0618
 2514TIP3    H231738   7.441   5.927  18.394  0.3334 -0.0212 -0.0569
 2515TIP3   OH231739   6.680   7.462  17.110  0.3811 -0.5363 -0.1628
 2515TIP3    H131740   6.676   7.377  17.154  2.8555 -0.1012  1.1062
 2515TIP3    H231741   6.679   7.526  17.182  0.2028  0.4243 -0.9974
 2516TIP3   OH231742   7.215   7.220  17.429  0.6971  0.0089  0.3110
 2516TIP3    H131743   7.181   7.282  17.493 -1.3399 -0.1099 -0.5879
 2516TIP3    H231744   7.230   7.272  17.350  1.5556 -0.1590  0.3559
 2517TIP3   OH231745   0.939   1.740  18.228  0.3025  0.1873 -0.1872
 2517TIP3    H131746   1.023   1.735  18.274  0.1836  0.2124  0.0346
 2517TIP3    H231747   0.957   1.794  18.151  0.8986 -1.1705 -1.0402
 2518TIP3   OH231748   3.839   6.012  16.598  0.8947 -0.7142  0.4884
 2518TIP3    H131749   3.795   6.060  16.528  0.6808  1.2035  1.8761
 2518TIP3    H231750   3.917   5.975  16.556  0.4507 -0.1341 -0.9050
 2519TIP3   OH231751   0.754   6.540  17.391  0.2741 -0.1182  0.0984
 2519TIP3    H131752   0.685   6.550  17.325 -0.2490  0.0439  0.6659
 2519TIP3    H231753   0.818   6.482  17.349 -0.2968 -0.4336 -0.3620
 2520TIP3   OH231754   6.647   4.613  16.508  0.7377  0.3525 -0.3412
 2520TIP3    H131755   6.573   4.552  16.506  1.9869 -1.3759 -4.4804
 2520TIP3    H231756   6.612   4.694  16.471  0.3388  0.3755  0.0838
 2521TIP3   OH231757   4.310   1.043  18.234  0.5517 -0.6649 -0.0244
 2521TIP3    H131758   4.392   1.021  18.189 -0.2620  0.2130 -2.0559
 2521TIP3    H231759   4.324   1.132  18.267  0.6186 -0.7529  0.1915
 2522TIP3   OH231760   8.058   7.111  17.581  0.2117  0.6581 -0.2387
 2522TIP3    H131761   8.078   7.024  17.616  0.0461  0.7625  0.1245
 2522TIP3    H231762   8.103   7.171  17.640 -0.4959  0.8576  0.1080
 2523TIP3   OH231763   0.463   5.234  17.296  0.1302  0.0998 -0.6158
 2523TIP3    H131764   0.507   5.159  17.257  0.6605  0.1313 -0.0979
 2523TIP3    H231765   0.407   5.269  17.226 -0.5384 -1.0921 -0.6995
 2524TIP3   OH231766   1.654   7.190  18.896 -0.2447  0.8871  0.6555
 2524TIP3    H131767   1.714   7.155  18.962  1.3844  3.3139  0.5755
 2524TIP3    H231768   1.698   7.174  18.812  0.5652  3.0044  0.6199
 2525TIP3   OH231769   7.043   1.156  17.193  0.5517 -0.1947 -0.4011
 2525TIP3    H131770   7.026   1.148  17.287  2.1394  0.8368  0.0116
 2525TIP3    H231771   6.966   1.116  17.152 -0.6464  0.2100  1.3108
 2526TIP3   OH231772   6.237   6.232  18.731 -0.0989  0.9206  0.0829
 2526TIP3    H131773   6.268   6.142  18.720 -2.0562  0.2787 -0.6929
 2526TIP3    H231774   6.311   6.286  18.704  0.9138 -0.4634 -0.0413
 2527TIP3   OH231775   4.787   1.960  17.902 -0.4496 -0.0173  0.0396
 2527TIP3    H131776   4.862   1.977  17.958 -0.0436 -0.3344 -0.4033
 2527TIP3    H231777   4.792   2.026  17.833  0.0516 -0.7020 -0.6026
 2528TIP3   OH231778   8.384   2.130  17.252 -0.2062 -0.4282  0.1610
 2528TIP3    H131779   8.420   2.068  17.316  0.0125 -0.6619 -0.1812
 2528TIP3    H231780   8.311   2.083  17.212 -0.9268  0.0627  0.8841
 2529TIP3   OH231781   0.553   4.707  19.054  0.0378  0.4358 -0.1334
 2529TIP3    H131782   0.619   4.727  18.988 -0.7052  1.0476 -0.7120
 2529TIP3    H231783   0.487   4.775  19.043 -0.0661  0.5868  1.2972
 2530TIP3   OH231784   5.681   4.496  19.158 -0.3793  0.5105  0.0583
 2530TIP3    H131785   5.600   4.457  19.191  0.7376 -0.2755  2.0259
 2530TIP3    H231786   5.661   4.589  19.148 -1.0122  0.7038  2.4479
 2531TIP3   OH231787   2.482   0.028  17.358  0.2234  0.3533  0.0391
 2531TIP3    H131788   2.539   0.010  17.283  0.9876  3.2758 -0.1920
 2531TIP3    H231789   2.542   0.053  17.428 -0.5952 -0.6687  1.1395
 2532TIP3   OH231790   5.199   1.697  17.545 -0.1704  0.2340  0.3493
 2532TIP3    H131791   5.193   1.754  17.468 -2.1970 -1.0527 -0.5413
 2532TIP3    H231792   5.225   1.612  17.510 -1.8928 -0.5732  0.8958
 2533TIP3   OH231793   2.605   6.699  18.226 -0.2164  0.0312  0.3916
 2533TIP3    H131794   2.523   6.694  18.176  0.4382  1.3359 -0.8770
 2533TIP3    H231795   2.673   6.682  18.161  0.6637  1.7459  0.8232
 2534TIP3   OH231796   4.542   0.498  18.331  0.2051 -0.4482 -0.5159
 2534TIP3    H131797   4.581   0.547  18.403 -0.2789  0.0786 -0.6005
 2534TIP3    H231798   4.517   0.565  18.267 -0.4723 -0.7995 -0.6301
 2535TIP3   OH231799   6.399   6.503  17.316  0.0335  0.0256  0.1753
 2535TIP3    H131800   6.354   6.573  17.270  0.8858  0.7382  0.4016
 2535TIP3    H231801   6.474   6.545  17.358 -0.4164 -0.6850  1.7977
 2536TIP3   OH231802   0.010   4.762  18.197 -0.8184 -0.2780  0.1584
 2536TIP3    H131803   0.044   4.673  18.206 -1.5189 -0.5075  0.6857
 2536TIP3    H231804  -0.033   4.764  18.112 -2.3465 -1.0056  0.8787
 2537TIP3   OH231805   0.244   6.441  18.101  0.2379  0.1236  0.1522
 2537TIP3    H131806   0.262   6.367  18.158 -1.1105 -0.2282  0.1679
 2537TIP3    H231807   0.238   6.516  18.159  0.4769  0.0484  0.2735
 2538TIP3   OH231808   4.314   7.184  17.733 -0.6460 -0.1244 -0.3953
 2538TIP3    H131809   4.392   7.128  17.735  0.1647  0.9785  1.0091
 2538TIP3    H231810   4.274   7.172  17.819 -0.9006  0.8359 -0.3667
 2539TIP3   OH231811   0.877   0.041  18.877 -0.0143  0.1097 -0.2780
 2539TIP3    H131812   0.858   0.135  18.876  0.3419  0.1838 -0.8362
 2539TIP3    H231813   0.810   0.003  18.821 -0.8323 -0.1128  0.8410
 2540TIP3   OH231814   1.554   7.090  17.146 -0.1620 -0.3331  0.1662
 2540TIP3    H131815   1.508   7.027  17.091  0.7409 -1.9210  1.1604
 2540TIP3    H231816   1.573   7.043  17.227  0.8041  1.1303  0.8466
 2541TIP3   OH231817   7.602   2.844  17.751 -0.0823  0.1140  0.0740
 2541TIP3    H131818   7.568   2.778  17.690  1.2493 -1.4119  0.8975
 2541TIP3    H231819   7.580   2.810  17.838  0.3461  0.9384  0.5172
 2542TIP3   OH231820   5.806   0.681  18.310 -0.1523 -0.3954  0.4446
 2542TIP3    H131821   5.829   0.722  18.393 -0.6667 -1.4539  1.1260
 2542TIP3    H231822   5.877   0.705  18.250  1.3232 -1.3513  1.7511
 2543TIP3   OH231823   4.203   4.970  16.812 -0.3357  0.3324  0.0324
 2543TIP3    H131824   4.214   4.904  16.880  1.3547  0.0698 -0.4629
 2543TIP3    H231825   4.278   5.028  16.822 -0.6380  0.9161 -0.9415
 2544TIP3   OH231826   6.192   1.627  18.008  0.0276  0.1087  0.3169
 2544TIP3    H131827   6.265   1.601  18.064  1.1628  0.6185 -0.8650
 2544TIP3    H231828   6.174   1.550  17.955 -0.7806 -0.2426  1.0734
 2545TIP3   OH231829   8.060   7.706  17.743 -0.0226  0.1971 -0.5704
 2545TIP3    H131830   8.062   7.653  17.664  0.5551 -1.8232  0.7114
 2545TIP3    H231831   8.141   7.757  17.740  0.1665 -0.1330 -1.1122
 2546TIP3   OH231832   8.241   2.040  17.495  0.4896 -0.0466  0.1166
 2546TIP3    H131833   8.298   2.071  17.565  0.7148 -0.8225  0.2837
 2546TIP3    H231834   8.299   1.991  17.437  0.1181 -0.2680 -0.0695
 2547TIP3   OH231835   6.811   4.161  18.286  0.4679 -0.2029  0.4995
 2547TIP3    H131836   6.898   4.126  18.265 -0.2595 -1.8195  0.0170
 2547TIP3    H231837   6.817   4.254  18.265  1.2286 -0.8075 -2.3588
 2548TIP3   OH231838   6.832   8.030  17.440 -0.2428  0.2077  0.4319
 2548TIP3    H131839   6.767   7.971  17.477 -1.7986  0.8490 -1.1435
 2548TIP3    H231840   6.873   7.979  17.369 -1.0322  0.6891 -0.4046
 2549TIP3   OH231841   4.332   1.561  17.263 -0.2217  0.0917  0.2910
 2549TIP3    H131842   4.312   1.590  17.352 -1.2647 -1.0517  0.4467
 2549TIP3    H231843   4.282   1.481  17.251  2.7041 -1.8393 -0.0559
 2550TIP3   OH231844   5.113   0.626  17.856  0.3893  0.1565  0.1165
 2550TIP3    H131845   5.124   0.555  17.919  2.1301  1.0466  0.8909
 2550TIP3    H231846   5.067   0.694  17.904 -1.0201 -0.2832 -0.5421
 2551TIP3   OH231847   6.679   1.109  16.954 -0.5355 -0.0967 -0.2696
 2551TIP3    H131848   6.722   1.062  17.025 -0.7635  0.5109  0.2739
 2551TIP3    H231849   6.588   1.081  16.958 -1.2637  2.2739  1.6998
 2552TIP3   OH231850   2.693   3.880  16.920  0.4297  0.9368 -0.2397
 2552TIP3    H131851   2.675   3.913  16.832 -0.3763  0.5840 -0.2157
 2552TIP3    H231852   2.787   3.866  16.921  0.1372 -2.2702 -2.2292
 2553TIP3   OH231853   0.223   2.944  18.706  0.8425 -0.2092  0.0724
 2553TIP3    H131854   0.208   2.935  18.612  1.6673 -1.1754  0.0201
 2553TIP3    H231855   0.154   3.004  18.735  0.1238 -0.4732 -1.0213
 2554TIP3   OH231856   3.440   0.779  16.736 -0.2610 -0.0529  0.8070
 2554TIP3    H131857   3.452   0.864  16.779 -0.4665  0.9556 -1.0063
 2554TIP3    H231858   3.527   0.754  16.708 -0.4323  0.4404 -0.1958
 2555TIP3   OH231859   7.256   2.695  16.927 -0.2457 -0.0138  0.8298
 2555TIP3    H131860   7.261   2.601  16.940  0.0849 -0.1113  0.0868
 2555TIP3    H231861   7.163   2.716  16.934 -0.2538 -0.2911  1.6149
 2556TIP3   OH231862   1.637   5.939  17.288 -0.6734 -0.1585 -0.3766
 2556TIP3    H131863   1.610   5.969  17.375 -0.9696 -0.6176 -0.3077
 2556TIP3    H231864   1.697   6.006  17.257 -0.6521  0.0633  0.1409
 2557TIP3   OH231865   3.025   5.229  18.781  0.0890 -0.4025 -0.0759
 2557TIP3    H131866   2.940   5.272  18.782 -0.0330 -0.6020 -0.9794
 2557TIP3    H231867   3.084   5.291  18.825 -0.4779 -0.1903  0.3926
 2558TIP3   OH231868   6.293   5.632  16.273  0.1414 -0.0548  0.0328
 2558TIP3    H131869   6.348   5.681  16.335 -0.7115 -0.5830  1.2530
 2558TIP3    H231870   6.204   5.663  16.290 -0.0245  0.3854 -1.5287
 2559TIP3   OH231871   6.830   1.583  18.393 -0.4122  0.7011  0.5456
 2559TIP3    H131872   6.809   1.492  18.412  0.7293  0.1564 -0.7091
 2559TIP3    H231873   6.925   1.588  18.400 -0.5764  2.2703  2.4992
 2560TIP3   OH231874   2.385   2.751  17.667 -0.9262 -0.0315 -0.0857
 2560TIP3    H131875   2.336   2.670  17.654  1.0697 -1.1577 -0.9240
 2560TIP3    H231876   2.317   2.818  17.674 -2.6235 -1.6603  0.0168
 2561TIP3   OH231877   0.102   5.643  18.724 -0.3862  0.3916  0.3246
 2561TIP3    H131878   0.039   5.603  18.783 -2.2255  0.3399 -1.5829
 2561TIP3    H231879   0.147   5.568  18.683 -0.4865  0.3907  0.2180
 2562TIP3   OH231880   4.993   1.045  17.369 -0.0435  0.1344  0.7102
 2562TIP3    H131881   4.937   1.073  17.296  0.9316  1.9390  0.6228
 2562TIP3    H231882   5.024   0.958  17.342 -2.4959 -0.8225  0.6247
 2563TIP3   OH231883   5.280   1.732  16.387 -0.6324 -0.7991 -0.3404
 2563TIP3    H131884   5.357   1.743  16.331  2.8100 -1.6630  3.7025
 2563TIP3    H231885   5.242   1.820  16.393  0.4635 -0.1796 -1.8205
 2564TIP3   OH231886   8.387   2.177  17.712 -0.1502  0.1190 -0.6632
 2564TIP3    H131887   8.474   2.149  17.740  0.1011  0.1724 -1.3804
 2564TIP3    H231888   8.360   2.240  17.779 -0.4634 -1.3206  0.6132
 2565TIP3   OH231889   7.165   7.356  17.201 -0.1742 -0.8010 -0.3483
 2565TIP3    H131890   7.086   7.384  17.247 -0.6653 -1.7930 -0.5501
 2565TIP3    H231891   7.138   7.277  17.154  1.0308 -1.3693 -0.1179
 2566TIP3   OH231892   6.623   7.500  17.827  0.3685 -0.2399 -0.0553
 2566TIP3    H131893   6.603   7.524  17.917  1.5642  0.5049  0.0376
 2566TIP3    H231894   6.573   7.562  17.774 -0.4360 -0.7594  0.0716
 2567TIP3   OH231895   4.165   0.280  18.082 -0.2136  0.4707 -0.1990
 2567TIP3    H131896   4.080   0.268  18.039  0.0697 -0.6447 -0.4725
 2567TIP3    H231897   4.146   0.335  18.158 -1.7380 -2.1352  1.4742
 2568TIP3   OH231898   6.322   6.498  18.016 -0.0685 -1.0304 -0.3482
 2568TIP3    H131899   6.321   6.434  17.945  1.0191  1.1646 -2.4936
 2568TIP3    H231900   6.402   6.549  18.001 -0.0193 -0.2025  2.2484
 2569TIP3   OH231901   2.820   5.389  18.761 -0.2032 -0.9448  0.2614
 2569TIP3    H131902   2.762   5.449  18.714 -0.7460 -1.5059  0.1919
 2569TIP3    H231903   2.782   5.382  18.848 -0.2449 -1.3144  0.2161
 2570TIP3   OH231904   5.449   6.769  17.504  0.3025  1.0916 -0.3543
 2570TIP3    H131905   5.537   6.740  17.481  0.9541  2.6021  0.0778
 2570TIP3    H231906   5.418   6.705  17.568  1.2678  0.7957 -0.1630
 2571TIP3   OH231907   6.295   0.273  18.507 -0.5806  0.1898 -0.1190
 2571TIP3    H131908   6.389   0.293  18.503 -0.3903 -0.7000 -0.2511
 2571TIP3    H231909   6.252   0.358  18.495  0.2056  0.5999 -0.0954
 2572TIP3   OH231910   7.321   4.470  19.330  0.2924 -0.5488  0.7539
 2572TIP3    H131911   7.359   4.453  19.417  1.0777 -0.3004  0.4659
 2572TIP3    H231912   7.369   4.546  19.297 -2.2234  1.5093  1.4538
 2573TIP3   OH231913   2.926   4.675  17.235  0.1816  0.0274 -0.3895
 2573TIP3    H131914   3.013   4.654  17.201 -0.5693 -1.4689 -1.4985
 2573TIP3    H231915   2.929   4.649  17.327  0.8149 -0.2924 -0.5001
 2574TIP3   OH231916   5.279   0.344  18.298 -0.6661  0.1310  0.1808
 2574TIP3    H131917   5.299   0.338  18.391 -0.1028 -1.4642 -0.0164
 2574TIP3    H231918   5.301   0.258  18.263  0.8073  1.2299 -1.7542
 2575TIP3   OH231919   5.630   1.301  16.617  0.3068  0.0078 -0.1491
 2575TIP3    H131920   5.709   1.251  16.638  0.6484 -0.0633 -1.5415
 2575TIP3    H231921   5.606   1.342  16.701  1.0061 -1.0810  0.6199
 2576TIP3   OH231922   6.741   4.611  18.039 -0.7985  0.0144 -0.0737
 2576TIP3    H131923   6.769   4.550  17.971 -2.9021 -0.3756 -0.6858
 2576TIP3    H231924   6.681   4.559  18.093 -0.7790  0.8990  0.8096
 2577TIP3   OH231925   3.567   6.207  17.325 -0.3024  0.3686  0.4505
 2577TIP3    H131926   3.652   6.197  17.282 -0.6592 -0.7160 -0.0140
 2577TIP3    H231927   3.585   6.189  17.418  0.2640  1.7058  0.6307
 2578TIP3   OH231928   1.504   0.271  17.836  0.4526  0.6200 -0.4039
 2578TIP3    H131929   1.446   0.315  17.898  0.1364  1.0337 -0.9860
 2578TIP3    H231930   1.467   0.183  17.827  0.6276  0.4806  0.1487
 2579TIP3   OH231931   6.556   0.782  17.521 -0.1312 -0.1968 -0.0284
 2579TIP3    H131932   6.467   0.764  17.490  0.1981 -3.0199  0.3811
 2579TIP3    H231933   6.610   0.716  17.477  1.0408 -1.3426  2.9043
 2580TIP3   OH231934   4.223   2.796  18.669 -0.0303 -0.5822  0.1334
 2580TIP3    H131935   4.177   2.715  18.647  1.1693 -1.1034 -0.5843
 2580TIP3    H231936   4.157   2.864  18.662 -0.7957 -1.3655 -0.4018
 2581TIP3   OH231937   7.651   2.607  17.146 -0.3985 -0.0642  0.4484
 2581TIP3    H131938   7.615   2.652  17.070  0.3902 -0.1346  0.0273
 2581TIP3    H231939   7.629   2.665  17.220 -0.4374  0.4225  0.0637
 2582TIP3   OH231940   5.042   4.792  18.856 -0.0217 -0.3078 -0.4615
 2582TIP3    H131941   5.056   4.704  18.891  1.7858 -0.4826 -1.4882
 2582TIP3    H231942   4.974   4.780  18.789 -0.7025 -0.6654  0.2725
 2583TIP3   OH231943   4.415   2.243  18.371 -0.3174  0.4818 -0.6015
 2583TIP3    H131944   4.491   2.301  18.365 -0.1694  0.5923  1.5107
 2583TIP3    H231945   4.451   2.158  18.396 -0.8787  0.7774  1.4661
 2584TIP3   OH231946   1.702   4.262  18.695  0.3414  0.2847  0.6711
 2584TIP3    H131947   1.684   4.272  18.602  0.3125 -1.8946  0.3901
 2584TIP3    H231948   1.636   4.200  18.726  1.4104 -0.3644  1.7456
 2585TIP3   OH231949   0.731   3.690  17.785  0.1702 -0.2254  0.0045
 2585TIP3    H131950   0.675   3.766  17.800  1.5263  0.7114  0.6678
 2585TIP3    H231951   0.767   3.703  17.697  2.8626  1.7196  1.2218
 2586TIP3   OH231952   2.903   5.180  18.443  0.5801 -0.2740 -0.3353
 2586TIP3    H131953   2.992   5.165  18.476  0.1857  0.5777  1.2317
 2586TIP3    H231954   2.900   5.274  18.426  0.0780 -0.3545 -0.6979
 2587TIP3   OH231955   0.234   2.984  17.524 -0.5444 -0.2159 -0.2698
 2587TIP3    H131956   0.151   3.018  17.557 -0.6136 -0.3149 -0.3418
 2587TIP3    H231957   0.273   3.058  17.478  0.5698  0.6089  1.8753
 2588TIP3   OH231958   1.063   4.232  18.453  0.2182 -0.3241  0.4449
 2588TIP3    H131959   1.141   4.177  18.450  0.5204  0.0547  1.1104
 2588TIP3    H231960   1.004   4.194  18.388  1.9238  0.9119 -1.9898
 2589TIP3   OH231961   6.492   4.858  18.226  0.0529  0.2697 -0.1164
 2589TIP3    H131962   6.449   4.880  18.143 -0.4172 -0.3901 -0.0563
 2589TIP3    H231963   6.581   4.892  18.217 -0.4448  1.5864 -0.2861
 2590TIP3   OH231964   7.108   2.836  17.782  0.1121  0.1009  0.2217
 2590TIP3    H131965   7.118   2.866  17.692  0.1225 -1.0954 -0.1908
 2590TIP3    H231966   7.087   2.915  17.831 -0.4425  0.6846 -0.9186
 2591TIP3   OH231967   2.592   0.294  18.622  0.2791 -0.1467 -0.0430
 2591TIP3    H131968   2.514   0.346  18.640 -0.2266 -0.8598 -0.1507
 2591TIP3    H231969   2.562   0.203  18.623  0.8154 -0.3784 -1.4957
 2592TIP3   OH231970   1.062   8.324  18.826 -0.2618  0.3543  0.0260
 2592TIP3    H131971   1.016   8.242  18.843 -2.6677  1.5256 -0.4033
 2592TIP3    H231972   1.005   8.392  18.864  2.1908  1.8064  1.3965
 2593TIP3   OH231973   4.790   4.127  18.055 -0.2132  0.1048 -0.3419
 2593TIP3    H131974   4.801   4.222  18.048  1.8510 -0.0215  0.4420
 2593TIP3    H231975   4.788   4.096  17.964 -1.7897  0.9460 -0.6257
 2594TIP3   OH231976   2.305   6.582  18.859 -0.3318  0.2369 -0.2941
 2594TIP3    H131977   2.362   6.641  18.907 -2.5038  1.5181  0.8924
 2594TIP3    H231978   2.305   6.500  18.909 -0.5401  0.6838  0.4456
 2595TIP3   OH231979   1.202   4.289  17.092 -0.2081  0.0432 -0.0298
 2595TIP3    H131980   1.137   4.242  17.143 -0.9716  1.6281  0.5185
 2595TIP3    H231981   1.198   4.379  17.124 -0.0681  0.9052 -2.2388
 2596TIP3   OH231982   1.553   5.463  18.518  0.0747  0.3334 -0.1056
 2596TIP3    H131983   1.517   5.544  18.553  0.0977  0.5053 -0.4758
 2596TIP3    H231984   1.633   5.490  18.473  1.5577 -0.2371  2.0372
 2597TIP3   OH231985   4.515   2.581  18.264 -0.2811  0.1121 -0.3667
 2597TIP3    H131986   4.591   2.533  18.294  1.4410  1.4067 -2.3841
 2597TIP3    H231987   4.488   2.634  18.340  0.0764 -1.1937  0.7079
 2598TIP3   OH231988   3.182   0.806  17.660  0.0568 -0.3562  0.1587
 2598TIP3    H131989   3.165   0.751  17.736  1.5151 -1.0155  0.0525
 2598TIP3    H231990   3.255   0.862  17.688  0.0469 -0.0192 -0.4820
 2599TIP3   OH231991   2.677   5.886  18.350 -0.4430 -0.0872 -0.3735
 2599TIP3    H131992   2.643   5.917  18.266  1.5124  1.6367 -0.6140
 2599TIP3    H231993   2.757   5.937  18.364 -1.0483  0.1868  2.8941
 2600TIP3   OH231994   5.618   3.920  17.535 -0.3030 -0.4465 -0.0047
 2600TIP3    H131995   5.599   3.882  17.621 -0.2259 -0.5333 -0.0255
 2600TIP3    H231996   5.631   3.845  17.477 -0.1409 -0.3895 -0.0447
 2601TIP3   OH231997   4.075   0.544  17.797 -0.0886  0.5468 -0.3361
 2601TIP3    H131998   4.028   0.618  17.759 -2.1104 -0.1835  0.5857
 2601TIP3    H231999   4.097   0.573  17.886  0.2939  0.4897 -0.4064
 2602TIP3   OH232000   4.836   3.085  18.072  0.0155  0.5360  0.0917
 2602TIP3    H132001   4.753   3.038  18.061  0.7250 -0.3729 -1.7587
 2602TIP3    H232002   4.843   3.141  17.995  2.0570 -0.9702 -0.9111
 2603TIP3   OH232003   0.176   6.069  18.042 -0.1637 -0.2093  0.3247
 2603TIP3    H132004   0.158   6.078  17.948 -1.2345 -1.4221  0.3842
 2603TIP3    H232005   0.091   6.049  18.081  0.5954 -1.8581  1.2460
 2604TIP3   OH232006   4.977   5.064  16.955 -0.2444  0.2549 -0.0224
 2604TIP3    H132007   4.887   5.029  16.959 -0.5954  1.1683  0.2331
 2604TIP3    H232008   4.969   5.153  16.988  0.8243  0.2307  0.3152
 2605TIP3   OH232009   6.861   6.246  18.174  0.1669  0.1114 -0.0883
 2605TIP3    H132010   6.922   6.236  18.247 -0.4523  0.5781  0.5048
 2605TIP3    H232011   6.779   6.276  18.215 -0.7851 -1.4920 -0.7274
 2606TIP3   OH232012   6.519   4.589  18.304  0.3230  0.2354 -0.0986
 2606TIP3    H132013   6.496   4.678  18.280 -1.4207  0.5500  2.3189
 2606TIP3    H232014   6.448   4.535  18.268 -0.9975  0.4258  2.0577
 2607TIP3   OH232015   5.523   5.886  19.138  0.7259  0.3557  0.2079
 2607TIP3    H132016   5.462   5.822  19.100  1.0792 -0.6646  1.2987
 2607TIP3    H232017   5.509   5.966  19.087 -1.5907  0.1834  0.4677
 2608TIP3   OH232018   1.157   4.592  17.952  0.1234 -0.2594 -0.3113
 2608TIP3    H132019   1.176   4.601  17.858 -1.3834  1.0541 -0.5407
 2608TIP3    H232020   1.234   4.629  17.995  0.7790 -0.7633 -1.0337
 2609TIP3   OH232021   8.207   4.343  18.982  0.3410  0.4252  0.0079
 2609TIP3    H132022   8.177   4.433  18.972  0.7933  0.6134  0.3338
 2609TIP3    H232023   8.297   4.343  18.950  0.6386  0.2882  0.8091
 2610TIP3   OH232024   6.691   0.439  17.633  0.2424 -0.1772  0.5167
 2610TIP3    H132025   6.705   0.474  17.546 -1.6325 -0.7683 -0.0875
 2610TIP3    H232026   6.596   0.424  17.638  0.4596 -1.3727  2.1708
 2611TIP3   OH232027   8.305   7.827  17.690  0.2352  0.1885 -0.1321
 2611TIP3    H132028   8.383   7.777  17.667  0.8327  1.1217 -0.1813
 2611TIP3    H232029   8.325   7.863  17.777 -0.7604 -0.7973  0.5330
 2612TIP3   OH232030   6.908   2.039  17.762 -0.2364 -0.3437 -0.0045
 2612TIP3    H132031   6.994   2.078  17.749  0.5187 -1.9626 -0.2081
 2612TIP3    H232032   6.882   2.009  17.675 -1.7582  1.4916 -0.2476
 2613TIP3   OH232033   3.835   4.047  18.230  0.0281  0.9085  0.3092
 2613TIP3    H132034   3.890   3.973  18.258 -1.9688 -0.2888  1.2924
 2613TIP3    H232035   3.893   4.100  18.176  1.6011 -1.3011 -0.3524
 2614TIP3   OH232036   0.433   6.613  17.998 -0.3324  0.3256  0.1632
 2614TIP3    H132037   0.343   6.602  18.029 -0.2011  1.1083  0.8474
 2614TIP3    H232038   0.484   6.552  18.051 -0.5616 -0.7839 -0.8394
 2615TIP3   OH232039   8.031   1.552  18.091  0.3730 -0.3091 -0.2508
 2615TIP3    H132040   8.110   1.512  18.056  0.4993 -0.2460 -0.0406
 2615TIP3    H232041   8.063   1.628  18.140  0.2934 -1.0329  0.9446
 2616TIP3   OH232042   5.871   7.266  16.605 -0.1251 -0.1148 -0.1369
 2616TIP3    H132043   5.891   7.176  16.580 -1.2259 -0.3502 -0.2397
 2616TIP3    H232044   5.778   7.264  16.628  0.0730  0.7767  0.8583
 2617TIP3   OH232045   4.934   3.694  18.228  0.0845 -0.0527 -0.1482
 2617TIP3    H132046   4.911   3.605  18.200  0.9049  0.3631 -2.3373
 2617TIP3    H232047   5.015   3.683  18.279  1.6794 -0.3978 -2.5896
 2618TIP3   OH232048   2.949   4.294  18.691  0.1523 -0.3008 -0.3067
 2618TIP3    H132049   2.892   4.345  18.748 -1.6614  0.1983 -2.4414
 2618TIP3    H232050   2.890   4.253  18.628  1.8393 -2.7565 -0.4208
 2619TIP3   OH232051   5.484   0.270  17.721  0.0085 -0.0020  0.1803
 2619TIP3    H132052   5.541   0.326  17.775  0.2728 -0.2401  0.1496
 2619TIP3    H232053   5.403   0.264  17.770  0.1716 -0.0384  0.4472
 2620TIP3   OH232054   0.588   3.599  17.259  0.6667 -0.1712 -0.0831
 2620TIP3    H132055   0.569   3.529  17.323  0.7803  1.3991  1.7652
 2620TIP3    H232056   0.503   3.620  17.221 -0.0802  1.2447  2.1812
 2621TIP3   OH232057   5.810   0.330  17.972  0.0463  0.0911 -0.0569
 2621TIP3    H132058   5.726   0.293  18.001  0.8375 -0.8327  1.1435
 2621TIP3    H232059   5.799   0.425  17.982 -0.6417 -0.0553  0.6995
 2622TIP3   OH232060   7.646   4.407  16.929  0.0618 -0.4545  0.2807
 2622TIP3    H132061   7.726   4.385  16.976 -0.0904 -1.1153  0.2385
 2622TIP3    H232062   7.656   4.365  16.843 -0.8094 -1.5149  0.6674
 2623TIP3   OH232063   7.243   4.725  17.039  0.3348  0.0020 -0.4278
 2623TIP3    H132064   7.324   4.674  17.033  0.5664  0.3388 -0.1079
 2623TIP3    H232065   7.267   4.812  17.008  0.1657  0.1871 -0.0339
 2624TIP3   OH232066   3.487   7.730  18.401 -0.1929 -0.3193  0.4804
 2624TIP3    H132067   3.421   7.743  18.469  0.3857  0.7771  0.8572
 2624TIP3    H232068   3.496   7.635  18.394 -1.6150 -0.4848  0.5946
 2625TIP3   OH232069   8.188   0.697  18.136  0.0262 -0.9412 -0.8426
 2625TIP3    H132070   8.157   0.608  18.154  1.1739 -1.0120  1.0208
 2625TIP3    H232071   8.161   0.748  18.212  0.5944 -0.0134 -1.2481
 2626TIP3   OH232072   2.546   6.007  18.940  0.2558 -0.0630 -0.3629
 2626TIP3    H132073   2.486   6.041  18.873 -0.1683 -1.5949 -0.8101
 2626TIP3    H232074   2.632   6.040  18.914  0.2304 -1.2796 -2.1727
 2627TIP3   OH232075   7.052   4.213  18.765  0.0433 -0.6066  0.3642
 2627TIP3    H132076   7.148   4.209  18.767  0.0494 -0.2877  0.9271
 2627TIP3    H232077   7.030   4.229  18.673  0.4974 -1.4806  0.0911
 2628TIP3   OH232078   6.607   5.131  17.435  0.3317 -0.2944  0.5441
 2628TIP3    H132079   6.561   5.190  17.494 -1.4555 -0.3983 -0.6404
 2628TIP3    H232080   6.552   5.052  17.432  0.9269 -0.7003 -0.4148
 2629TIP3   OH232081   7.677   5.655  17.416 -0.4620  0.2072 -0.1543
 2629TIP3    H132082   7.600   5.607  17.387 -0.1589 -0.3248 -0.0933
 2629TIP3    H232083   7.688   5.629  17.507 -0.6201  0.8287  0.0450
 2630TIP3   OH232084   2.063   4.124  17.664  0.2989  0.0747 -0.3809
 2630TIP3    H132085   2.145   4.155  17.702 -1.0902  3.2830  0.3760
 2630TIP3    H232086   2.087   4.088  17.578  2.7055 -1.3025  0.7927
 2631TIP3   OH232087   0.072   3.256  18.508  0.0229  0.3371  0.4208
 2631TIP3    H132088   0.000   3.270  18.447 -0.5255 -1.5515  0.5847
 2631TIP3    H232089   0.095   3.163  18.498  0.2519  0.1047  2.7155
 2632TIP3   OH232090   5.522   0.378  17.336 -0.4746  0.4152 -0.7978
 2632TIP3    H132091   5.428   0.390  17.348 -0.4047  0.0251  0.2085
 2632TIP3    H232092   5.531   0.287  17.310 -0.2109 -0.1941  1.3093
 2633TIP3   OH232093   7.894   4.063  18.887 -0.5195 -0.2284 -0.1581
 2633TIP3    H132094   7.877   4.085  18.978 -0.4812  0.6709 -0.3640
 2633TIP3    H232095   7.924   3.972  18.890  1.2131  0.3350  0.9358
 2634TIP3   OH232096   1.156   7.208  18.925 -0.0069 -0.1258 -0.2241
 2634TIP3    H132097   1.126   7.298  18.929 -0.6709 -0.3765  0.9128
 2634TIP3    H232098   1.251   7.215  18.915  0.2759  0.7566  2.3688
 2635TIP3   OH232099   2.806   2.304  18.496  0.1973  0.1643  0.1011
 2635TIP3    H132100   2.764   2.390  18.496  0.7317  0.4508 -1.1322
 2635TIP3    H232101   2.762   2.256  18.566 -0.0653  1.4530  0.8600
 2636TIP3   OH232102   6.043   1.505  17.002 -0.1343 -0.3470  0.0255
 2636TIP3    H132103   5.988   1.447  16.950  0.9534 -0.7061 -0.7681
 2636TIP3    H232104   6.124   1.455  17.014 -0.5293 -0.5140  2.5350
 2637TIP3   OH232105   3.392   0.611  18.011  0.1135  0.5135  0.1057
 2637TIP3    H132106   3.362   0.681  18.068  0.9135  0.3389  0.7638
 2637TIP3    H232107   3.329   0.610  17.939  0.8839  2.8653 -0.6874
 2638TIP3   OH232108   3.338   5.736  17.703 -0.2881 -0.6493 -0.0747
 2638TIP3    H132109   3.375   5.696  17.624 -0.9521 -1.8489  0.1992
 2638TIP3    H232110   3.358   5.829  17.695 -0.1391 -0.7963 -1.5371
 2639TIP3   OH232111   5.604   3.088  17.152  0.2817  0.0455  0.1260
 2639TIP3    H132112   5.525   3.142  17.149  0.4161  0.2306 -0.0671
 2639TIP3    H232113   5.616   3.057  17.062  0.6565  0.3503  0.0678
 2640TIP3   OH232114   2.471   5.635  17.420 -0.1001  0.9125 -0.1810
 2640TIP3    H132115   2.564   5.617  17.413  0.0643  0.3261  2.4198
 2640TIP3    H232116   2.429   5.570  17.364  1.0137  1.0547 -1.2180
 2641TIP3   OH232117   7.205   6.582  16.948  0.5093 -0.6388  0.3395
 2641TIP3    H132118   7.264   6.559  16.876  2.2260  0.1175  1.4406
 2641TIP3    H232119   7.169   6.667  16.923  1.3333 -0.2361  0.4949
 2642TIP3   OH232120   3.786   5.964  17.265 -0.3377  0.0502 -0.0473
 2642TIP3    H132121   3.764   5.941  17.355  1.3502 -0.1999  0.3339
 2642TIP3    H232122   3.813   6.056  17.269  0.8501 -0.2780 -0.0594
 2643TIP3   OH232123   5.284   1.807  18.512 -0.6299 -0.1908  0.6239
 2643TIP3    H132124   5.215   1.869  18.539 -0.7458  1.3237 -2.6560
 2643TIP3    H232125   5.256   1.776  18.426  2.5609  0.2022 -0.6974
 2644TIP3   OH232126   5.486   2.642  18.430  0.1892  0.2697 -0.4233
 2644TIP3    H132127   5.568   2.620  18.475 -0.1102 -0.2401 -0.1242
 2644TIP3    H232128   5.485   2.738  18.429 -0.3948  0.3234  1.7681
 2645TIP3   OH232129   3.197   4.894  17.733  0.0698  0.0717  0.2153
 2645TIP3    H132130   3.234   4.900  17.646  1.0487 -1.1609  0.5124
 2645TIP3    H232131   3.113   4.849  17.720  0.3387 -0.3559 -0.0728
 2646TIP3   OH232132   3.491   0.720  17.326  0.2501 -0.1706 -0.0245
 2646TIP3    H132133   3.526   0.795  17.375  3.2411 -1.2385 -0.3150
 2646TIP3    H232134   3.508   0.742  17.234 -0.0279 -0.6675 -0.1942
 2647TIP3   OH232135   6.401   1.626  17.658 -0.1952  0.1369 -0.1402
 2647TIP3    H132136   6.398   1.535  17.686  0.5409  0.0729 -0.2460
 2647TIP3    H232137   6.483   1.634  17.610 -0.7387  0.6020 -1.0358
 2648TIP3   OH232138   2.036   5.393  17.244  0.7385  0.2062  0.2143
 2648TIP3    H132139   1.944   5.418  17.257  0.8133 -0.2042  1.7946
 2648TIP3    H232140   2.031   5.306  17.204  0.3993 -0.1634  1.0203
 2649TIP3   OH232141   3.208   1.765  17.311  0.0109  0.5867 -0.6616
 2649TIP3    H132142   3.288   1.788  17.264  1.2999 -0.5706  0.8731
 2649TIP3    H232143   3.211   1.819  17.390  0.2628 -0.7715  0.2952
 2650TIP3   OH232144   5.815   8.269  18.448 -0.1450 -0.4028 -0.2223
 2650TIP3    H132145   5.723   8.265  18.423 -0.4490  2.5455 -0.0066
 2650TIP3    H232146   5.820   8.219  18.529 -1.6548 -0.3228 -0.0460
 2651TIP3   OH232147   1.645   0.079  18.951  0.1703 -0.1009 -0.5036
 2651TIP3    H132148   1.630   0.139  19.024  1.4831 -0.6319  0.2354
 2651TIP3    H232149   1.635   0.134  18.873  0.9793  1.0091  0.1475
 2652TIP3   OH232150   0.815   2.389  18.323  0.2898 -0.1472  0.1732
 2652TIP3    H132151   0.901   2.431  18.329 -0.6224  1.7852  0.5223
 2652TIP3    H232152   0.822   2.332  18.247  1.9149 -0.1098  0.2522
 2653TIP3   OH232153   3.456   7.462  18.711 -0.0963  0.2070 -0.6594
 2653TIP3    H132154   3.488   7.418  18.633  0.8819  0.2826 -0.3073
 2653TIP3    H232155   3.535   7.491  18.757 -0.6465 -0.0612  0.4893
 2654TIP3   OH232156   6.619   5.946  18.115  0.1831 -0.4873  0.3293
 2654TIP3    H132157   6.679   5.969  18.044 -0.9846  1.5406 -0.0737
 2654TIP3    H232158   6.677   5.919  18.187  1.3905 -2.2804 -1.2435
 2655TIP3   OH232159   5.408   5.109  16.915 -0.1956  0.2709 -0.5397
 2655TIP3    H132160   5.405   5.155  16.831 -1.2863  1.3072  0.0594
 2655TIP3    H232161   5.340   5.042  16.908 -0.2493  0.3217 -0.5012
 2656TIP3   OH232162   6.022   7.570  18.305  0.6439 -0.3437 -0.0610
 2656TIP3    H132163   5.930   7.579  18.281  0.4452 -0.4492  0.6391
 2656TIP3    H232164   6.067   7.551  18.222  0.2113  0.8806 -0.6064
 2657TIP3   OH232165   8.444   4.747  17.329 -0.1200  0.2303  0.2401
 2657TIP3    H132166   8.529   4.778  17.299 -0.1011  0.6217  0.6948
 2657TIP3    H232167   8.381   4.812  17.297 -0.5389 -1.1445 -1.9615
 2658TIP3   OH232168   6.703   8.096  16.776 -0.4747 -0.2649 -0.9525
 2658TIP3    H132169   6.673   8.169  16.722  1.9460  0.5862 -1.2543
 2658TIP3    H232170   6.788   8.071  16.740  1.5792  0.7138  2.6665
 2659TIP3   OH232171   8.015   2.195  17.350  0.0537 -0.2560  0.4522
 2659TIP3    H132172   8.107   2.174  17.364  0.4239  0.7935 -0.2558
 2659TIP3    H232173   8.002   2.184  17.256 -0.9606 -1.8633  0.7448
 2660TIP3   OH232174   3.510   5.461  18.110  0.4878  0.0333 -0.2665
 2660TIP3    H132175   3.426   5.416  18.103 -0.1716  1.3154 -1.0393
 2660TIP3    H232176   3.561   5.430  18.036  0.4248 -0.2062 -0.2092
 2661TIP3   OH232177   6.647   0.093  18.492  0.1431 -0.0105 -0.2145
 2661TIP3    H132178   6.721   0.063  18.544 -0.2613  0.3021  0.5513
 2661TIP3    H232179   6.628   0.181  18.524 -1.8987 -0.8734  1.1181
 2662TIP3   OH232180   7.108   7.488  18.910  0.2994 -0.0793  0.0261
 2662TIP3    H132181   7.113   7.503  19.005 -0.6381 -1.9418  0.4243
 2662TIP3    H232182   7.190   7.444  18.889  0.5236  0.3670 -0.0495
 2663TIP3   OH232183   3.149   0.534  17.067 -0.1019 -0.0307 -0.2824
 2663TIP3    H132184   3.161   0.618  17.111  1.9819 -0.4088 -0.0227
 2663TIP3    H232185   3.139   0.557  16.975  1.7925  0.4736 -0.3995
 2664TIP3   OH232186   4.632   4.360  17.220  0.4772 -0.4151  0.5195
 2664TIP3    H132187   4.686   4.296  17.266  1.9070  0.7497  0.5272
 2664TIP3    H232188   4.609   4.425  17.287  2.5543  1.2802 -0.2966
 2665TIP3   OH232189   5.749   0.446  18.748 -0.6831 -0.2290  0.0239
 2665TIP3    H132190   5.787   0.411  18.829  1.2300  1.5702 -0.0179
 2665TIP3    H232191   5.731   0.368  18.695  1.4046 -1.2999  0.7515
 2666TIP3   OH232192   1.049   0.384  17.219  0.3908  0.2456  0.1400
 2666TIP3    H132193   1.093   0.469  17.230 -1.3201  1.1300  0.3752
 2666TIP3    H232194   0.993   0.396  17.143 -2.5116  0.5163  2.1851
 2667TIP3   OH232195   2.955   7.965  18.160 -0.7157 -0.1263 -0.2424
 2667TIP3    H132196   2.958   7.886  18.213 -0.0953  1.1375  1.7013
 2667TIP3    H232197   2.866   7.965  18.123  0.0682 -3.0138 -2.5019
 2668TIP3   OH232198   4.602   2.551  18.610  0.2113  0.3389  0.3619
 2668TIP3    H132199   4.676   2.610  18.600  0.4572  0.0074  0.2182
 2668TIP3    H232200   4.526   2.603  18.584  0.4621  0.5037 -0.0501
 2669TIP3   OH232201   3.208   2.090  18.742  0.4115  0.3904  0.1944
 2669TIP3    H132202   3.272   2.024  18.769 -0.0968 -0.3635 -0.4054
 2669TIP3    H232203   3.231   2.112  18.652 -0.4088 -0.1931 -0.1690
 2670TIP3   OH232204   0.939   7.133  18.753  0.2320 -0.0264  0.6811
 2670TIP3    H132205   0.880   7.207  18.738 -1.6660 -1.4891  0.4809
 2670TIP3    H232206   0.971   7.146  18.842 -1.3736  0.2003  1.2606
 2671TIP3   OH232207   5.222   3.246  18.035  0.3123 -0.0591  0.2549
 2671TIP3    H132208   5.203   3.183  18.104  2.3505 -0.5905  0.4105
 2671TIP3    H232209   5.312   3.226  18.009 -0.2282  0.3997 -2.2607
 2672TIP3   OH232210   3.653   3.713  18.669  0.4926 -0.4491  0.4014
 2672TIP3    H132211   3.571   3.705  18.718  0.5154 -1.0780  0.3424
 2672TIP3    H232212   3.696   3.628  18.680  1.8110  0.3318  1.6221
 2673TIP3   OH232213   5.169   1.717  18.792  0.4384  0.6693  0.0150
 2673TIP3    H132214   5.129   1.794  18.753  0.1400 -0.0656 -1.1847
 2673TIP3    H232215   5.219   1.677  18.721  1.5209  0.3747  0.9175
 2674TIP3   OH232216   4.329   6.734  18.232  0.2430 -1.1633 -0.2227
 2674TIP3    H132217   4.331   6.825  18.260  2.5970 -0.0941 -3.2000
 2674TIP3    H232218   4.279   6.688  18.299 -1.3308  2.3481  1.2169
 2675TIP3   OH232219   6.378   7.918  18.304  0.3128 -0.6681  0.1725
 2675TIP3    H132220   6.347   7.832  18.332 -0.4617 -0.6220 -0.4872
 2675TIP3    H232221   6.384   7.911  18.208 -0.2819  0.1578  0.0639
 2676TIP3   OH232222   8.201   2.216  18.873 -0.1371 -0.9439 -0.1341
 2676TIP3    H132223   8.108   2.234  18.865 -0.3401 -1.1363  1.4111
 2676TIP3    H232224   8.231   2.273  18.945  0.8138 -1.2597 -0.2563
 2677TIP3   OH232225   4.919   2.856  17.513  0.1259  0.3320 -0.1764
 2677TIP3    H132226   4.972   2.781  17.539  0.6683  0.3232 -1.2312
 2677TIP3    H232227   4.983   2.926  17.497 -0.2746  0.6584 -0.3674
 2678TIP3   OH232228   7.118   7.419  19.198 -0.1266 -0.2785  0.5416
 2678TIP3    H132229   7.130   7.468  19.280 -0.2896  0.8057 -0.0648
 2678TIP3    H232230   7.200   7.372  19.186  1.0222  1.7610 -0.1005
 2679TIP3   OH232231   2.639   0.646  17.860  0.1288  0.3103  0.3360
 2679TIP3    H132232   2.606   0.557  17.857  0.8135  0.0550  0.1770
 2679TIP3    H232233   2.689   0.656  17.779 -1.3046  1.3851 -0.4628
 2680TIP3   OH232234   5.037   2.722  16.641  0.9232 -0.4577 -0.3311
 2680TIP3    H132235   5.017   2.788  16.574  0.7134  1.2798  1.3545
 2680TIP3    H232236   4.978   2.649  16.621  1.0927 -0.1321 -2.1982
 2681TIP3   OH232237   5.969   3.533  18.211 -0.1727  0.5923 -1.0992
 2681TIP3    H132238   5.902   3.598  18.234 -0.2101  0.8867 -2.0035
 2681TIP3    H232239   6.015   3.572  18.137  2.3832  1.3550  0.7518
 2682TIP3   OH232240   3.268   8.383  17.510 -0.1449 -0.0972 -0.9510
 2682TIP3    H132241   3.363   8.381  17.505 -0.1126 -0.6962 -0.2461
 2682TIP3    H232242   3.243   8.293  17.533 -0.8053  0.2862 -0.1087
 2683TIP3   OH232243   5.014   4.600  18.281 -0.4299  0.1706 -0.8349
 2683TIP3    H132244   4.975   4.513  18.273  1.5579 -0.9110  0.4066
 2683TIP3    H232245   5.093   4.586  18.331 -0.5531  2.8892  0.2806
 2684TIP3   OH232246   2.235   6.620  19.164 -0.1471  0.2735  0.0462
 2684TIP3    H132247   2.323   6.654  19.182 -0.7003  1.5444  0.5014
 2684TIP3    H232248   2.178   6.696  19.176 -1.0386  0.2368 -3.0530
 2685TIP3   OH232249   6.345   6.433  16.578  0.3390 -0.6587  0.0906
 2685TIP3    H132250   6.328   6.527  16.570  1.2279 -0.1341  3.2304
 2685TIP3    H232251   6.438   6.424  16.559  0.5380 -0.6932  1.0649
 2686TIP3   OH232252   3.605   2.554  17.615  0.2494  0.6462  0.1503
 2686TIP3    H132253   3.554   2.589  17.689 -0.7734 -1.6597  0.6345
 2686TIP3    H232254   3.552   2.575  17.538 -0.7966 -0.5283  0.5192
 2687TIP3   OH232255   3.257   3.658  17.776 -0.0915 -0.5508  0.1430
 2687TIP3    H132256   3.263   3.563  17.782  1.0909 -0.5407 -0.5000
 2687TIP3    H232257   3.168   3.679  17.802 -0.8130 -1.9544 -1.0743
 2688TIP3   OH232258   5.753   5.586  17.567 -0.3167  0.5333 -0.4128
 2688TIP3    H132259   5.776   5.631  17.649  0.2529  0.4842 -0.5438
 2688TIP3    H232260   5.680   5.637  17.532 -1.1411  0.0593  0.5469
 2689TIP3   OH232261   5.253   8.296  18.470 -0.2562 -0.0766  0.5744
 2689TIP3    H132262   5.215   8.381  18.446  0.4191 -0.2086 -1.0776
 2689TIP3    H232263   5.178   8.238  18.480 -0.7020  0.6127  1.3230
 2690TIP3   OH232264   5.127   2.788  18.450 -0.3531 -0.1883  0.2416
 2690TIP3    H132265   5.075   2.866  18.431 -1.8363 -0.6721  1.9946
 2690TIP3    H232266   5.213   2.821  18.474 -0.7925  0.8696  0.4125
 2691TIP3   OH232267   0.510   4.988  17.127  0.9019  0.3624 -0.4899
 2691TIP3    H132268   0.604   4.982  17.108  0.6318 -1.1072 -1.5181
 2691TIP3    H232269   0.475   5.044  17.059  0.7260 -0.7986 -1.3787
 2692TIP3   OH232270   6.108   7.458  16.416 -0.0431  0.2309  0.2912
 2692TIP3    H132271   6.075   7.378  16.374  1.1928 -0.4388  0.5332
 2692TIP3    H232272   6.185   7.482  16.365  0.7060  0.1702  1.3523
 2693TIP3   OH232273   1.750   6.350  17.291  0.1735 -0.2493  0.0288
 2693TIP3    H132274   1.665   6.311  17.268 -0.3711  1.5226 -1.1897
 2693TIP3    H232275   1.727   6.435  17.328  1.4235  0.2766 -0.3734
 2694TIP3   OH232276   5.987   1.802  16.674  0.3234  0.6208  0.3261
 2694TIP3    H132277   5.903   1.844  16.655 -0.3266 -0.5299  0.6009
 2694TIP3    H232278   5.967   1.709  16.678  1.0547  0.4861  3.1519
 2695TIP3   OH232279   7.991   2.792  17.766 -0.6999  0.0112 -0.1307
 2695TIP3    H132280   7.916   2.771  17.823 -0.1522 -2.6955 -0.2452
 2695TIP3    H232281   7.979   2.735  17.690  1.6819 -0.8268  0.0586
 2696TIP3   OH232282   0.227   0.022  18.209 -0.3044 -0.1141 -0.0938
 2696TIP3    H132283   0.263   0.106  18.180 -0.2871 -0.3693 -0.8206
 2696TIP3    H232284   0.240   0.023  18.304  0.4596  0.3519 -0.1903
 2697TIP3   OH232285   2.984   7.091  17.555  0.4121  0.1199 -0.0523
 2697TIP3    H132286   2.961   7.126  17.642 -0.8427 -1.3196  0.2510
 2697TIP3    H232287   3.046   7.021  17.574  1.7042  1.1187 -0.5145
 2698TIP3   OH232288   1.497   3.270  18.190 -0.4395 -0.0994 -0.0022
 2698TIP3    H132289   1.526   3.338  18.250  1.2422  0.8895 -1.8256
 2698TIP3    H232290   1.439   3.214  18.243  0.0397  1.3486  2.1734
 2699TIP3   OH232291   2.619   4.060  17.094  0.1046 -0.5998  0.2277
 2699TIP3    H132292   2.650   3.999  17.028  1.0683  0.2439 -0.1387
 2699TIP3    H232293   2.524   4.050  17.094  0.0746 -0.5687 -1.3598
 2700TIP3   OH232294   1.828   0.953  17.739  0.5958 -0.7194 -0.3742
 2700TIP3    H132295   1.850   0.900  17.662  1.3501 -0.3234 -0.4462
 2700TIP3    H232296   1.740   0.925  17.764  0.2813 -0.7440 -1.4704
 2701TIP3   OH232297   7.154   6.063  16.636 -0.5448  0.0516 -0.1324
 2701TIP3    H132298   7.152   6.081  16.542  1.5345 -0.6304 -0.3756
 2701TIP3    H232299   7.084   6.000  16.651 -2.7084  2.2174 -0.6826
 2702TIP3   OH232300   0.738   4.095  18.964  0.0811  0.1724  0.0982
 2702TIP3    H132301   0.760   4.163  19.027  1.6563 -0.4554  0.2733
 2702TIP3    H232302   0.691   4.029  19.016 -2.1111  1.3903 -0.2217
 2703TIP3   OH232303   2.961   7.221  17.805 -0.0634  0.3578  0.4700
 2703TIP3    H132304   2.891   7.278  17.774 -2.1504 -0.7936  2.6893
 2703TIP3    H232305   2.916   7.143  17.836  2.4666 -1.4424 -0.0797
 2704TIP3   OH232306   6.483   3.156  18.690 -0.3289 -0.8321  0.1704
 2704TIP3    H132307   6.455   3.095  18.622  0.4158  2.0460 -2.9854
 2704TIP3    H232308   6.424   3.231  18.680  1.4481  0.7308  0.9058
 2705TIP3   OH232309   7.974   0.345  18.941  0.3289  0.0228 -0.4724
 2705TIP3    H132310   7.929   0.328  18.859  0.1081 -0.3345 -0.2790
 2705TIP3    H232311   7.974   0.440  18.949 -0.4702  0.0296 -0.4340
 2706TIP3   OH232312   6.082   5.094  17.803 -0.2617  0.1756 -0.3428
 2706TIP3    H132313   6.035   5.149  17.740  0.6186  0.3416 -0.8802
 2706TIP3    H232314   6.137   5.156  17.851 -1.0905  0.0804  0.7603
 2707TIP3   OH232315   2.978   2.582  19.022  0.4429 -0.1030 -0.2022
 2707TIP3    H132316   2.969   2.590  19.117 -2.7215 -1.1274 -0.3061
 2707TIP3    H232317   3.011   2.494  19.009 -0.7530 -0.5899 -0.0584
 2708TIP3   OH232318   1.404   6.956  17.569 -0.4000  0.8650  0.4060
 2708TIP3    H132319   1.381   6.920  17.655  0.6280 -2.4707 -0.5851
 2708TIP3    H232320   1.321   6.963  17.522 -0.5545 -1.8164  0.1405
 2709TIP3   OH232321   1.857   0.532  17.349  0.1803  0.3308  0.1036
 2709TIP3    H132322   1.885   0.594  17.282  0.0323 -0.6452 -0.8883
 2709TIP3    H232323   1.768   0.507  17.322  0.5597 -0.9559 -0.0152
 2710TIP3   OH232324   5.123   3.990  18.540 -1.5604 -0.4803 -0.6330
 2710TIP3    H132325   5.189   3.939  18.493 -2.1844 -1.0753 -0.8914
 2710TIP3    H232326   5.120   4.074  18.495  0.1050  0.1572  0.3348
 2711TIP3   OH232327   6.445   0.176  16.695  0.7592  0.5370  0.0154
 2711TIP3    H132328   6.367   0.222  16.725 -0.4671 -1.8375  0.7130
 2711TIP3    H232329   6.486   0.142  16.774 -0.5345 -2.7625 -0.5599
 2712TIP3   OH232330   0.954   0.617  16.946 -0.0953  0.3258  0.0652
 2712TIP3    H132331   0.868   0.652  16.922 -0.8257 -0.1699  1.7787
 2712TIP3    H232332   0.935   0.530  16.980  1.0789  0.2410  0.5452
 2713TIP3   OH232333   7.364   0.697  17.046  0.8733  0.2043 -0.3499
 2713TIP3    H132334   7.413   0.778  17.053  0.3910  0.5582 -0.9876
 2713TIP3    H232335   7.272   0.724  17.048  0.6988 -0.1671 -2.0625
 2714TIP3   OH232336   4.260   4.626  17.731  0.1337 -0.0060 -0.1494
 2714TIP3    H132337   4.206   4.588  17.801  0.1176 -0.8678 -0.6129
 2714TIP3    H232338   4.217   4.708  17.709 -0.6767 -0.4129 -0.1289
 2715TIP3   OH232339   5.129   1.299  18.397  0.1283 -0.3985 -0.2591
 2715TIP3    H132340   5.082   1.307  18.314 -1.0440  0.2716  0.4407
 2715TIP3    H232341   5.086   1.226  18.442 -0.1104  0.0616  0.2837
 2716TIP3   OH232342   5.466   0.899  18.755  0.2729  0.8231  0.3707
 2716TIP3    H132343   5.544   0.846  18.772 -0.5432 -1.1153 -1.5256
 2716TIP3    H232344   5.497   0.990  18.760  2.0962  0.1832  2.0067
 2717TIP3   OH232345   2.368   2.661  18.282 -0.4730  0.3271 -0.2022
 2717TIP3    H132346   2.367   2.681  18.188  0.0714 -0.5879 -0.4216
 2717TIP3    H232347   2.399   2.570  18.286  0.8017  0.7790  0.9207
 2718TIP3   OH232348   2.855   3.843  17.199  0.3318  0.2869 -0.1753
 2718TIP3    H132349   2.800   3.885  17.133  1.2403  1.5710 -0.1573
 2718TIP3    H232350   2.907   3.780  17.151  0.9515  1.1810 -0.7155
 2719TIP3   OH232351   0.909   6.498  18.997  0.3445 -0.7963 -0.3845
 2719TIP3    H132352   0.868   6.432  19.053 -2.2306  0.7030 -0.3765
 2719TIP3    H232353   0.985   6.453  18.959  0.1675 -2.9358  1.5590
 2720TIP3   OH232354   4.041   3.512  18.857  0.2424 -0.0638 -0.1116
 2720TIP3    H132355   4.106   3.525  18.787 -0.3841 -1.5516 -1.0110
 2720TIP3    H232356   4.091   3.523  18.937  1.6522 -1.1682 -0.7843
 2721TIP3   OH232357   8.100   6.206  18.270 -0.2162  0.3773  0.1525
 2721TIP3    H132358   8.145   6.291  18.273 -1.3968  1.0318  0.1081
 2721TIP3    H232359   8.133   6.165  18.189  0.9095  0.4571  0.5474
 2722TIP3   OH232360   6.983   6.692  17.706 -0.0090 -0.1890  0.2905
 2722TIP3    H132361   6.964   6.725  17.793 -1.5585 -2.0358  0.7141
 2722TIP3    H232362   6.901   6.701  17.658  0.6903  0.3447 -0.8475
 2723TIP3   OH232363   7.655   1.929  17.970 -0.0953  0.7675 -0.1413
 2723TIP3    H132364   7.602   1.983  17.911 -0.6388  0.3374 -0.0522
 2723TIP3    H232365   7.592   1.895  18.034  0.4330  0.9516  0.4831
 2724TIP3   OH232366   0.845   2.986  18.844 -0.3080 -0.8730  0.0199
 2724TIP3    H132367   0.917   3.020  18.792 -0.6583 -1.6084 -0.9801
 2724TIP3    H232368   0.842   2.892  18.823 -1.3241 -0.9195  0.3241
 2725TIP3   OH232369   4.287   7.690  17.439 -0.1724 -0.5762  0.0828
 2725TIP3    H132370   4.204   7.662  17.400 -1.4501  2.6606  0.2181
 2725TIP3    H232371   4.284   7.655  17.528 -0.1858 -2.6024 -0.6684
 2726TIP3   OH232372   5.822   3.855  17.935 -0.4586 -0.2696 -0.0918
 2726TIP3    H132373   5.868   3.784  17.980 -0.4663  0.0768  0.4767
 2726TIP3    H232374   5.888   3.924  17.925 -1.0830  0.6562  1.6963
 2727TIP3   OH232375   1.243   0.353  18.295  0.1843 -0.3719 -0.2170
 2727TIP3    H132376   1.310   0.295  18.259  1.3409  1.1667 -0.6640
 2727TIP3    H232377   1.161   0.326  18.253  0.6411 -1.7911 -0.2334
 2728TIP3   OH232378   5.372   4.546  18.972  0.1643 -0.2092  0.2627
 2728TIP3    H132379   5.388   4.565  19.065  1.2646  2.4335 -0.3635
 2728TIP3    H232380   5.358   4.632  18.933  1.2502 -1.1062 -2.3021
 2729TIP3   OH232381   4.113   2.598  18.286  0.1568  0.7124  0.6908
 2729TIP3    H132382   4.077   2.610  18.373 -0.3983  0.1978  0.5442
 2729TIP3    H232383   4.112   2.503  18.273 -0.1834  0.8133 -0.0468
 2730TIP3   OH232384   7.127   0.585  18.898  0.2878 -0.1060  0.2123
 2730TIP3    H132385   7.103   0.660  18.843  0.8667 -1.4369 -1.9797
 2730TIP3    H232386   7.220   0.570  18.878  0.6652 -0.3435  1.9787
 2731TIP3   OH232387   1.846   5.792  17.835 -0.0460 -0.6964 -0.0633
 2731TIP3    H132388   1.885   5.707  17.815 -0.7468 -0.5678 -2.3621
 2731TIP3    H232389   1.883   5.850  17.769 -0.6748  0.4588  0.5823
 2732TIP3   OH232390   3.010   6.194  19.016 -0.5007  0.7719 -0.4137
 2732TIP3    H132391   3.006   6.129  18.946  0.2270  0.0691  0.1797
 2732TIP3    H232392   2.939   6.171  19.075  1.0900 -0.9040  0.9630
 2733TIP3   OH232393   6.293   4.500  18.521  0.1364 -0.0821 -0.8206
 2733TIP3    H132394   6.315   4.580  18.473  1.7435  0.7904  1.2318
 2733TIP3    H232395   6.219   4.524  18.577 -1.2899 -0.9113 -2.2566
 2734TIP3   OH232396   0.365   5.481  18.577  0.6213  0.1722 -0.2760
 2734TIP3    H132397   0.417   5.525  18.644  0.4873 -0.5126  0.2907
 2734TIP3    H232398   0.293   5.439  18.626  0.0402  0.3724 -0.9436
 2735TIP3   OH232399   4.279   3.954  18.387 -0.0534 -0.2408 -0.0836
 2735TIP3    H132400   4.370   3.928  18.374 -0.2009  0.3672 -2.9454
 2735TIP3    H232401   4.230   3.872  18.382  0.2351 -0.4281  0.1421
 2736TIP3   OH232402   4.357   4.776  18.452 -0.7563  0.0788  0.2090
 2736TIP3    H132403   4.348   4.866  18.484  0.2260  1.3122 -2.6749
 2736TIP3    H232404   4.361   4.784  18.357  1.8307 -2.7910 -0.0953
 2737TIP3   OH232405   0.183   6.223  16.571 -0.4580  0.4377 -0.0666
 2737TIP3    H132406   0.173   6.144  16.623  0.2306  0.1244 -0.4015
 2737TIP3    H232407   0.177   6.193  16.480  1.2886  0.5206 -0.2429
 2738TIP3   OH232408   4.614   1.614  17.389  0.4080  0.0804  0.3026
 2738TIP3    H132409   4.591   1.587  17.478  1.3749 -1.5433  0.1064
 2738TIP3    H232410   4.535   1.655  17.355 -0.4134 -0.4862  1.4540
 2739TIP3   OH232411   4.759   2.939  18.580  0.1933  0.4059  0.0555
 2739TIP3    H132412   4.697   2.975  18.517  0.2075  1.6490  0.7281
 2739TIP3    H232413   4.721   2.961  18.666  1.2347  0.5983  0.4766
 2740TIP3   OH232414   1.531   1.164  18.198 -0.6762  0.3391 -0.3603
 2740TIP3    H132415   1.497   1.254  18.205 -1.8705 -0.1076 -0.1497
 2740TIP3    H232416   1.484   1.126  18.124 -1.4837 -0.6359  0.6098
 2741TIP3   OH232417   7.973   1.490  17.764  0.4303 -0.1198 -0.2743
 2741TIP3    H132418   7.980   1.407  17.811 -0.8861  0.2099  0.5625
 2741TIP3    H232419   8.058   1.500  17.721  1.2485 -1.0472  1.0221
 2742TIP3   OH232420   2.140   7.804  18.687 -0.3044  0.4268  0.3463
 2742TIP3    H132421   2.153   7.769  18.599  0.2600  0.3494  0.4529
 2742TIP3    H232422   2.061   7.761  18.719  0.0462 -0.3064  0.2511
 2743TIP3   OH232423   5.298   0.255  17.936  0.5544 -0.0005 -0.0249
 2743TIP3    H132424   5.236   0.207  17.882  1.0472  0.0986 -0.6950
 2743TIP3    H232425   5.254   0.265  18.020 -0.6218  0.6724 -0.6901
 2744TIP3   OH232426   4.997   7.652  18.364  0.1613  0.2182  0.1129
 2744TIP3    H132427   4.922   7.693  18.407  0.4911  0.8369  0.1058
 2744TIP3    H232428   5.041   7.724  18.318  0.4469 -0.2363 -0.3354
 2745TIP3   OH232429   5.009   2.978  16.497  0.3331  0.1743  0.0073
 2745TIP3    H132430   5.091   2.948  16.459 -0.6399 -2.0863 -0.4927
 2745TIP3    H232431   5.030   3.063  16.535  3.4310 -1.2226  1.7837
 2746TIP3   OH232432   7.768   3.725  18.287  0.5833  0.5666 -0.0837
 2746TIP3    H132433   7.712   3.802  18.283 -0.8092 -0.4809 -1.7660
 2746TIP3    H232434   7.742   3.672  18.212  2.1961 -1.0887  0.4596
 2747TIP3   OH232435   3.179   1.811  17.854  0.3824 -0.6945  0.4667
 2747TIP3    H132436   3.262   1.794  17.897  0.3659  0.6381  1.0727
 2747TIP3    H232437   3.116   1.757  17.901  0.8055 -1.2673  0.3786
 2748TIP3   OH232438   2.194   3.447  17.583 -0.0179 -0.4743  0.1728
 2748TIP3    H132439   2.140   3.408  17.652  0.1856 -1.0961 -0.0100
 2748TIP3    H232440   2.183   3.388  17.508 -1.7490  1.1810 -0.9847
 2749TIP3   OH232441   0.523   7.685  18.827 -0.3926  0.1587  0.5152
 2749TIP3    H132442   0.514   7.755  18.891  1.6767 -0.9767  2.1769
 2749TIP3    H232443   0.504   7.605  18.876 -0.8029 -0.6208 -0.8498
 2750TIP3   OH232444   0.071   3.771  19.072  0.2495 -1.3107 -0.6010
 2750TIP3    H132445   0.165   3.772  19.054  0.2680  2.1988 -1.0413
 2750TIP3    H232446   0.065   3.783  19.167  0.3357  0.2670 -0.7617
 2751TIP3   OH232447   3.195   5.183  17.786 -0.0478  0.7865 -0.1362
 2751TIP3    H132448   3.193   5.092  17.758  0.3190  0.5459  0.5887
 2751TIP3    H232449   3.253   5.227  17.724  0.2912  0.3938 -0.0962
 2752TIP3   OH232450   7.639   5.489  17.156 -0.0005 -0.0426 -0.0139
 2752TIP3    H132451   7.645   5.573  17.111  1.2871 -0.0823  0.0638
 2752TIP3    H232452   7.546   5.465  17.150 -0.5363  1.7257  0.6096
 2753TIP3   OH232453   5.979   0.450  16.573  0.1879 -0.1405 -0.4918
 2753TIP3    H132454   6.017   0.411  16.494 -1.3197 -0.3132 -1.1828
 2753TIP3    H232455   5.888   0.420  16.572 -0.3761  1.4284  0.2762
 2754TIP3   OH232456   1.722   7.641  16.661  0.6299 -0.2619  0.4787
 2754TIP3    H132457   1.816   7.652  16.648  0.4676 -0.0406 -0.5640
 2754TIP3    H232458   1.681   7.693  16.592 -0.2298 -1.9518 -0.3484
 2755TIP3   OH232459   3.508   0.444  17.195 -0.0782 -0.6508 -0.5040
 2755TIP3    H132460   3.494   0.519  17.253 -0.6635 -0.9688 -0.2294
 2755TIP3    H232461   3.523   0.483  17.109  0.5854 -0.1855 -0.1864
 2756TIP3   OH232462   4.835   0.084  16.816 -0.2253  0.2431 -0.3480
 2756TIP3    H132463   4.779   0.053  16.888 -1.1168 -1.0064 -1.5349
 2756TIP3    H232464   4.831   0.179  16.823  1.3129  0.2153  2.4345
 2757TIP3   OH232465   6.158   3.334  16.915  0.2557 -0.0120  0.1932
 2757TIP3    H132466   6.082   3.297  16.960  2.6330 -2.2588  2.6281
 2757TIP3    H232467   6.195   3.397  16.977  1.4874 -0.3751 -0.1559
 2758TIP3   OH232468   6.468   7.119  16.779  0.3357  0.1413 -0.3203
 2758TIP3    H132469   6.432   7.060  16.713 -1.5368  1.1739 -0.3027
 2758TIP3    H232470   6.479   7.065  16.857  0.9077 -0.6984 -0.9730
 2759TIP3   OH232471   4.640   0.637  17.347  0.5122  0.1740 -0.0161
 2759TIP3    H132472   4.626   0.542  17.351  0.8615  0.1360  0.4565
 2759TIP3    H232473   4.591   0.666  17.270 -0.9534 -0.1484  0.7701
 2760TIP3   OH232474   4.121   6.389  18.339 -0.4800 -0.3479  0.3263
 2760TIP3    H132475   4.158   6.465  18.384  1.9082 -1.0520 -0.2641
 2760TIP3    H232476   4.115   6.417  18.247  0.8433 -0.9422  0.0239
 2761TIP3   OH232477   0.218   2.134  17.301 -0.1756 -0.2362  0.2739
 2761TIP3    H132478   0.126   2.154  17.284 -1.0143 -1.9817  2.3839
 2761TIP3    H232479   0.261   2.147  17.216 -2.3482  0.5806 -0.7730
 2762TIP3   OH232480   6.775   1.020  18.419  0.1910 -0.1052  0.0042
 2762TIP3    H132481   6.865   0.990  18.409  0.0514 -0.8165  0.7986
 2762TIP3    H232482   6.740   0.969  18.491 -0.8030  0.2870 -0.1791
 2763TIP3   OH232483   1.878   3.859  17.403 -0.2075  0.8139 -0.6974
 2763TIP3    H132484   1.938   3.933  17.395 -1.4695  2.1696  1.1433
 2763TIP3    H232485   1.907   3.813  17.482 -0.2368  0.1425 -1.0756
 2764TIP3   OH232486   6.984   3.920  16.655  0.2148 -0.4535  0.1611
 2764TIP3    H132487   6.973   3.829  16.626 -1.6950 -0.0711 -0.4071
 2764TIP3    H232488   6.895   3.952  16.669  0.8944  0.9433  1.6494
 2765TIP3   OH232489   3.811   6.517  17.297  0.0997  0.0145  0.1186
 2765TIP3    H132490   3.894   6.554  17.326 -0.0560  0.0313  0.5443
 2765TIP3    H232491   3.793   6.561  17.214  0.2586  0.3877  0.2820
 2766TIP3   OH232492   4.709   3.837  18.085  0.4950  0.8273  0.2742
 2766TIP3    H132493   4.787   3.787  18.110 -0.0183  0.1575  0.5325
 2766TIP3    H232494   4.742   3.927  18.072  1.7153  0.1763 -1.6133
 2767TIP3   OH232495   1.881   4.148  17.125  0.8662 -0.1529  0.3240
 2767TIP3    H132496   1.976   4.145  17.111  1.0328  0.1252  1.3670
 2767TIP3    H232497   1.863   4.240  17.144  0.4625 -0.2965  0.6355
 2768TIP3   OH232498   6.644   0.227  18.110  0.5097  0.2095 -0.2190
 2768TIP3    H132499   6.668   0.295  18.173  0.7240 -0.2443  0.1916
 2768TIP3    H232500   6.578   0.175  18.156 -1.0854  1.2516 -1.2082
 2769TIP3   OH232501   0.485   5.949  17.062 -0.2850  0.0469 -0.5787
 2769TIP3    H132502   0.445   5.877  17.013 -1.3646 -0.2850  0.7413
 2769TIP3    H232503   0.574   5.956  17.026 -1.2578  0.3773 -3.1519
 2770TIP3   OH232504   6.057   6.370  18.081  0.4089  0.8561 -0.1124
 2770TIP3    H132505   6.120   6.412  18.023 -0.1479  1.8156 -0.0549
 2770TIP3    H232506   6.006   6.312  18.025 -0.7681  2.5031 -0.8058
 2771TIP3   OH232507   2.378   4.676  17.696 -0.1743 -0.0265 -0.2867
 2771TIP3    H132508   2.317   4.621  17.647 -1.3481  1.4757 -0.5694
 2771TIP3    H232509   2.323   4.744  17.735  1.2146  0.8467  0.2127
 2772TIP3   OH232510   2.211   5.271  18.845 -0.2037  0.0615 -0.2607
 2772TIP3    H132511   2.185   5.197  18.790  0.4950 -0.7607  0.5048
 2772TIP3    H232512   2.283   5.238  18.898  0.0942  1.2815  0.1228
 2773TIP3   OH232513   0.108   2.406  17.809 -0.7422 -0.4571 -0.1805
 2773TIP3    H132514   0.185   2.401  17.753 -0.2738  1.0884  0.2729
 2773TIP3    H232515   0.142   2.393  17.897 -0.4535  3.0022  0.3474
 2774TIP3   OH232516   2.549   7.936  16.887 -0.8366  0.1164  0.3799
 2774TIP3    H132517   2.641   7.958  16.872 -1.1701  1.1329 -0.2421
 2774TIP3    H232518   2.502   8.018  16.875 -1.5837  0.2451  3.4431
 2775TIP3   OH232519   4.054   5.842  18.614 -0.0711 -0.4063 -0.2387
 2775TIP3    H132520   3.994   5.780  18.573  0.8726 -1.3635 -0.2360
 2775TIP3    H232521   4.046   5.922  18.562  0.8369 -1.4722 -2.1265
 2776TIP3   OH232522   4.883   7.267  18.596 -0.1706 -0.3290 -0.8444
 2776TIP3    H132523   4.931   7.349  18.591 -0.2740 -0.2787 -1.0067
 2776TIP3    H232524   4.915   7.215  18.522 -0.6975 -0.1170 -1.2274
 2777TIP3   OH232525   6.080   6.037  18.461 -0.6703  0.1082 -0.3749
 2777TIP3    H132526   6.093   5.948  18.429  0.6256 -0.0278  0.4575
 2777TIP3    H232527   6.051   6.086  18.385  1.6864 -0.3316 -1.6557
 2778TIP3   OH232528   0.708   6.599  18.669 -0.2304 -0.4208  0.4421
 2778TIP3    H132529   0.740   6.553  18.592  1.3404 -1.6183  1.7390
 2778TIP3    H232530   0.658   6.673  18.634  0.2532 -1.0445 -1.6955
 2779TIP3   OH232531   5.560   6.966  17.826 -0.2845  0.2218 -0.5516
 2779TIP3    H132532   5.529   7.050  17.792  0.4529  1.5372  1.7768
 2779TIP3    H232533   5.494   6.940  17.890 -0.4229 -0.9169 -1.1363
 2780TIP3   OH232534   7.154   1.372  17.047  0.1760 -0.1501 -0.1061
 2780TIP3    H132535   7.229   1.318  17.024  0.6493 -0.2012  1.5076
 2780TIP3    H232536   7.097   1.315  17.099  0.2947  0.6474  0.9217
 2781TIP3   OH232537   6.811   2.412  18.981 -0.7062 -0.3904  0.3283
 2781TIP3    H132538   6.797   2.413  19.076  0.0283  0.3703  0.4402
 2781TIP3    H232539   6.820   2.505  18.957  0.9741 -0.6440 -0.1818
 2782TIP3   OH232540   3.786   0.931  16.646  0.1114 -0.3182 -0.2560
 2782TIP3    H132541   3.754   0.981  16.571  2.4055 -0.9645 -1.7905
 2782TIP3    H232542   3.789   0.995  16.717 -0.1025  0.9116 -1.3053
 2783TIP3   OH232543   3.540   5.108  18.480  0.4554 -0.0810  0.2394
 2783TIP3    H132544   3.511   5.028  18.524 -0.7403  1.1473  1.8202
 2783TIP3    H232545   3.491   5.109  18.398  0.1818 -0.7847  0.3881
 2784TIP3   OH232546   6.499   6.035  17.757 -0.0165  0.4968 -0.3494
 2784TIP3    H132547   6.450   5.981  17.819  0.1862 -0.2127 -0.7928
 2784TIP3    H232548   6.492   5.988  17.674  2.3915 -0.2440 -0.1920
 2785TIP3   OH232549   8.353   1.997  18.882  0.0132 -0.3398 -0.2222
 2785TIP3    H132550   8.300   1.922  18.907 -0.2308 -0.4328 -1.0003
 2785TIP3    H232551   8.295   2.072  18.893  0.6025 -0.1043  1.6736
 2786TIP3   OH232552   3.198   5.419  18.862 -0.5796 -0.9519 -0.4356
 2786TIP3    H132553   3.265   5.389  18.924  0.0249  0.9904 -0.1057
 2786TIP3    H232554   3.243   5.420  18.777 -0.7098 -1.3097 -0.5106
 2787TIP3   OH232555   3.075   0.277  18.663  0.1216 -0.7446  0.0992
 2787TIP3    H132556   3.167   0.250  18.661  0.3531  0.0497 -0.3926
 2787TIP3    H232557   3.035   0.219  18.727  1.0956 -0.6902  0.7765
 2788TIP3   OH232558   4.994   3.546  17.489  0.2458  0.0013 -0.2232
 2788TIP3    H132559   4.972   3.478  17.426  0.6180  0.7718 -1.2150
 2788TIP3    H232560   4.920   3.606  17.487  0.9814  0.9134 -1.1974
 2789TIP3   OH232561   6.010   2.871  18.981 -0.4717 -0.1040 -0.2795
 2789TIP3    H132562   6.047   2.944  18.932 -0.3947  0.2922  0.3560
 2789TIP3    H232563   5.939   2.910  19.033 -1.3806 -0.7347 -1.0051
 2790TIP3   OH232564   7.976   0.197  17.658 -0.9096  0.7549  0.7850
 2790TIP3    H132565   7.949   0.122  17.712  0.7287 -1.0203 -0.7115
 2790TIP3    H232566   8.068   0.210  17.680 -1.0441  2.0556  0.6496
 2791TIP3   OH232567   2.273   4.792  18.783 -0.0501  0.4910  0.4491
 2791TIP3    H132568   2.259   4.699  18.804 -0.6571  0.0916 -1.5162
 2791TIP3    H232569   2.365   4.796  18.756 -0.0160  0.4737  0.5606
 2792TIP3   OH232570   1.445   6.390  18.650 -0.1720 -0.0307 -0.4604
 2792TIP3    H132571   1.517   6.403  18.588 -0.1691 -0.3406 -0.5205
 2792TIP3    H232572   1.384   6.462  18.631 -0.0563  0.0152 -0.6611
 2793TIP3   OH232573   1.889   7.626  16.382 -0.1847 -0.0510 -0.5678
 2793TIP3    H132574   1.919   7.661  16.466  0.3066  0.3016 -0.8829
 2793TIP3    H232575   1.892   7.700  16.322 -2.7115  0.2670 -0.4066
 2794TIP3   OH232576   0.727   0.909  17.056  0.2284  0.8141  0.3371
 2794TIP3    H132577   0.648   0.923  17.108  0.1607 -2.0004  1.1655
 2794TIP3    H232578   0.794   0.963  17.099 -0.4059  0.4129  1.8926
 2795TIP3   OH232579   6.938   4.108  17.939  0.0653 -0.3531 -0.0040
 2795TIP3    H132580   7.002   4.149  17.997  0.3306 -0.8385  0.0525
 2795TIP3    H232581   6.885   4.181  17.906  0.4519  0.0180  0.1852
 2796TIP3   OH232582   2.240   5.819  18.765 -0.0880  0.8349 -0.0673
 2796TIP3    H132583   2.231   5.726  18.746  0.6147  1.0565 -1.6893
 2796TIP3    H232584   2.165   5.840  18.820 -0.0025 -0.7714  0.7215
 2797TIP3   OH232585   1.105   1.625  17.916  0.5668  0.1914  0.4709
 2797TIP3    H132586   1.164   1.571  17.863 -1.5596  0.0894 -2.0338
 2797TIP3    H232587   1.063   1.563  17.976  1.9390  0.0423  1.3170
 2798TIP3   OH232588   2.501   7.050  18.309  0.1443  0.6556  0.1957
 2798TIP3    H132589   2.429   6.995  18.340  0.5326  0.3318  0.5446
 2798TIP3    H232590   2.580   7.009  18.346  0.5310  0.8267 -0.4321
 2799TIP3   OH232591   4.071   2.525  17.863 -0.3675 -0.2287  0.3417
 2799TIP3    H132592   4.012   2.480  17.923  0.8380 -1.6029  0.5542
 2799TIP3    H232593   4.015   2.555  17.792 -1.3793 -1.1484  0.7304
 2800TIP3   OH232594   1.505   1.177  17.805  0.1198  0.2374 -0.2412
 2800TIP3    H132595   1.421   1.214  17.833 -0.4482 -1.3395  0.2503
 2800TIP3    H232596   1.494   1.160  17.711 -0.2982 -0.4211 -0.0761
 2801TIP3   OH232597   8.312   5.223  17.205  0.2395 -0.1678 -0.1887
 2801TIP3    H132598   8.311   5.302  17.151  0.5571 -0.6480 -0.9194
 2801TIP3    H232599   8.228   5.225  17.251  0.9277  1.4423  1.0982
 2802TIP3   OH232600   6.446   6.141  16.318 -0.7736 -0.0374  0.0705
 2802TIP3    H132601   6.513   6.072  16.319 -1.6264 -0.8965  0.0903
 2802TIP3    H232602   6.494   6.221  16.338  0.5841 -0.2872 -1.9009
 2803TIP3   OH232603   7.067   2.634  16.587  0.0892  0.1339 -0.3450
 2803TIP3    H132604   6.971   2.633  16.590  0.1020  0.6931  2.2462
 2803TIP3    H232605   7.091   2.541  16.584 -0.5731 -0.1528  1.5067
 2804TIP3   OH232606   7.067   2.123  16.619  0.5116 -0.3155  0.4730
 2804TIP3    H132607   7.005   2.092  16.554  1.7575 -0.5171 -0.6624
 2804TIP3    H232608   7.083   2.047  16.675  1.0403 -0.7960 -0.3030
 2805TIP3   OH232609   5.461   2.429  17.840 -0.0719  0.6186  0.1526
 2805TIP3    H132610   5.522   2.458  17.773  0.2761  2.5678  1.2532
 2805TIP3    H232611   5.412   2.357  17.798 -0.1462  1.9985 -2.3095
 2806TIP3   OH232612   8.188   6.003  17.182  0.5986 -0.1638 -0.1993
 2806TIP3    H132613   8.256   5.973  17.242  2.0576 -1.4748 -2.3577
 2806TIP3    H232614   8.191   5.941  17.109 -0.7511  1.5974 -1.8681
 2807TIP3   OH232615   0.139   0.552  18.553 -0.3739  0.1242 -0.1776
 2807TIP3    H132616   0.071   0.492  18.584 -0.5958  0.6470  0.3682
 2807TIP3    H232617   0.216   0.496  18.538 -0.4982 -0.2605  0.5696
 2808TIP3   OH232618   3.812   1.533  18.707  0.3927  0.0666 -0.1349
 2808TIP3    H132619   3.853   1.575  18.783 -0.1046 -0.8594  0.6701
 2808TIP3    H232620   3.873   1.547  18.636  1.7299 -0.5924  0.8443
 2809TIP3   OH232621   3.777   0.793  16.928 -0.2685 -0.6773 -0.2709
 2809TIP3    H132622   3.762   0.730  16.857  1.0916 -0.6803 -0.5948
 2809TIP3    H232623   3.753   0.746  17.008  0.9464 -1.7118 -0.4832
 2810TIP3   OH232624   1.062   6.820  17.926  0.9367  0.0042 -0.4267
 2810TIP3    H132625   0.972   6.820  17.893  0.0558  0.1827  1.7480
 2810TIP3    H232626   1.063   6.751  17.992  1.8288  1.2279  0.9066
 2811TIP3   OH232627   2.663   0.755  17.438 -0.9398 -0.0779  0.3627
 2811TIP3    H132628   2.749   0.742  17.399 -1.0012 -1.7402  0.7057
 2811TIP3    H232629   2.664   0.846  17.469  0.8359 -0.2037  0.7618
 2812TIP3   OH232630   5.800   3.003  17.721  0.2957 -0.3024  0.7703
 2812TIP3    H132631   5.854   3.023  17.797  1.1659 -2.7862  0.9013
 2812TIP3    H232632   5.720   2.964  17.757 -0.4107  0.7961  0.4577
 2813TIP3   OH232633   0.649   7.043  18.688 -0.7272  0.0590 -0.4138
 2813TIP3    H132634   0.644   7.139  18.683 -2.0731  0.0866  0.9450
 2813TIP3    H232635   0.742   7.025  18.704 -0.7229  1.2661  1.1661
 2814TIP3   OH232636   5.862   0.813  18.557 -0.4599  0.3681  0.2281
 2814TIP3    H132637   5.848   0.906  18.579  1.8017  0.4458  1.6992
 2814TIP3    H232638   5.954   0.809  18.530 -0.6818 -1.3694 -0.3667
 2815TIP3   OH232639   7.567   6.511  18.798  0.3031 -0.1564 -0.3848
 2815TIP3    H132640   7.610   6.464  18.727  2.2872  0.5258  0.2940
 2815TIP3    H232641   7.557   6.600  18.766 -1.6158 -0.5189 -0.9112
 2816TIP3   OH232642   7.783   4.533  17.180 -0.1842 -0.1326 -0.1577
 2816TIP3    H132643   7.732   4.499  17.253  0.9388 -0.9525  0.2550
 2816TIP3    H232644   7.807   4.622  17.206  0.9063 -0.7044  0.8471
 2817TIP3   OH232645   0.126   6.393  19.028 -0.6106 -0.0698  0.3660
 2817TIP3    H132646   0.145   6.481  19.059 -0.5209 -0.2024  0.7035
 2817TIP3    H232647   0.041   6.372  19.068 -0.2520 -0.4378  0.9580
 2818TIP3   OH232648   0.836   0.377  17.840  0.0133  0.4007 -0.3134
 2818TIP3    H132649   0.885   0.361  17.920 -1.4857  0.9859  0.7578
 2818TIP3    H232650   0.870   0.461  17.807  0.6747  0.1282 -0.3343
 2819TIP3   OH232651   3.236   8.130  17.666  0.0146 -1.0566  0.2152
 2819TIP3    H132652   3.198   8.133  17.753 -0.0158 -1.2699  0.2103
 2819TIP3    H232653   3.180   8.069  17.618  0.5700 -1.6355  0.3028
 2820TIP3   OH232654   4.407   0.460  17.184  0.5431 -0.3114  0.8111
 2820TIP3    H132655   4.401   0.366  17.201  1.1085 -0.3571  0.7974
 2820TIP3    H232656   4.336   0.499  17.235 -0.5999 -0.8751 -0.2922
 2821TIP3   OH232657   7.186   6.527  18.756 -0.5800  0.2603  0.4798
 2821TIP3    H132658   7.171   6.595  18.821  1.0362  1.6044 -0.4720
 2821TIP3    H232659   7.175   6.572  18.672 -0.2864 -0.8622 -0.1835
 2822TIP3   OH232660   0.361   6.981  18.871  0.5958  0.6430  0.0668
 2822TIP3    H132661   0.391   7.028  18.793 -0.5650  2.2478  0.5365
 2822TIP3    H232662   0.279   6.941  18.845  0.1426  1.2853  0.4804
 2823TIP3   OH232663   6.203   0.357  16.727 -0.3099 -0.1898  0.1463
 2823TIP3    H132664   6.196   0.389  16.816  0.9871  1.9040 -0.4323
 2823TIP3    H232665   6.125   0.389  16.683  0.1312  0.7268  0.0081
 2824TIP3   OH232666   5.365   0.068  18.655  0.7391  0.1193  0.1666
 2824TIP3    H132667   5.386  -0.009  18.708 -1.2090 -0.6652 -0.1304
 2824TIP3    H232668   5.311   0.034  18.584  0.0654  1.7244 -0.1232
 2825TIP3   OH232669   6.740   1.325  18.442  0.1785 -0.2216 -0.2154
 2825TIP3    H132670   6.710   1.234  18.436  0.8641 -0.5328  0.8221
 2825TIP3    H232671   6.670   1.371  18.487 -0.0139 -0.3034 -0.4284
 2826TIP3   OH232672   0.142   4.537  18.290 -0.3789  0.2126 -0.2192
 2826TIP3    H132673   0.064   4.489  18.316  0.0027 -0.1999  0.1767
 2826TIP3    H232674   0.179   4.569  18.372  0.4283 -0.4649 -0.2992
 2827TIP3   OH232675   6.371   8.336  18.681 -0.0107 -0.1847 -0.5302
 2827TIP3    H132676   6.389   8.257  18.630 -0.0665 -0.4365 -0.1636
 2827TIP3    H232677   6.453   8.385  18.679 -0.1905  0.0973 -1.3640
 2828TIP3   OH232678   4.250   3.385  16.578  0.1138 -0.2869 -0.1779
 2828TIP3    H132679   4.317   3.444  16.613  0.3997 -0.8836  0.3114
 2828TIP3    H232680   4.289   3.347  16.500 -0.2656  0.5388 -0.7873
 2829TIP3   OH232681   5.146   3.941  18.818  0.3198  0.1149 -0.3095
 2829TIP3    H132682   5.142   3.974  18.728  2.2094 -1.3919 -0.9998
 2829TIP3    H232683   5.131   3.847  18.811 -0.0035  0.0316  1.0387
 2830TIP3   OH232684   6.268   6.859  17.923  0.1273  1.2766 -0.2898
 2830TIP3    H132685   6.232   6.784  17.877 -0.3960  0.5426  1.2343
 2830TIP3    H232686   6.212   6.932  17.898  0.4932  1.1270 -1.5967
 2831TIP3   OH232687   8.188   4.720  18.700  0.3749  0.1429  0.1942
 2831TIP3    H132688   8.191   4.675  18.785  0.2783 -0.9493 -0.3622
 2831TIP3    H232689   8.152   4.806  18.719 -1.1772 -0.6501  1.0332
 2832TIP3   OH232690   2.915   7.439  18.212 -0.5488  0.4122  0.0837
 2832TIP3    H132691   2.839   7.397  18.171 -0.5703 -0.7883  1.2909
 2832TIP3    H232692   2.896   7.436  18.306  2.0719 -2.2841  0.6641
 2833TIP3   OH232693   0.484   7.413  17.802  0.2819 -0.5048  0.6529
 2833TIP3    H132694   0.482   7.422  17.898 -1.2903 -2.0493  0.8139
 2833TIP3    H232695   0.459   7.500  17.770 -0.2336 -0.2531  1.6688
 2834TIP3   OH232696   3.294   0.607  17.516  0.1234  0.0201 -0.0377
 2834TIP3    H132697   3.247   0.678  17.560 -1.3518 -0.3558 -0.9341
 2834TIP3    H232698   3.353   0.652  17.455  1.3990  0.5081  1.4712
 2835TIP3   OH232699   7.297   4.338  18.300 -0.5489  0.0731  0.1055
 2835TIP3    H132700   7.318   4.412  18.244 -2.3727  0.3393 -0.2656
 2835TIP3    H232701   7.371   4.278  18.288  0.1477  1.0846 -0.8797
 2836TIP3   OH232702   1.077   2.576  18.328  0.8085 -0.2058  0.1943
 2836TIP3    H132703   1.142   2.507  18.342 -0.9323 -1.8136  0.6526
 2836TIP3    H232704   1.124   2.657  18.352  3.0801 -1.0931 -0.9364
 2837TIP3   OH232705   7.338   3.535  17.795  0.1361  0.2839  0.2515
 2837TIP3    H132706   7.344   3.566  17.705  1.6931 -0.6259  0.0006
 2837TIP3    H232707   7.387   3.601  17.845 -0.3045  0.5260  0.3684
 2838TIP3   OH232708   2.051   2.100  17.337  0.2660  0.6698 -0.0193
 2838TIP3    H132709   2.077   2.019  17.379 -0.9851 -0.1351 -0.7139
 2838TIP3    H232710   2.080   2.091  17.246  2.3318  2.0932  0.4327
 2839TIP3   OH232711   0.225   1.632  18.379  0.2952 -0.0370 -0.1864
 2839TIP3    H132712   0.318   1.611  18.373  0.3378  0.2540 -0.6155
 2839TIP3    H232713   0.208   1.641  18.473  0.4740 -1.0423 -0.0471
 2840TIP3   OH232714   6.258   1.137  16.791  0.1766  0.0530  0.1490
 2840TIP3    H132715   6.281   1.221  16.752 -1.2735 -0.5332 -2.1741
 2840TIP3    H232716   6.169   1.149  16.824  0.2678 -0.3297  0.5416
 2841TIP3   OH232717   6.341   2.764  17.733  0.1049 -0.3569  0.3320
 2841TIP3    H132718   6.383   2.741  17.816  2.2078 -0.0590 -0.5937
 2841TIP3    H232719   6.262   2.812  17.758  1.0299  0.2988  2.1553
 2842TIP3   OH232720   7.198   3.729  18.693 -0.3627  0.3626  0.0247
 2842TIP3    H132721   7.187   3.662  18.626  0.5224 -0.1192  0.3390
 2842TIP3    H232722   7.118   3.726  18.744 -0.3869 -0.3609 -0.0529
 2843TIP3   OH232723   7.017   1.404  18.151 -0.1403 -0.0493 -0.1397
 2843TIP3    H132724   7.061   1.482  18.118 -1.5326  1.6283  1.7240
 2843TIP3    H232725   7.048   1.395  18.241 -1.6831 -0.2753  0.3990
 2844TIP3   OH232726   4.410   6.697  16.745 -0.0611 -0.1629  0.3476
 2844TIP3    H132727   4.499   6.729  16.727 -0.3222  1.5697  1.8450
 2844TIP3    H232728   4.419   6.602  16.745  1.2540 -0.1357 -1.9896
 2845TIP3   OH232729   6.791   5.753  16.518 -0.5704  0.0705 -0.8444
 2845TIP3    H132730   6.716   5.697  16.499 -1.2775  0.3210  0.9977
 2845TIP3    H232731   6.865   5.693  16.524 -0.7631 -0.2799 -1.8674
 2846TIP3   OH232732   6.510   7.323  18.219 -0.1791  0.1906 -0.1660
 2846TIP3    H132733   6.526   7.405  18.172  1.3021 -0.1452 -0.2836
 2846TIP3    H232734   6.595   7.298  18.254 -0.7552 -0.9316  0.4852
 2847TIP3   OH232735   4.218   7.697  17.741 -0.1208 -0.4508  0.2779
 2847TIP3    H132736   4.211   7.774  17.797 -0.0080  0.7090 -1.2333
 2847TIP3    H232737   4.140   7.701  17.685 -1.1311 -2.5254  1.4272
 2848TIP3   OH232738   0.809   6.515  17.885  0.0797 -0.3874  0.4221
 2848TIP3    H132739   0.792   6.443  17.825  1.1909 -0.2551 -0.0576
 2848TIP3    H232740   0.869   6.479  17.950 -1.2288 -0.5769  1.5754
 2849TIP3   OH232741   5.036   0.967  16.655 -0.1426  0.1280 -0.3015
 2849TIP3    H132742   4.973   0.899  16.630  0.4609 -0.6392  0.1974
 2849TIP3    H232743   4.999   1.048  16.621 -0.8815 -0.4520 -0.9285
 2850TIP3   OH232744   3.944   4.454  18.989 -0.5700  0.0084 -0.3078
 2850TIP3    H132745   3.969   4.363  18.969  1.6756  0.2948  0.8290
 2850TIP3    H232746   3.882   4.447  19.061  1.5085 -0.6481  1.5374
 2851TIP3   OH232747   7.184   8.348  18.097 -0.0554 -0.1344 -0.4438
 2851TIP3    H132748   7.140   8.389  18.171 -0.0952  1.5996 -1.3713
 2851TIP3    H232749   7.114   8.320  18.039  0.0033  1.3092 -1.2417
 2852TIP3   OH232750   8.328   7.853  17.964 -0.1319  0.3937  0.4122
 2852TIP3    H132751   8.265   7.894  18.024 -1.5816  0.2342 -0.9262
 2852TIP3    H232752   8.406   7.909  17.969 -0.7718  1.2552  1.2799
 2853TIP3   OH232753   4.559   0.419  17.815  0.3427 -0.1505 -0.2315
 2853TIP3    H132754   4.487   0.468  17.776  2.0594  2.1280 -0.7453
 2853TIP3    H232755   4.520   0.336  17.842 -2.7006  1.4033  0.5450
 2854TIP3   OH232756   6.313   5.061  19.113  0.2323  0.2378  0.6948
 2854TIP3    H132757   6.262   5.009  19.052  1.6586  0.3932 -0.6752
 2854TIP3    H232758   6.262   5.059  19.194 -0.8845 -1.3375  0.0053
 2855TIP3   OH232759   4.928   6.105  16.844  0.3218  0.1070 -0.6436
 2855TIP3    H132760   4.912   6.133  16.934 -1.0438  0.1377 -0.8769
 2855TIP3    H232761   4.943   6.011  16.850 -2.8497 -0.4869 -0.6695
 2856TIP3   OH232762   0.388   1.753  17.203  0.6228 -1.0058  0.1953
 2856TIP3    H132763   0.321   1.749  17.135  0.0986  1.7927  0.4444
 2856TIP3    H232764   0.458   1.805  17.165  0.4807  0.2962  1.6049
 2857TIP3   OH232765   1.203   2.151  17.339  0.4822  0.4749  0.0652
 2857TIP3    H132766   1.247   2.146  17.254 -2.2597  0.3225 -1.4711
 2857TIP3    H232767   1.174   2.061  17.356  0.4173  0.6357  0.8363
 2858TIP3   OH232768   3.541   5.123  17.499 -0.5287  0.1143  0.6597
 2858TIP3    H132769   3.633   5.144  17.511 -0.5625  0.1446  0.8666
 2858TIP3    H232770   3.517   5.166  17.416 -0.7059  1.2538  1.2820
 2859TIP3   OH232771   2.976   6.421  17.126 -0.4393 -0.0093 -0.6132
 2859TIP3    H132772   3.064   6.440  17.158 -0.0298 -2.0839 -0.3215
 2859TIP3    H232773   2.980   6.439  17.032  0.0118  0.8208 -0.4408
 2860TIP3   OH232774   2.932   7.308  17.414 -0.2186 -0.4771 -0.3345
 2860TIP3    H132775   2.952   7.270  17.329  0.0450  1.3838 -1.1379
 2860TIP3    H232776   2.957   7.240  17.477 -2.1908 -2.6830 -1.7478
 2861TIP3   OH232777   1.629   0.628  17.556 -0.4731 -0.4684  0.3066
 2861TIP3    H132778   1.609   0.673  17.638 -3.1848  0.8116 -0.9520
 2861TIP3    H232779   1.597   0.538  17.570 -1.2335 -0.1667  0.5752
 2862TIP3   OH232780   8.115   1.991  18.321  0.0256  0.2032  0.3894
 2862TIP3    H132781   8.057   2.009  18.246 -0.3170  0.0277  0.6116
 2862TIP3    H232782   8.178   2.063  18.319  1.1324 -0.7390 -1.1376
 2863TIP3   OH232783   5.143   1.764  16.928  0.3066  0.4911 -0.2006
 2863TIP3    H132784   5.135   1.695  16.994 -0.5980  0.7517 -0.0197
 2863TIP3    H232785   5.207   1.731  16.865 -0.0570 -0.4751 -0.0722
 2864TIP3   OH232786   0.912   7.412  17.426 -0.2653 -0.0529 -0.0489
 2864TIP3    H132787   0.840   7.348  17.426  0.8240 -1.3212  0.0594
 2864TIP3    H232788   0.961   7.392  17.346  0.6649 -0.0320  0.5042
 2865TIP3   OH232789   2.360   6.643  17.343  0.2240 -0.6543  0.7619
 2865TIP3    H132790   2.310   6.689  17.410  1.0549  0.2022  0.8179
 2865TIP3    H232791   2.441   6.615  17.387 -0.2554 -2.1953  0.7297
 2866TIP3   OH232792   2.082   3.995  18.601 -0.2331  0.8048  0.0315
 2866TIP3    H132793   2.005   3.940  18.591  1.4169 -1.7674  0.4264
 2866TIP3    H232794   2.113   4.009  18.512  0.7168 -1.1316  0.0077
 2867TIP3   OH232795   3.964   1.253  17.952  0.0744  0.3331  0.1277
 2867TIP3    H132796   3.990   1.302  18.030  0.3282 -0.4478  0.5459
 2867TIP3    H232797   4.035   1.190  17.938  0.0787  0.5199 -0.7925
 2868TIP3   OH232798   6.026   2.392  18.515 -0.2905  0.2309  0.1767
 2868TIP3    H132799   6.049   2.485  18.520  0.1618  0.1838 -0.8063
 2868TIP3    H232800   6.107   2.346  18.535  0.2751  0.0640 -2.2323
 2869TIP3   OH232801   7.782   1.774  16.649 -0.8380 -0.0485  0.1125
 2869TIP3    H132802   7.843   1.834  16.694 -1.3079  0.0509  0.6213
 2869TIP3    H232803   7.696   1.796  16.685 -0.9368 -1.5210  0.8466
 2870TIP3   OH232804   4.142   2.392  17.156  0.1853  0.7188  0.6881
 2870TIP3    H132805   4.049   2.370  17.158  0.2098  0.6673  1.3122
 2870TIP3    H232806   4.170   2.370  17.067 -0.6221  1.6359  0.1897
 2871TIP3   OH232807   2.133   5.096  18.167 -0.1602  0.6529  0.0278
 2871TIP3    H132808   2.096   5.026  18.221  0.1113  0.1171 -0.4746
 2871TIP3    H232809   2.225   5.101  18.194  0.3107 -0.4771 -1.2292
 2872TIP3   OH232810   8.094   7.170  18.706  0.3227 -0.4645 -1.2400
 2872TIP3    H132811   8.151   7.229  18.657  0.6921  1.5837  1.3637
 2872TIP3    H232812   8.006   7.206  18.694  0.4800  0.3727 -0.0856
 2873TIP3   OH232813   5.969   1.831  17.905 -0.0293  1.0138  0.2774
 2873TIP3    H132814   6.009   1.878  17.832 -1.2224  1.6373 -0.0093
 2873TIP3    H232815   6.028   1.758  17.923  0.7335  1.3689 -0.7174
 2874TIP3   OH232816   6.483   2.362  19.057 -0.5588  0.6475  0.0734
 2874TIP3    H132817   6.518   2.448  19.034 -2.5626  1.2637 -0.8915
 2874TIP3    H232818   6.397   2.381  19.096 -1.3023 -0.9262 -0.7295
 2875TIP3   OH232819   7.547   0.373  18.453  0.1048  0.1266  0.1479
 2875TIP3    H132820   7.531   0.456  18.498  1.2906  1.3465 -1.5700
 2875TIP3    H232821   7.636   0.349  18.477 -0.5539 -1.2139  1.4132
 2876TIP3   OH232822   1.231   7.854  17.914  0.1537 -0.0707 -0.1449
 2876TIP3    H132823   1.174   7.906  17.857 -1.0737 -1.3643 -0.1525
 2876TIP3    H232824   1.208   7.882  18.002 -0.8632 -0.9318 -0.1267
 2877TIP3   OH232825   8.403   8.447  18.309  0.4296 -0.3355 -0.0339
 2877TIP3    H132826   8.474   8.499  18.271  0.1757 -0.6259 -0.9239
 2877TIP3    H232827   8.447   8.372  18.348  0.7559  0.3155  0.8732
 2878TIP3   OH232828   0.143   6.157  17.099  0.7075  0.4751  0.1361
 2878TIP3    H132829   0.151   6.165  17.194 -0.5229 -0.1069  0.3152
 2878TIP3    H232830   0.145   6.062  17.083 -0.4137  0.4903 -0.2508
 2879TIP3   OH232831   3.752   1.926  18.401  0.4477 -0.0668  0.2532
 2879TIP3    H132832   3.657   1.921  18.394  0.2354 -0.6136  2.6087
 2879TIP3    H232833   3.782   1.836  18.388  0.6325  0.0773 -0.3313
 2880TIP3   OH232834   5.449   2.965  18.207  0.1882  0.5653  0.2239
 2880TIP3    H132835   5.411   2.949  18.120  0.6281  1.1217 -0.0792
 2880TIP3    H232836   5.527   2.911  18.209  0.7950  1.3968 -0.1775
 2881TIP3   OH232837   8.069   3.564  18.201  0.2228 -0.0318 -0.3657
 2881TIP3    H132838   8.127   3.602  18.267 -0.5263  2.6381 -1.1408
 2881TIP3    H232839   8.109   3.585  18.117 -0.8862  0.2197 -0.8562
 2882TIP3   OH232840   3.167   1.873  17.587  0.0200 -0.0090 -0.0686
 2882TIP3    H132841   3.086   1.827  17.563  0.1087  0.1269 -0.6286
 2882TIP3    H232842   3.179   1.852  17.680 -0.3843 -0.4482 -0.1083
 2883TIP3   OH232843   6.689   2.311  18.451  0.2002  0.1181 -0.3751
 2883TIP3    H132844   6.758   2.246  18.467  0.1527 -0.1178 -1.1075
 2883TIP3    H232845   6.655   2.331  18.538  2.3514  1.5234  0.2110
 2884TIP3   OH232846   1.552   5.673  17.346  0.3842 -0.1250  0.0302
 2884TIP3    H132847   1.604   5.753  17.342  0.3530 -0.0531  0.9114
 2884TIP3    H232848   1.526   5.656  17.255  0.5188  0.7758 -0.1801
 2885TIP3   OH232849   1.166   6.507  18.608 -0.6042 -0.1898  0.6026
 2885TIP3    H132850   1.117   6.426  18.619  0.2577 -0.5912  1.6828
 2885TIP3    H232851   1.111   6.562  18.552 -1.2082 -1.5071 -0.1260
 2886TIP3   OH232852   0.423   2.023  17.966 -0.1359 -0.0574 -0.5624
 2886TIP3    H132853   0.418   1.954  18.032  1.1794  0.6844  0.3663
 2886TIP3    H232854   0.497   2.077  17.994 -0.7541  1.3824 -1.6015
 2887TIP3   OH232855   2.302   4.313  18.347  0.0387 -0.1276  0.3505
 2887TIP3    H132856   2.397   4.303  18.343  0.1474 -0.4416  2.7094
 2887TIP3    H232857   2.270   4.233  18.388 -1.3234 -0.2079 -0.7587
 2888TIP3   OH232858   2.059   2.602  18.119 -0.1455  0.5090  0.3310
 2888TIP3    H132859   1.971   2.573  18.094  1.1381 -1.9802 -1.8395
 2888TIP3    H232860   2.090   2.533  18.179  0.3789  1.3262  1.0235
 2889TIP3   OH232861   2.737   5.428  18.035 -0.1539  0.9525 -0.1330
 2889TIP3    H132862   2.665   5.409  18.096 -0.4701  0.7663 -0.5600
 2889TIP3    H232863   2.698   5.480  17.966  0.2868  1.4743  0.0037
 2890TIP3   OH232864   6.757   7.275  18.354 -0.4047  0.0158 -0.1170
 2890TIP3    H132865   6.837   7.256  18.305 -1.0988  0.7556 -1.6122
 2890TIP3    H232866   6.758   7.213  18.427  1.6389  0.1881  0.0395
 2891TIP3   OH232867   6.298   1.957  18.886  0.0448  0.1299  0.1989
 2891TIP3    H132868   6.378   2.005  18.864 -0.5305  1.2215  0.4409
 2891TIP3    H232869   6.248   2.017  18.940 -0.9187 -0.5714  0.1114
 2892TIP3   OH232870   6.539   2.128  18.924  0.1593  0.4453 -0.3351
 2892TIP3    H132871   6.632   2.128  18.901  0.2380  0.4244 -0.0146
 2892TIP3    H232872   6.526   2.207  18.976 -0.3654  1.3755 -1.8105
 2893TIP3   OH232873   2.635   1.630  17.799  0.1803 -0.0076 -0.0703
 2893TIP3    H132874   2.568   1.674  17.746 -0.0090 -1.9668 -1.5635
 2893TIP3    H232875   2.586   1.595  17.874 -0.0856  0.3136 -0.0906
 2894TIP3   OH232876   3.930   7.208  17.937  0.6895 -0.1207 -0.6696
 2894TIP3    H132877   4.002   7.259  17.975  0.9365  0.3834 -1.7809
 2894TIP3    H232878   3.971   7.128  17.905  0.3758 -0.8493  0.6497
 2895TIP3   OH232879   2.658   1.030  17.490  0.6033 -0.3293 -0.2237
 2895TIP3    H132880   2.632   1.099  17.551  1.1103 -0.8288  0.5693
 2895TIP3    H232881   2.598   1.040  17.416 -1.0052 -0.6186  0.9840
 2896TIP3   OH232882   2.175   4.206  18.767  0.4116  0.1100 -0.3991
 2896TIP3    H132883   2.105   4.270  18.751 -0.0745 -0.2574  0.2099
 2896TIP3    H232884   2.157   4.135  18.706 -0.5989 -0.6343  0.7172
 2897TIP3   OH232885   1.936   8.304  17.722 -0.2031 -0.2447  0.0664
 2897TIP3    H132886   1.945   8.219  17.679 -0.3565 -0.2099 -0.0365
 2897TIP3    H232887   2.026   8.335  17.733 -0.1884  0.0074 -0.7521
 2898TIP3   OH232888   4.955   7.493  17.459 -0.4984  0.5666  0.3032
 2898TIP3    H132889   5.002   7.443  17.392 -2.9528 -0.3894 -0.8112
 2898TIP3    H232890   4.957   7.436  17.536  1.1598  1.0858  0.6943
 2899TIP3   OH232891   7.357   0.433  18.688  0.4777 -0.1010 -0.0519
 2899TIP3    H132892   7.401   0.503  18.640 -0.4743  0.9355  0.5326
 2899TIP3    H232893   7.356   0.463  18.779 -1.2665 -0.1673 -0.0268
 2900TIP3   OH232894   8.369   0.887  18.717  0.5941  0.4927  0.4246
 2900TIP3    H132895   8.328   0.968  18.745 -0.2436  0.2001  0.0617
 2900TIP3    H232896   8.335   0.820  18.777 -0.3143  0.0638 -0.5356
 2901TIP3   OH232897   5.968   3.430  17.820 -0.0336  0.2647 -0.6259
 2901TIP3    H132898   6.054   3.393  17.803 -0.7288 -1.1832 -1.1346
 2901TIP3    H232899   5.908   3.356  17.817 -0.9784  0.6892  2.8400
 2902TIP3   OH232900   7.169   1.697  16.624 -0.2501  0.2608  0.1254
 2902TIP3    H132901   7.181   1.763  16.692  0.0579 -0.5948  0.9360
 2902TIP3    H232902   7.078   1.706  16.596 -0.7758 -0.2129  1.5992
 2903TIP3   OH232903   7.542   0.026  18.112 -0.2329 -0.3311  0.0441
 2903TIP3    H132904   7.455   0.022  18.154  0.5091  0.2398  1.7338
 2903TIP3    H232905   7.561   0.120  18.106  0.6723 -0.4724  0.5822
 2904TIP3   OH232906   2.139   1.349  18.683  0.4973 -0.1166 -0.1418
 2904TIP3    H132907   2.147   1.351  18.779 -1.9670  2.2706  0.0994
 2904TIP3    H232908   2.110   1.260  18.664  0.5329 -0.4885  1.3754
 2905TIP3   OH232909   7.347   3.079  18.303 -0.1314  0.0003  0.6944
 2905TIP3    H132910   7.288   3.147  18.270  0.9973  1.2745  1.2209
 2905TIP3    H232911   7.349   3.013  18.233  0.1284  1.3579 -0.6216
 2906TIP3   OH232912   1.597   0.540  18.672  0.5074  0.1849 -0.1423
 2906TIP3    H132913   1.561   0.601  18.608  0.5848 -0.6796 -1.0283
 2906TIP3    H232914   1.691   0.557  18.673  0.2352  2.0187  1.7252
 2907TIP3   OH232915   7.067   8.058  17.994  0.3132 -0.0758  0.8224
 2907TIP3    H132916   7.041   8.140  17.953 -0.0347 -0.7964 -0.4501
 2907TIP3    H232917   7.150   8.035  17.952 -1.0763 -1.9017 -1.1677
 2908TIP3   OH232918   0.050   0.600  18.003 -0.4577 -0.2558  0.3607
 2908TIP3    H132919   0.097   0.525  17.968 -0.6931 -0.8931  1.3709
 2908TIP3    H232920  -0.040   0.570  18.013 -0.3719 -0.1621  1.6291
 2909TIP3   OH232921   1.642   1.126  16.671  0.0412 -0.2139  0.3498
 2909TIP3    H132922   1.666   1.158  16.758  0.7295 -1.5824  0.6914
 2909TIP3    H232923   1.629   1.032  16.683 -0.8320 -0.2694 -0.8377
 2910TIP3   OH232924   0.433   5.933  18.327 -0.5261 -0.3017  0.1695
 2910TIP3    H132925   0.448   5.902  18.416  1.7347 -0.2523 -0.1336
 2910TIP3    H232926   0.485   5.874  18.272 -1.0056  0.3430 -1.0206
 2911TIP3   OH232927   2.403   4.363  18.747 -1.3432  0.0033 -0.2130
 2911TIP3    H132928   2.324   4.314  18.771 -1.3813  1.2772  2.6465
 2911TIP3    H232929   2.474   4.300  18.757 -1.7383 -0.4663 -0.2968
 2912TIP3   OH232930   4.741   2.637  16.771 -0.3530  0.3267  0.2120
 2912TIP3    H132931   4.789   2.555  16.776 -1.8713 -0.5406  1.4000
 2912TIP3    H232932   4.657   2.613  16.732  0.7676  2.1636 -3.9968
 2913TIP3   OH232933   5.885   5.861  16.872  0.0415 -0.3378 -0.7963
 2913TIP3    H132934   5.862   5.897  16.958  0.2625 -0.6285 -0.6151
 2913TIP3    H232935   5.884   5.766  16.884  1.5129 -0.3674 -0.7210
 2914TIP3   OH232936   2.211   2.723  18.493  0.3122  0.3642 -0.0469
 2914TIP3    H132937   2.261   2.708  18.413  1.7622  1.8604  0.5077
 2914TIP3    H232938   2.120   2.723  18.465  0.8063  1.8149 -1.9149
 2915TIP3   OH232939   2.603   6.667  17.684  0.0296 -0.2386  0.6184
 2915TIP3    H132940   2.512   6.663  17.715  0.1206  0.7817  1.0805
 2915TIP3    H232941   2.599   6.636  17.594 -1.1901  1.8341 -0.1209
 2916TIP3   OH232942   1.593   3.337  18.644 -0.4969  0.4483 -0.4402
 2916TIP3    H132943   1.671   3.382  18.611 -1.2773  0.7242 -2.0182
 2916TIP3    H232944   1.520   3.392  18.616 -1.2955  0.0353  0.7466
 2917TIP3   OH232945   6.424   8.448  16.467 -0.1694  0.3841 -0.3937
 2917TIP3    H132946   6.371   8.517  16.506 -0.5007  0.6836 -1.3337
 2917TIP3    H232947   6.463   8.489  16.390 -1.0206 -0.6825 -1.4275
 2918TIP3   OH232948   8.285   2.134  18.609  0.7923 -0.6073 -0.1101
 2918TIP3    H132949   8.259   2.171  18.694 -0.4040  0.8701 -1.0736
 2918TIP3    H232950   8.243   2.048  18.607 -1.5213  0.4671 -0.3208
 2919TIP3   OH232951   7.587   1.501  17.527  0.2201  0.8303  0.2957
 2919TIP3    H132952   7.605   1.589  17.559  1.8261  1.1456 -1.2629
 2919TIP3    H232953   7.564   1.513  17.435  2.6251 -0.4670 -0.5736
 2920TIP3   OH232954   6.277   5.291  18.670  0.0369  0.7555  0.3297
 2920TIP3    H132955   6.351   5.351  18.682  1.0671 -0.3358 -0.3503
 2920TIP3    H232956   6.295   5.248  18.587 -1.7912  1.0210 -0.2403
 2921TIP3   OH232957   4.527   5.761  16.668 -0.0840  0.4869 -0.1592
 2921TIP3    H132958   4.443   5.807  16.659  0.0428  0.6580 -0.4846
 2921TIP3    H232959   4.504   5.669  16.668 -0.2556  0.5305 -0.4181
 2922TIP3   OH232960   1.626   4.071  17.194  0.2177  0.6456  0.3613
 2922TIP3    H132961   1.716   4.092  17.167 -0.2017  1.5375 -0.3733
 2922TIP3    H232962   1.573   4.144  17.161 -0.6821  0.4855  1.4090
 2923TIP3   OH232963   2.211   7.319  18.434 -0.1407  0.9627  0.2103
 2923TIP3    H132964   2.270   7.311  18.359  1.9351 -0.7607  1.8610
 2923TIP3    H232965   2.187   7.411  18.436  0.7126  1.2885 -1.8474
 2924TIP3   OH232966   8.327   8.003  18.341  0.4488 -0.4048 -0.3100
 2924TIP3    H132967   8.375   8.085  18.354  0.0992 -0.2309 -0.0972
 2924TIP3    H232968   8.276   8.017  18.262  1.2283 -0.8258 -0.9052
 2925TIP3   OH232969   6.317   1.754  16.169  0.2606  0.0781 -0.2639
 2925TIP3    H132970   6.358   1.828  16.122  1.7384  0.4559  1.4757
 2925TIP3    H232971   6.390   1.713  16.215 -0.1045 -3.8792 -2.8185
 2926TIP3   OH232972   7.577   8.368  18.844  0.0023  0.9257  0.3364
 2926TIP3    H132973   7.549   8.444  18.792 -0.6404  1.2160  1.0942
 2926TIP3    H232974   7.497   8.319  18.860  0.3248  0.4072  0.3859
 2927TIP3   OH232975   6.849   5.086  17.735 -0.1494 -0.1344  0.0331
 2927TIP3    H132976   6.940   5.110  17.718 -0.8449  2.0901 -0.9983
 2927TIP3    H232977   6.833   5.114  17.825 -0.3929  1.5952 -0.5175
 2928TIP3   OH232978   5.746   0.995  18.252  0.2096 -0.4988 -0.5353
 2928TIP3    H132979   5.723   0.962  18.338 -0.8931 -2.7478 -1.5898
 2928TIP3    H232980   5.830   0.954  18.232  0.2572 -0.3266 -0.6946
 2929TIP3   OH232981   3.069   0.264  16.995 -0.4460  0.1413 -0.0602
 2929TIP3    H132982   3.050   0.205  17.068  0.9779 -1.1063 -0.6482
 2929TIP3    H232983   3.021   0.344  17.016 -2.7046 -1.2880  0.6259
 2930TIP3   OH232984   8.264   6.036  18.093 -0.4265  0.0911 -0.1592
 2930TIP3    H132985   8.267   6.012  18.000 -1.3561 -2.3581  0.3652
 2930TIP3    H232986   8.312   5.966  18.137  0.7103  1.6451  1.1837
 2931TIP3   OH232987   5.319   0.136  17.537 -0.0003  0.0796 -0.2260
 2931TIP3    H132988   5.353   0.148  17.449  1.0349 -0.4055  0.0990
 2931TIP3    H232989   5.372   0.193  17.593 -0.6603  0.4035  0.0969
 2932TIP3   OH232990   1.977   8.427  18.166 -0.3613 -0.2139  0.1403
 2932TIP3    H132991   2.017   8.398  18.248 -2.1894 -0.4178  1.0116
 2932TIP3    H232992   1.937   8.511  18.187 -1.5003 -0.6248 -0.3000
 2933TIP3   OH232993   7.468   7.033  17.760 -0.2741  0.5739 -0.2040
 2933TIP3    H132994   7.482   7.128  17.752 -1.9942  0.7462 -1.9386
 2933TIP3    H232995   7.373   7.023  17.759 -0.1159 -1.2407 -1.4192
 2934TIP3   OH232996   5.855   5.266  18.025  0.3334  0.8139  0.7823
 2934TIP3    H132997   5.772   5.307  18.048  0.1222  1.7905 -1.4190
 2934TIP3    H232998   5.831   5.191  17.971  0.7940 -1.3463  3.3989
 2935TIP3   OH232999   7.286   3.973  18.826 -0.4100  0.6447  0.6110
 2935TIP3    H133000   7.236   3.926  18.760 -2.7174  1.3091  1.7648
 2935TIP3    H233001   7.306   3.906  18.892  1.5542  0.0689 -0.4911
 2936TIP3   OH233002   2.099   7.354  17.590 -0.2096  0.2716 -0.2178
 2936TIP3    H133003   2.061   7.430  17.634  1.4032  1.0325 -0.1045
 2936TIP3    H233004   2.081   7.369  17.497  0.4102  0.9661 -0.2273
 2937TIP3   OH233005   3.165   3.005  17.251  0.1381  0.1578  0.5440
 2937TIP3    H133006   3.160   2.976  17.160 -1.0112 -0.0382  0.6493
 2937TIP3    H233007   3.202   3.093  17.247  2.5194 -0.7911  0.1174
 2938TIP3   OH233008   6.964   8.422  18.251 -0.0916  0.1643 -0.2661
 2938TIP3    H133009   6.912   8.422  18.170 -1.4753  1.5183  0.5696
 2938TIP3    H233010   6.948   8.507  18.290  0.3298 -0.5598  1.5857
 2939TIP3   OH233011   4.891   1.703  17.369 -0.1312  0.1134 -0.3208
 2939TIP3    H133012   4.915   1.697  17.462 -1.2210  1.8735  0.1259
 2939TIP3    H233013   4.798   1.680  17.368 -0.6730  2.1744 -0.6186
 2940TIP3   OH233014   3.277   4.580  18.126  0.0585  0.3088  0.2694
 2940TIP3    H133015   3.266   4.502  18.181 -0.1210  0.0372 -0.1456
 2940TIP3    H233016   3.367   4.608  18.141 -0.0019  0.2674  0.7347
 2941TIP3   OH233017   2.512   6.015  17.641 -0.4725 -0.0319 -0.4475
 2941TIP3    H133018   2.506   5.965  17.560 -0.0478 -1.1604  0.1938
 2941TIP3    H233019   2.606   6.030  17.653 -0.5267  0.0408 -0.1055
 2942TIP3   OH233020   6.378   6.279  16.942  0.0571 -0.1321 -0.0893
 2942TIP3    H133021   6.309   6.277  16.875 -0.6969 -0.2912  0.6662
 2942TIP3    H233022   6.459   6.267  16.894 -0.5360 -1.0976 -0.8886
 2943TIP3   OH233023   2.840   7.074  16.820 -0.4009  0.3156 -0.9385
 2943TIP3    H133024   2.786   7.150  16.799 -0.1816  0.3036 -1.5968
 2943TIP3    H233025   2.913   7.079  16.758  0.7298  0.7110  0.3888
 2944TIP3   OH233026   2.390   6.341  18.344 -0.2059  0.2159  0.2756
 2944TIP3    H133027   2.455   6.278  18.311 -0.4231 -0.1829  0.5938
 2944TIP3    H233028   2.350   6.296  18.418 -1.6856 -0.0548 -0.6304
 2945TIP3   OH233029   2.050   4.087  17.386  0.3151 -0.4831  0.1879
 2945TIP3    H133030   2.135   4.045  17.376  0.7654 -0.0639  1.9519
 2945TIP3    H233031   2.041   4.143  17.309  2.1615  0.3673  0.5455
 2946TIP3   OH233032   7.316   6.447  17.179  0.1604  0.0505  0.1159
 2946TIP3    H133033   7.400   6.473  17.217  0.3465  0.0655 -0.3009
 2946TIP3    H233034   7.333   6.441  17.085  0.1582 -1.6387  0.1876
 2947TIP3   OH233035   7.404   0.906  18.685  0.5749  0.4106  0.2503
 2947TIP3    H133036   7.315   0.871  18.682  0.8732 -0.3825  0.2463
 2947TIP3    H233037   7.457   0.832  18.716  1.4080  0.5128 -0.8638
 2948TIP3   OH233038   7.259   4.659  18.783  0.1454 -0.5825 -0.3008
 2948TIP3    H133039   7.179   4.605  18.789  0.1156 -0.8503 -2.2856
 2948TIP3    H233040   7.239   4.723  18.715  1.1452  0.2526  0.1703
 2949TIP3   OH233041   8.085   8.200  17.731 -0.0995  0.5242 -0.0081
 2949TIP3    H133042   8.014   8.260  17.754 -0.1162  0.3179  0.4815
 2949TIP3    H233043   8.044   8.136  17.673 -0.8991 -0.9654  2.0922
 2950TIP3   OH233044   4.583   2.986  18.080  0.2204 -0.7152 -0.1293
 2950TIP3    H133045   4.497   3.022  18.059 -0.5214 -1.4898  1.4204
 2950TIP3    H233046   4.575   2.892  18.059 -0.1798 -1.2910  2.3322
 2951TIP3   OH233047   3.071   5.065  17.202 -0.1721 -0.2926 -0.7148
 2951TIP3    H133048   3.095   5.157  17.216 -1.9541  0.1202 -0.1685
 2951TIP3    H233049   3.092   5.022  17.285 -0.3631 -0.1438 -0.5882
 2952TIP3   OH233050   1.707   1.270  17.367 -0.0941  0.7643  0.3594
 2952TIP3    H133051   1.766   1.287  17.294 -0.7349  1.5382  0.0272
 2952TIP3    H233052   1.623   1.307  17.341 -1.2327 -1.7731  0.1151
 2953TIP3   OH233053   6.566   0.965  17.917 -0.6052 -0.2941 -0.0639
 2953TIP3    H133054   6.534   0.887  17.871 -0.4638 -0.8698  0.7968
 2953TIP3    H233055   6.547   0.948  18.009 -0.3701  0.6008  0.1584
 2954TIP3   OH233056   8.408   3.177  19.041 -0.0410 -0.3311  0.6597
 2954TIP3    H133057   8.415   3.272  19.034 -1.4858 -0.3062 -1.7304
 2954TIP3    H233058   8.317   3.162  19.069 -0.3225 -0.9834 -0.5152
 2955TIP3   OH233059   0.453   5.023  17.465  0.1176  0.2648 -0.1283
 2955TIP3    H133060   0.455   5.104  17.414 -2.5049  0.5305  0.0375
 2955TIP3    H233061   0.368   4.984  17.444  0.6879 -1.6807  0.9559
 2956TIP3   OH233062   3.466   6.251  18.471 -0.5787  0.8092 -0.4719
 2956TIP3    H133063   3.415   6.326  18.440 -1.0274  0.5102 -0.4733
 2956TIP3    H233064   3.516   6.285  18.545 -0.1618  1.3076 -0.9883
 2957TIP3   OH233065   8.105   0.567  18.490 -0.4071  0.3274 -0.3241
 2957TIP3    H133066   8.100   0.517  18.571 -2.6795  0.1724 -0.4992
 2957TIP3    H233067   8.110   0.500  18.421 -2.1180  0.3438 -0.4864
 2958TIP3   OH233068   5.414   2.026  18.300 -0.1951 -0.4269 -0.6230
 2958TIP3    H133069   5.369   1.944  18.278 -1.5949  0.3008 -0.6168
 2958TIP3    H233070   5.424   2.071  18.217 -1.6259  0.4380 -0.3626
 2959TIP3   OH233071   5.562   7.442  17.852 -0.5500  0.1028 -0.4543
 2959TIP3    H133072   5.618   7.394  17.914 -1.1605  1.7165  1.4767
 2959TIP3    H233073   5.477   7.397  17.857 -0.5034  0.0215 -0.3913
 2960TIP3   OH233074   6.461   0.207  17.169 -0.1254 -0.2149 -0.1551
 2960TIP3    H133075   6.463   0.279  17.105  0.1444  0.7447  0.9072
 2960TIP3    H233076   6.369   0.184  17.176 -0.3380  0.6975  0.2048
 2961TIP3   OH233077   5.737   1.519  17.079 -0.0328 -0.3326 -0.1140
 2961TIP3    H133078   5.771   1.463  17.009  0.9659 -0.2587  0.2999
 2961TIP3    H233079   5.775   1.483  17.159  0.4414  0.8070  0.1820
 2962TIP3   OH233080   6.997   0.143  17.909  0.2748  0.5291  0.1394
 2962TIP3    H133081   6.989   0.221  17.854  1.5262  0.1948 -0.5664
 2962TIP3    H233082   7.002   0.177  17.998  0.5936  1.2509 -0.1409
 2963TIP3   OH233083   2.184   2.114  17.087  0.3508  0.4134  0.3060
 2963TIP3    H133084   2.182   2.039  17.028  0.1943  0.0847  0.7156
 2963TIP3    H233085   2.253   2.171  17.053  0.3291  0.1828 -0.1291
 2964TIP3   OH233086   2.463   5.827  16.734  0.1684 -0.2474  0.6780
 2964TIP3    H133087   2.511   5.910  16.739  0.1027 -0.0815 -0.8841
 2964TIP3    H233088   2.528   5.761  16.755  0.9901  0.0235 -0.8132
 2965TIP3   OH233089   4.771   7.777  18.445  0.6948  0.0006 -0.3238
 2965TIP3    H133090   4.754   7.686  18.469 -0.6212 -0.0972 -1.4723
 2965TIP3    H233091   4.703   7.797  18.380  0.3789  2.0886  0.5889
 2966TIP3   OH233092   5.710   2.247  17.953  0.3573  0.3042 -0.3496
 2966TIP3    H133093   5.689   2.163  17.911 -0.1693 -0.1753  0.8294
 2966TIP3    H233094   5.634   2.302  17.936 -0.3475 -0.2533  0.8703
 2967TIP3   OH233095   0.299   4.798  18.196  0.1116 -0.7218  0.1141
 2967TIP3    H133096   0.371   4.773  18.255  0.0508 -0.4508  0.3053
 2967TIP3    H233097   0.221   4.793  18.251  0.1092 -0.0097  0.1871
 2968TIP3   OH233098   5.280   0.930  18.112 -0.2711  0.2291 -0.3971
 2968TIP3    H133099   5.344   0.884  18.167 -0.6361  1.5121  1.1984
 2968TIP3    H233100   5.328   1.004  18.076 -0.4978  0.4148 -0.3222
 2969TIP3   OH233101   6.694   4.470  17.631  0.1364 -0.4445 -0.5375
 2969TIP3    H133102   6.761   4.537  17.622 -0.1014 -0.1674 -0.2457
 2969TIP3    H233103   6.621   4.501  17.577 -0.5278  0.2464  0.7091
 2970TIP3   OH233104   5.771   2.900  16.652  0.7284  0.4163  0.3817
 2970TIP3    H133105   5.720   2.822  16.631  0.1544  1.5312 -3.0199
 2970TIP3    H233106   5.848   2.895  16.595 -0.7264  3.5624 -2.1963
 2971TIP3   OH233107   3.898   2.373  18.452 -0.3839  0.3648  0.2213
 2971TIP3    H133108   3.839   2.318  18.400  0.7556 -0.2298 -0.4790
 2971TIP3    H233109   3.985   2.342  18.429  0.2364  1.7333  0.6731
 2972TIP3   OH233110   5.762   8.208  16.799  0.0034 -0.2797 -0.2848
 2972TIP3    H133111   5.818   8.133  16.781 -0.5296 -0.7916  0.1235
 2972TIP3    H233112   5.734   8.195  16.890 -1.6395 -0.6326 -0.8138
 2973TIP3   OH233113   7.584   0.818  17.641  0.3911  0.4544 -0.5271
 2973TIP3    H133114   7.541   0.903  17.635  2.0943  1.4821  0.6908
 2973TIP3    H233115   7.563   0.774  17.559  0.1188  2.3681 -1.5386
 2974TIP3   OH233116   6.615   0.668  18.044  0.0094 -0.1984 -0.3615
 2974TIP3    H133117   6.571   0.682  17.960  0.8981 -0.8726 -0.9593
 2974TIP3    H233118   6.697   0.626  18.021 -0.1143 -1.2025  0.9269
 2975TIP3   OH233119   3.385   4.109  17.632  0.2886 -0.5048  0.1758
 2975TIP3    H133120   3.337   4.143  17.707 -0.7579 -0.0176 -0.6699
 2975TIP3    H233121   3.350   4.021  17.618  0.2353 -0.4666  0.0635
 2976TIP3   OH233122   7.314   0.792  17.933  0.0698  0.0164  0.1254
 2976TIP3    H133123   7.348   0.841  18.008  0.9711 -0.3961 -0.0048
 2976TIP3    H233124   7.271   0.858  17.879 -1.8195  0.1288  1.6498
 2977TIP3   OH233125   4.940   0.278  17.912  0.2277  0.4660 -0.0643
 2977TIP3    H133126   4.991   0.231  17.846 -1.8664 -0.8962 -0.7930
 2977TIP3    H233127   4.956   0.230  17.993  0.3105  0.2045 -0.2351
 2978TIP3   OH233128   3.407   6.688  17.507 -0.1712 -0.2701  0.7168
 2978TIP3    H133129   3.428   6.614  17.450  0.7786  0.6176 -0.1084
 2978TIP3    H233130   3.491   6.722  17.535 -0.5575  1.1337  0.2575
 2979TIP3   OH233131   0.134   0.583  17.621  0.2138  0.0076 -0.2258
 2979TIP3    H133132   0.125   0.662  17.674  0.1063  0.3560 -0.7637
 2979TIP3    H233133   0.216   0.543  17.653 -0.2077 -0.1649  0.6840
 2980TIP3   OH233134   5.152   3.470  18.754  0.4986  0.1523  0.2346
 2980TIP3    H133135   5.124   3.445  18.666  0.8493 -1.3584  0.5192
 2980TIP3    H233136   5.071   3.482  18.803  0.3171 -0.2114  0.0232
 2981TIP3   OH233137   7.947   2.897  19.003  0.0877  0.0979  0.8679
 2981TIP3    H133138   7.959   2.955  18.928  0.3597  1.5806  2.0115
 2981TIP3    H233139   7.861   2.858  18.989 -0.7353  1.8529  0.7281
 2982TIP3   OH233140   2.890   5.296  17.520 -0.2481 -0.2168 -0.4981
 2982TIP3    H133141   2.972   5.332  17.488 -0.4773  0.9084  0.0993
 2982TIP3    H233142   2.844   5.265  17.442 -1.2535  3.3701 -1.5397
 2983TIP3   OH233143   7.552   1.774  16.778  0.2100 -0.4258  0.6942
 2983TIP3    H133144   7.486   1.841  16.797 -0.0639 -0.9106  1.5598
 2983TIP3    H233145   7.508   1.692  16.800  1.3635 -0.7097  2.1402
 2984TIP3   OH233146   2.616   5.962  18.089  0.4538 -0.3026 -0.4762
 2984TIP3    H133147   2.534   5.914  18.077  1.1878 -1.7206 -0.1282
 2984TIP3    H233148   2.675   5.923  18.025  0.7213  1.0859 -1.1022
 2985TIP3   OH233149   0.011   3.974  17.935  0.6911 -0.3175 -0.1451
 2985TIP3    H133150  -0.007   4.012  17.849  1.7565  1.1735  0.2534
 2985TIP3    H233151   0.099   3.936  17.927  0.3395 -1.1880 -0.0220
 2986TIP3   OH233152   2.348   3.748  18.309 -0.0382 -0.4099  0.5448
 2986TIP3    H133153   2.381   3.663  18.338  0.2806 -0.4960 -0.0643
 2986TIP3    H233154   2.254   3.745  18.328 -0.7513 -2.2853 -2.6362
 2987TIP3   OH233155   1.548   3.797  18.159 -1.1088 -0.1837 -0.3553
 2987TIP3    H133156   1.511   3.779  18.245 -3.1584  2.4818 -0.5343
 2987TIP3    H233157   1.474   3.788  18.099 -0.7852  2.1080 -1.1983
 2988TIP3   OH233158   7.743   1.634  18.687  0.6343 -0.6006  0.1986
 2988TIP3    H133159   7.656   1.650  18.650  0.5206  0.5967  0.9313
 2988TIP3    H233160   7.802   1.686  18.634  0.8761 -1.1896 -0.1190
 2989TIP3   OH233161   7.302   1.454  16.689 -0.4592  0.5834 -0.5800
 2989TIP3    H133162   7.364   1.460  16.761 -2.3845 -0.2874  1.2597
 2989TIP3    H233163   7.262   1.541  16.684 -0.5381  0.5593 -0.3765
 2990TIP3   OH233164   5.461   4.945  17.172  0.0681  0.1764  0.1557
 2990TIP3    H133165   5.390   4.934  17.109  1.7477  0.7327 -1.9867
 2990TIP3    H233166   5.438   4.889  17.245 -3.0181  1.0667 -0.0050
 2991TIP3   OH233167   7.554   7.661  17.370  0.4287 -0.3044 -0.1754
 2991TIP3    H133168   7.490   7.618  17.314  0.1024 -1.0563  0.7548
 2991TIP3    H233169   7.632   7.606  17.366  0.2628 -0.5937  0.4258
 2992TIP3   OH233170   5.008   7.250  17.162  0.6464  0.4401 -0.1579
 2992TIP3    H133171   5.088   7.200  17.174  0.9305  1.1327  1.0556
 2992TIP3    H233172   5.016   7.289  17.075  0.2336 -1.8910 -1.3083
 2993TIP3   OH233173   7.537   3.432  18.679 -0.0608  0.2995 -0.1666
 2993TIP3    H133174   7.493   3.405  18.598  1.3965 -0.5965 -0.6970
 2993TIP3    H233175   7.470   3.481  18.727 -1.6822 -1.1584 -0.8353
 2994TIP3   OH233176   6.956   5.904  18.341 -0.1783 -0.0112 -0.1470
 2994TIP3    H133177   6.943   5.959  18.418 -1.5217  0.2360 -0.5245
 2994TIP3    H233178   6.871   5.863  18.326  0.2479 -0.5857 -1.0993
 2995TIP3   OH233179   4.439   1.681  17.022  0.1830  0.2912  0.1232
 2995TIP3    H133180   4.503   1.613  17.001  0.1756 -0.0768  1.2298
 2995TIP3    H233181   4.393   1.647  17.099  0.8591  1.9875  1.3185
 2996TIP3   OH233182   3.473   3.100  17.518  0.1513 -0.2200 -0.1239
 2996TIP3    H133183   3.536   3.059  17.459 -1.6062 -1.5656 -1.1553
 2996TIP3    H233184   3.419   3.027  17.551 -0.0829  0.7125  1.7422
 2997TIP3   OH233185   1.929   2.372  18.240 -0.1560  0.4437  0.1693
 2997TIP3    H133186   1.986   2.303  18.207  0.1767  0.9320 -0.2906
 2997TIP3    H233187   1.841   2.333  18.239  0.0774 -0.0862  0.2543
 2998TIP3   OH233188   6.988   8.147  16.534  0.2396  0.2121 -0.5310
 2998TIP3    H133189   6.946   8.061  16.533  1.5138 -0.6247  2.9284
 2998TIP3    H233190   7.066   8.136  16.479  0.4757 -0.9509 -0.0050
 2999TIP3   OH233191   7.783   8.049  18.138 -0.2432  0.7335 -0.4138
 2999TIP3    H133192   7.746   8.137  18.143  1.0718  1.2473  1.2500
 2999TIP3    H233193   7.791   8.021  18.229  3.0693  0.5625 -0.6376
 3000TIP3   OH233194   2.550   3.179  18.118  0.2619  0.1723 -0.6774
 3000TIP3    H133195   2.456   3.170  18.099 -0.2327  1.3525  0.9379
 3000TIP3    H233196   2.586   3.093  18.098 -1.6048 -1.0494  0.7518
 3001TIP3   OH233197   8.167   2.019  17.129  0.1499  0.1769 -0.6753
 3001TIP3    H133198   8.107   1.945  17.140  0.5597 -0.0972 -0.2616
 3001TIP3    H233199   8.127   2.072  17.060  0.2679 -0.8649 -1.5827
 3002TIP3   OH233200   5.331   1.044  16.605 -0.0180  0.4457 -0.2000
 3002TIP3    H133201   5.260   1.004  16.655  0.1269 -0.2659 -0.5509
 3002TIP3    H233202   5.289   1.110  16.551 -0.3444  0.3848 -0.0198
 3003TIP3   OH233203   3.717   4.580  18.462 -0.1306 -0.0681 -0.0912
 3003TIP3    H133204   3.767   4.627  18.395  0.4225 -1.4425 -0.6762
 3003TIP3    H233205   3.736   4.626  18.543 -0.9137  1.7181 -0.8538
 3004TIP3   OH233206   0.190   2.570  18.452  0.7366 -0.3257 -0.1665
 3004TIP3    H133207   0.202   2.624  18.373 -0.0581  1.8780  1.1101
 3004TIP3    H233208   0.097   2.547  18.451  0.6079  0.1409  0.3469
 3005TIP3   OH233209   5.101   7.916  18.319  0.8923 -0.4437  0.0651
 3005TIP3    H133210   5.084   7.991  18.376 -1.8114  0.5363 -1.8563
 3005TIP3    H233211   5.169   7.947  18.259  2.8344 -1.0574  1.8389
 3006TIP3   OH233212   7.232   1.615  17.810 -0.0806  0.2914 -0.0567
 3006TIP3    H133213   7.323   1.602  17.836 -0.1374 -2.6950 -0.8854
 3006TIP3    H233214   7.187   1.639  17.891  0.7677 -2.6166  1.4302
 3007TIP3   OH233215   7.813   7.037  17.991 -0.0108 -0.5387 -0.0890
 3007TIP3    H133216   7.816   6.970  17.922  0.6442 -0.1457 -0.4573
 3007TIP3    H233217   7.886   7.016  18.049 -0.9916 -1.2912  0.9072
 3008TIP3   OH233218   0.399   7.843  16.785  0.0974  0.5196 -0.0241
 3008TIP3    H133219   0.344   7.791  16.727  1.2994  0.7726 -1.4580
 3008TIP3    H233220   0.416   7.924  16.736  0.6198  1.0212  0.9543
 3009TIP3   OH233221   4.566   2.001  18.414  0.4462 -0.1335  0.6274
 3009TIP3    H133222   4.595   1.997  18.322  1.9386  0.3661  1.0458
 3009TIP3    H233223   4.553   1.910  18.439  2.7180 -0.5158  0.6847
 3010TIP3   OH233224   1.214   7.345  18.119 -0.1846  0.2905 -0.1114
 3010TIP3    H133225   1.181   7.427  18.081  0.5756  0.6392 -0.0411
 3010TIP3    H233226   1.154   7.278  18.088 -0.1481  0.7143 -1.1249
 3011TIP3   OH233227   6.636   3.269  17.582 -0.1796 -0.1266 -0.5193
 3011TIP3    H133228   6.546   3.300  17.594 -0.3650  0.0707 -2.2621
 3011TIP3    H233229   6.665   3.250  17.671 -1.3714  1.3877  0.2665
 3012TIP3   OH233230   3.997   7.753  17.610  0.2680  0.6265  0.4054
 3012TIP3    H133231   3.987   7.715  17.523 -0.8845 -3.1508  2.0121
 3012TIP3    H233232   3.921   7.811  17.619 -0.0273  0.4624 -0.7849
 3013TIP3   OH233233   4.592   3.028  18.835  0.3324 -0.0336  0.2609
 3013TIP3    H133234   4.542   3.018  18.916  0.6856 -0.4533  0.4270
 3013TIP3    H233235   4.525   3.042  18.767 -0.0187 -0.7454  0.4535
 3014TIP3   OH233236   0.854   7.718  17.266  0.2625  0.6578 -0.2912
 3014TIP3    H133237   0.857   7.803  17.222 -0.7231 -0.2521 -2.2999
 3014TIP3    H233238   0.898   7.658  17.205  0.5910 -0.3446  0.8898
 3015TIP3   OH233239   7.788   4.082  17.618  0.1527 -0.1262  0.1619
 3015TIP3    H133240   7.736   4.102  17.540  1.3132  0.2507 -0.5486
 3015TIP3    H233241   7.874   4.058  17.583  1.3291  1.9923  1.3663
 3016TIP3   OH233242   0.877   1.410  18.358  0.0004  0.2228 -0.2684
 3016TIP3    H133243   0.814   1.481  18.376  3.2442  3.0625  0.9901
 3016TIP3    H233244   0.859   1.346  18.426 -1.1968  1.1783  0.3775
 3017TIP3   OH233245   7.677   7.268  17.863 -0.2053 -0.6524  0.1125
 3017TIP3    H133246   7.705   7.177  17.877 -1.1849 -0.7962  1.3608
 3017TIP3    H233247   7.688   7.310  17.948 -3.6129 -0.7385  0.7571
 3018TIP3   OH233248   3.317   3.702  16.374  0.4479 -0.5660  0.2272
 3018TIP3    H133249   3.270   3.775  16.414  0.2040 -1.5508  1.8210
 3018TIP3    H233250   3.349   3.737  16.291 -2.4855  0.3501 -0.6345
 3019TIP3   OH233251   6.019   6.430  17.708 -0.1470  0.0629  0.5425
 3019TIP3    H133252   6.085   6.375  17.667  0.4164  0.5711  0.7500
 3019TIP3    H233253   6.054   6.519  17.700  0.2814  0.1347  2.6352
 3020TIP3   OH233254   7.009   7.269  18.251  0.4302 -0.2928  0.6190
 3020TIP3    H133255   7.059   7.285  18.171 -1.1373 -1.2847 -0.6134
 3020TIP3    H233256   7.063   7.306  18.321  2.4738 -0.5879 -0.7266
 3021TIP3   OH233257   6.984   0.410  16.764  0.2236 -0.8078  0.3526
 3021TIP3    H133258   7.018   0.493  16.796  2.4002 -0.9272 -1.4257
 3021TIP3    H233259   7.056   0.348  16.778 -0.3508 -1.7743 -0.8210
 3022TIP3   OH233260   1.013   6.836  17.451  0.3459 -0.4304 -0.6000
 3022TIP3    H133261   1.087   6.884  17.414 -0.1093 -1.4976 -3.0504
 3022TIP3    H233262   1.053   6.774  17.512  1.1553  1.1276  0.5233
 3023TIP3   OH233263   0.766   1.087  17.831 -0.6057  0.3511  0.2780
 3023TIP3    H133264   0.833   1.154  17.818 -0.1441  0.1530  1.4815
 3023TIP3    H233265   0.732   1.070  17.743  0.7733  0.6035 -0.3383
 3024TIP3   OH233266   3.006   3.787  17.479 -0.4622  0.2393  0.6723
 3024TIP3    H133267   2.989   3.786  17.385 -0.8021 -3.4413  0.6062
 3024TIP3    H233268   2.927   3.826  17.517 -1.0812  0.1774 -0.4897
 3025TIP3   OH233269   7.586   5.345  18.344  0.5149 -0.3960 -0.8277
 3025TIP3    H133270   7.651   5.352  18.274  0.2461  2.4089 -0.9076
 3025TIP3    H233271   7.631   5.379  18.421 -0.7236  1.5223 -0.8712
 3026TIP3   OH233272   8.241   4.344  19.549 -0.1113 -0.3668  0.4627
 3026TIP3    H133273   8.236   4.406  19.477 -0.9827 -2.0236 -0.9747
 3026TIP3    H233274   8.182   4.379  19.616 -2.5706 -0.8306 -1.3204
 3027TIP3   OH233275   6.636   5.705  16.223 -0.4703 -0.1469  0.0775
 3027TIP3    H133276   6.618   5.642  16.154 -1.1045  0.0877  0.0261
 3027TIP3    H233277   6.729   5.694  16.241 -0.4449 -0.6772 -0.3464
 3028TIP3   OH233278   3.307   7.409  17.207 -0.3120  0.1107  0.0017
 3028TIP3    H133279   3.276   7.360  17.131 -1.5204 -1.3890  1.3846
 3028TIP3    H233280   3.399   7.385  17.216 -0.6698 -1.2478  0.1411
 3029TIP3   OH233281   8.441   4.475  17.400  0.3539 -0.0816  0.6058
 3029TIP3    H133282   8.445   4.568  17.376 -2.3483  0.2811  1.1854
 3029TIP3    H233283   8.367   4.441  17.350 -0.9637 -0.9922  3.0172
 3030TIP3   OH233284   1.463   4.224  17.035 -0.3754 -0.3279 -0.3183
 3030TIP3    H133285   1.368   4.227  17.047 -0.4862 -0.6187 -1.0689
 3030TIP3    H233286   1.477   4.271  16.952  0.2266  0.5061  0.2382
 3031TIP3   OH233287   3.453   1.956  18.397 -0.4046 -0.2074 -0.1332
 3031TIP3    H133288   3.412   1.870  18.399  0.7046 -0.7518  0.7292
 3031TIP3    H233289   3.381   2.017  18.387 -1.6539 -1.0233  2.7239
 3032TIP3   OH233290   7.876   5.095  19.098  0.5901  0.9008  0.7038
 3032TIP3    H133291   7.814   5.023  19.113 -0.5206  1.9007  1.0325
 3032TIP3    H233292   7.821   5.170  19.077  1.7915  1.2343 -1.6208
 3033TIP3   OH233293   7.389   8.180  17.590 -0.0027  0.1510  0.1094
 3033TIP3    H133294   7.408   8.230  17.669 -1.9057  0.7040  0.2571
 3033TIP3    H233295   7.391   8.089  17.619 -2.1352  0.3854  1.2123
 3034TIP3   OH233296   4.141   7.949  18.498  0.6260  0.2145 -0.2382
 3034TIP3    H133297   4.164   7.965  18.407  1.0458  0.3420 -0.1084
 3034TIP3    H233298   4.142   8.036  18.538  1.2208  0.0645  0.0707
 3035TIP3   OH233299   0.023   4.737  17.906 -0.3319  0.0901  0.3596
 3035TIP3    H133300   0.005   4.643  17.900 -1.0168  0.2219  0.2569
 3035TIP3    H233301  -0.029   4.775  17.835  2.0138  0.2905 -1.3644
 3036TIP3   OH233302   7.246   6.159  17.157 -0.4055  0.2016 -0.5219
 3036TIP3    H133303   7.329   6.115  17.172 -1.0323 -0.9231 -0.2346
 3036TIP3    H233304   7.265   6.252  17.169  0.8050 -0.0399 -0.4991
 3037TIP3   OH233305   6.554   6.018  18.469 -0.3098  0.6796 -0.4150
 3037TIP3    H133306   6.631   5.992  18.518 -0.2805 -0.7325 -1.1478
 3037TIP3    H233307   6.575   6.106  18.436  0.9971  0.3138 -0.6166
 3038TIP3   OH233308   0.426   8.356  18.600 -0.4944  0.2015 -0.3577
 3038TIP3    H133309   0.475   8.304  18.663  0.6778  3.1267  1.3225
 3038TIP3    H233310   0.338   8.319  18.601 -0.0326 -0.9842  1.6364
 3039TIP3   OH233311   2.389   4.061  18.350 -0.0719  0.2043  0.2086
 3039TIP3    H133312   2.359   4.083  18.262 -0.4765 -2.0649 -0.2861
 3039TIP3    H233313   2.423   3.973  18.343  0.6506  0.2649  2.1802
 3040TIP3   OH233314   5.698   2.086  18.514  0.0327  0.4976  0.3206
 3040TIP3    H133315   5.628   2.150  18.495 -0.1475 -0.5332 -3.0803
 3040TIP3    H233316   5.670   2.006  18.470  2.9880 -0.1771 -0.5370
 3041TIP3   OH233317   2.146   4.410  17.276  0.6875 -0.1308 -0.0555
 3041TIP3    H133318   2.055   4.436  17.266  0.9977  1.2846  0.4556
 3041TIP3    H233319   2.158   4.338  17.214 -1.1889 -1.4971  1.0727
 3042TIP3   OH233320   4.199   6.131  18.256 -0.6316  0.2670 -0.2262
 3042TIP3    H133321   4.289   6.135  18.224 -0.3185  0.3005  0.6422
 3042TIP3    H233322   4.176   6.221  18.277 -1.0641  0.3350 -0.9606
 3043TIP3   OH233323   0.953   1.896  17.156  0.2125 -0.3492  0.0056
 3043TIP3    H133324   0.891   1.946  17.210  0.7079 -1.4697  1.6683
 3043TIP3    H233325   0.993   1.963  17.100 -1.6783  0.5667 -0.3407
 3044TIP3   OH233326   0.520   1.022  17.240 -0.2111  0.2332  0.8801
 3044TIP3    H133327   0.500   1.092  17.302 -0.5435  0.3431  0.6481
 3044TIP3    H233328   0.434   0.989  17.213 -0.1262  1.3388 -0.8562
 3045TIP3   OH233329   1.828   3.023  18.668 -0.2368 -0.2836 -0.5465
 3045TIP3    H133330   1.892   3.057  18.729 -2.1275  2.2646  0.1922
 3045TIP3    H233331   1.827   3.086  18.596 -1.4507 -0.5814 -0.8201
 3046TIP3   OH233332   8.146   2.968  18.721  0.5340 -0.1490  0.2958
 3046TIP3    H133333   8.127   3.034  18.788 -0.3011 -0.8702  0.8078
 3046TIP3    H233334   8.067   2.966  18.667  1.4569  0.8916 -1.1431
 3047TIP3   OH233335   3.902   7.003  18.550 -0.1172 -0.4207  0.0350
 3047TIP3    H133336   3.885   6.997  18.456 -0.8241  0.9029  0.0565
 3047TIP3    H233337   3.879   7.093  18.573  1.3758 -0.3068  1.2278
 3048TIP3   OH233338   8.006   7.325  17.395 -0.5832  0.2442  0.4776
 3048TIP3    H133339   8.031   7.287  17.311  2.0638  1.5804  0.5482
 3048TIP3    H233340   8.027   7.257  17.459  0.5722  0.4100  0.2990
 3049TIP3   OH233341   7.680   5.571  18.559 -0.6079  0.3608  0.1531
 3049TIP3    H133342   7.702   5.635  18.627 -1.5655 -0.8388  1.6698
 3049TIP3    H233343   7.718   5.607  18.479  0.5853  1.8311  1.3118
 3050TIP3   OH233344   2.701   0.845  18.086 -0.1606  0.0842 -0.1650
 3050TIP3    H133345   2.717   0.773  18.148 -2.4647  1.2768  2.0099
 3050TIP3    H233346   2.640   0.808  18.022 -1.3216  0.0052  0.9303
 3051TIP3   OH233347   6.278   5.673  18.199  0.4506 -0.2499  0.6034
 3051TIP3    H133348   6.354   5.633  18.241  1.4452  0.2547 -0.6573
 3051TIP3    H233349   6.294   5.767  18.205 -0.2247 -0.1297  0.5974
 3052TIP3   OH233350   6.553   4.202  17.644 -0.1472  0.0383  0.2019
 3052TIP3    H133351   6.521   4.292  17.650  1.4335  0.7389 -1.1711
 3052TIP3    H233352   6.598   4.198  17.560  1.1459 -1.6005  0.9118
 3053TIP3   OH233353   2.764   0.266  17.943  0.0211 -0.1278  0.0222
 3053TIP3    H133354   2.833   0.317  17.901  0.0879 -0.9157 -0.8323
 3053TIP3    H233355   2.806   0.228  18.020  0.5406 -0.5852 -0.4816
 3054TIP3   OH233356   6.672   1.123  16.676  0.5360 -0.4108 -0.0764
 3054TIP3    H133357   6.682   1.125  16.771  2.7200 -0.4093 -0.2617
 3054TIP3    H233358   6.635   1.209  16.654  2.2436  0.5459  0.5943
 3055TIP3   OH233359   0.093   6.884  18.870  0.2236 -0.0690  0.2539
 3055TIP3    H133360   0.057   6.842  18.792 -0.7078  1.6021 -0.2640
 3055TIP3    H233361   0.025   6.946  18.898  1.2200  0.5470  1.4271
 3056TIP3   OH233362   0.974   1.296  17.801  0.0054  0.1955  0.4132
 3056TIP3    H133363   0.995   1.356  17.872  0.7334 -0.1430  0.4925
 3056TIP3    H233364   1.059   1.271  17.764 -0.3130 -0.3408  0.0180
 3057TIP3   OH233365   3.799   7.192  17.404  0.1054 -0.0847  0.4159
 3057TIP3    H133366   3.852   7.230  17.474 -0.3507  0.6610  0.3687
 3057TIP3    H233367   3.833   7.232  17.324 -0.6507  0.5624  0.4036
 3058TIP3   OH233368   2.123   4.648  18.517 -0.4195  0.1980  0.5706
 3058TIP3    H133369   2.067   4.572  18.534 -1.1007  0.7701  0.9131
 3058TIP3    H233370   2.212   4.615  18.531 -0.6878 -0.6035  0.4542
 3059TIP3   OH233371   2.610   4.271  17.572  0.1639 -0.0755  0.8235
 3059TIP3    H133372   2.537   4.248  17.515  0.2184  0.6087  0.4773
 3059TIP3    H233373   2.583   4.238  17.658 -0.9312  0.8991  0.8764
 3060TIP3   OH233374   6.906   0.072  16.878 -0.0589 -0.0651  0.0215
 3060TIP3    H133375   6.889   0.152  16.929 -0.9902 -0.4042  0.2641
 3060TIP3    H233376   6.921   0.103  16.789 -1.1216  0.3282 -0.0256
 3061TIP3   OH233377   6.449   1.528  17.314 -0.2050 -0.1462  0.1948
 3061TIP3    H133378   6.355   1.517  17.303 -0.0177 -1.5746 -0.2130
 3061TIP3    H233379   6.477   1.575  17.235 -0.4839 -0.3641 -0.0400
 3062TIP3   OH233380   2.532   2.195  18.194  0.4822  0.2271 -0.1738
 3062TIP3    H133381   2.525   2.191  18.289  1.1948 -1.3808 -0.1543
 3062TIP3    H233382   2.447   2.163  18.163 -0.2011  1.8933 -0.1196
 3063TIP3   OH233383   7.233   6.069  18.035 -0.0718 -0.1628  0.1049
 3063TIP3    H133384   7.222   5.974  18.034 -2.4925  0.0436 -0.4752
 3063TIP3    H233385   7.214   6.096  17.945  0.1420  0.8896  0.3640
 3064TIP3   OH233386   0.789   7.152  17.166 -0.3571 -0.0822 -0.5774
 3064TIP3    H133387   0.787   7.237  17.122  2.0474  0.2072 -0.2463
 3064TIP3    H233388   0.766   7.172  17.257 -0.9364  0.0093 -0.7372
 3065TIP3   OH233389   6.694   4.688  18.574  0.3098  0.5644 -0.2207
 3065TIP3    H133390   6.731   4.742  18.504  1.5332 -1.3121 -1.1136
 3065TIP3    H233391   6.770   4.668  18.630  0.2429 -1.4675 -0.7923
 3066TIP3   OH233392   3.024   7.952  17.552  0.0212 -0.5259  0.3106
 3066TIP3    H133393   3.005   7.998  17.470  0.0018  0.2195  0.7189
 3066TIP3    H233394   2.940   7.947  17.597 -0.4341 -2.9390 -0.6684
 3067TIP3   OH233395   6.966   0.634  16.539 -0.0372 -0.8644 -0.7689
 3067TIP3    H133396   7.050   0.674  16.516 -0.0650 -0.6312 -0.4652
 3067TIP3    H233397   6.989   0.559  16.593  0.0752 -1.9037 -2.2141
 3068TIP3   OH233398   7.429   1.378  18.699 -0.3847  0.2412  0.2697
 3068TIP3    H133399   7.392   1.296  18.731  0.3582  0.9040  3.1599
 3068TIP3    H233400   7.500   1.350  18.640 -0.7224 -1.1566  0.4761
 3069TIP3   OH233401   4.314   2.448  17.691  0.0459 -0.1311  0.1033
 3069TIP3    H133402   4.279   2.381  17.633  0.5351 -1.5203  1.3366
 3069TIP3    H233403   4.241   2.469  17.750 -0.6249  1.6747 -1.2650
 3070TIP3   OH233404   7.702   7.104  18.927 -0.4094  0.1774 -0.4704
 3070TIP3    H133405   7.732   7.189  18.959 -0.2684  0.1473 -0.5200
 3070TIP3    H233406   7.664   7.061  19.004  1.1850 -0.4588  0.0029
 3071TIP3   OH233407   1.064   5.358  18.058  0.0348  0.4344 -0.4122
 3071TIP3    H133408   1.019   5.442  18.059 -0.8080  0.1663 -3.4414
 3071TIP3    H233409   1.117   5.361  17.978  2.2949 -0.8372  0.9462
 3072TIP3   OH233410   5.848   4.652  18.112  0.0128 -0.0633 -0.0871
 3072TIP3    H133411   5.889   4.692  18.188  1.0657 -1.1263 -0.0650
 3072TIP3    H233412   5.773   4.708  18.092  0.3981  0.8687  1.0210
 3073TIP3   OH233413   6.298   1.843  17.826 -0.4775 -0.4807 -0.3454
 3073TIP3    H133414   6.336   1.771  17.776 -1.1014 -1.3743  0.4208
 3073TIP3    H233415   6.300   1.812  17.917 -0.3261  0.6721  0.0571
 3074TIP3   OH233416   0.824   3.572  17.139 -0.0485 -0.5796  0.0041
 3074TIP3    H133417   0.741   3.597  17.179 -0.1225 -1.3986  0.3842
 3074TIP3    H233418   0.871   3.655  17.127 -0.5697 -0.1941  0.5597
 3075TIP3   OH233419   0.463   5.269  17.812  0.0672  0.0917  0.2490
 3075TIP3    H133420   0.435   5.219  17.888 -0.9705 -0.6990 -0.6193
 3075TIP3    H233421   0.531   5.215  17.771 -0.7353 -0.4165 -0.4386
 3076TIP3   OH233422   3.756   5.833  17.525 -0.0719  0.1063 -0.1321
 3076TIP3    H133423   3.763   5.829  17.620  1.9095 -0.2436 -0.2431
 3076TIP3    H233424   3.774   5.743  17.496  1.1572  0.5831 -0.8990
 3077TIP3   OH233425   2.113   6.254  17.721 -0.0786 -0.0045  0.3320
 3077TIP3    H133426   2.168   6.188  17.679  0.2610  0.8693 -0.6267
 3077TIP3    H233427   2.120   6.235  17.815 -0.7038 -1.8809  0.0382
 3078TIP3   OH233428   6.854   5.880  17.503 -0.4132  0.4554  0.2286
 3078TIP3    H133429   6.892   5.894  17.590 -0.8102 -1.0556  0.6780
 3078TIP3    H233430   6.784   5.817  17.517 -0.1325 -0.2408 -1.2739
 3079TIP3   OH233431   2.581   5.504  16.994  0.1297  0.0331  0.1248
 3079TIP3    H133432   2.510   5.569  16.992 -1.4063 -1.4921  1.6161
 3079TIP3    H233433   2.544   5.426  16.954  1.2590 -0.5557  0.1888
 3080TIP3   OH233434   7.452   0.656  17.403 -0.3300 -0.2635 -0.3004
 3080TIP3    H133435   7.499   0.602  17.339  1.5433  0.1053  0.7018
 3080TIP3    H233436   7.410   0.593  17.461  0.2209 -0.6405 -0.3002
 3081TIP3   OH233437   6.304   8.143  17.485 -0.1333 -0.2049 -0.2353
 3081TIP3    H133438   6.388   8.145  17.439 -0.2361 -2.3950 -0.6337
 3081TIP3    H233439   6.278   8.235  17.492  1.9455  0.4673 -0.7189
 3082TIP3   OH233440   1.450   4.778  18.570 -0.2787  0.0313 -0.0253
 3082TIP3    H133441   1.385   4.748  18.507  0.9433  0.5613 -1.6293
 3082TIP3    H233442   1.416   4.861  18.603 -0.6900  0.0187 -0.4142
 3083TIP3   OH233443   4.250   6.793  17.609 -0.1516 -0.2931  0.6736
 3083TIP3    H133444   4.174   6.833  17.568  0.7074 -0.5891 -1.3249
 3083TIP3    H233445   4.320   6.801  17.544  1.1008 -1.4679  1.7953
 3084TIP3   OH233446   3.884   1.611  17.283  0.2151 -0.3452 -0.0311
 3084TIP3    H133447   3.901   1.535  17.338  0.2957 -0.7622 -0.6204
 3084TIP3    H233448   3.812   1.657  17.327 -1.0107 -1.6852 -0.5332
 3085TIP3   OH233449   8.216   3.603  18.425  0.6203 -0.8570  0.7294
 3085TIP3    H133450   8.129   3.584  18.462  0.1667  2.0979  1.4702
 3085TIP3    H233451   8.261   3.652  18.494  1.3453  1.1622 -1.0677
 3086TIP3   OH233452   5.178   2.798  17.313  0.1242  0.1850 -0.1701
 3086TIP3    H133453   5.219   2.717  17.343  0.5547  0.5834  0.3310
 3086TIP3    H233454   5.246   2.865  17.322 -0.2858  0.6419 -0.3880
 3087TIP3   OH233455   5.404   0.595  18.058 -0.3169  0.7616 -0.3593
 3087TIP3    H133456   5.415   0.672  18.114  0.1704 -0.5342  1.4199
 3087TIP3    H233457   5.310   0.575  18.063 -0.4449  1.2051 -0.8248
 3088TIP3   OH233458   3.978   4.212  16.802 -0.3769 -0.4631  0.6103
 3088TIP3    H133459   4.034   4.286  16.824  0.0961 -1.1787  1.9124
 3088TIP3    H233460   3.889   4.247  16.806 -0.1382  0.1407  0.7787
 3089TIP3   OH233461   0.186   1.195  18.343  0.5890  0.6343 -0.3991
 3089TIP3    H133462   0.240   1.157  18.412 -0.0603  1.1045  0.3960
 3089TIP3    H233463   0.116   1.240  18.391 -1.0388 -0.7221 -1.4019
 3090TIP3   OH233464   4.623   7.278  17.547  0.6559 -0.3677 -0.1645
 3090TIP3    H133465   4.635   7.372  17.536  1.0849 -0.4237 -0.1990
 3090TIP3    H233466   4.670   7.239  17.473 -0.0008 -0.5898 -0.4756
 3091TIP3   OH233467   1.653   0.768  18.483 -0.4188  0.3989 -0.4492
 3091TIP3    H133468   1.693   0.772  18.396 -0.8709  1.2373 -0.6361
 3091TIP3    H233469   1.598   0.847  18.488 -2.0151 -0.6760 -0.1834
 3092TIP3   OH233470   3.676   5.306  18.309  0.2757  0.1792 -0.0184
 3092TIP3    H133471   3.615   5.332  18.240 -0.6935 -2.6138 -0.3149
 3092TIP3    H233472   3.622   5.262  18.374  1.3944  1.4712  1.9068
 3093TIP3   OH233473   6.809   5.267  18.258 -0.3804 -0.5324 -0.0808
 3093TIP3    H133474   6.776   5.357  18.270  0.7300  0.0920 -1.4275
 3093TIP3    H233475   6.899   5.270  18.290 -0.5980 -1.4135  0.6577
 3094TIP3   OH233476   0.913   0.061  18.091  0.4046 -0.3475  0.0316
 3094TIP3    H133477   0.931   0.037  18.000 -1.0356 -2.5101  0.2638
 3094TIP3    H233478   0.930  -0.019  18.141 -0.4783  0.3051  1.4468
 3095TIP3   OH233479   7.024   2.581  17.670 -0.0683 -0.8369 -0.1646
 3095TIP3    H133480   6.935   2.575  17.705  0.3579  0.1139  1.1233
 3095TIP3    H233481   7.065   2.651  17.720  1.5589 -1.5777 -0.4188
 3096TIP3   OH233482   4.362   5.922  17.178 -0.0360 -0.0321  0.4114
 3096TIP3    H133483   4.411   5.970  17.110 -0.2529 -0.2075  0.1318
 3096TIP3    H233484   4.312   5.990  17.223  2.8410  0.7335  2.8439
 3097TIP3   OH233485   6.544   1.379  18.630 -0.0402 -0.0457  0.1297
 3097TIP3    H133486   6.569   1.346  18.716 -1.1481  0.6582  0.7546
 3097TIP3    H233487   6.453   1.408  18.641  0.2424  1.3424 -0.8899
 3098TIP3   OH233488   6.012   4.038  17.851 -0.3865  0.0738 -0.1701
 3098TIP3    H133489   6.071   4.099  17.896  1.3190 -1.6936  0.1382
 3098TIP3    H233490   5.925   4.078  17.859 -0.1319  0.2384  4.1501
 3099TIP3   OH233491   7.091   1.679  18.382 -0.8067 -0.3921 -0.3530
 3099TIP3    H133492   7.171   1.627  18.378 -0.5761 -0.0712  0.0891
 3099TIP3    H233493   7.103   1.747  18.315 -0.2555  0.2921  0.4315
 3100TIP3   OH233494   5.771   6.417  17.815 -0.5842  0.0133  0.2482
 3100TIP3    H133495   5.861   6.419  17.782 -0.5757 -2.8840 -0.1420
 3100TIP3    H233496   5.781   6.401  17.909 -0.5915 -2.8990 -0.1542
 3101TIP3   OH233497   4.823   8.010  18.588  0.2440  0.2868  0.0875
 3101TIP3    H133498   4.801   7.922  18.559  1.6151 -0.1358  0.2710
 3101TIP3    H233499   4.738   8.054  18.600 -0.4218 -0.0753 -2.7342
 3102TIP3   OH233500   7.361   6.340  18.809 -0.1446 -0.0904  0.3278
 3102TIP3    H133501   7.282   6.394  18.811 -0.8654 -1.1104  1.5676
 3102TIP3    H233502   7.432   6.400  18.833 -0.3324  1.0773 -1.8228
 3103TIP3   OH233503   0.482   2.548  18.987 -0.0189  0.0494  0.3028
 3103TIP3    H133504   0.435   2.584  18.912 -0.5684  1.5984  1.3325
 3103TIP3    H233505   0.568   2.524  18.953 -0.8155 -0.8787 -1.1650
 3104TIP3   OH233506   2.938   6.369  17.421 -0.5432  0.2769 -0.1628
 3104TIP3    H133507   2.987   6.448  17.399 -0.2134  0.2139  0.3534
 3104TIP3    H233508   2.863   6.371  17.361 -0.5270  0.9671 -0.1694
 3105TIP3   OH233509   8.423   2.528  19.235  0.4734  0.2634 -0.0676
 3105TIP3    H133510   8.503   2.514  19.284 -0.7782  0.6875  2.2476
 3105TIP3    H233511   8.398   2.618  19.255  0.0844  0.5972 -1.8464
 3106TIP3   OH233512   4.748   3.422  17.614  0.3502  0.0676  0.0096
 3106TIP3    H133513   4.796   3.500  17.643  1.7080 -0.5094 -0.5793
 3106TIP3    H233514   4.667   3.456  17.578 -0.1309  1.0222  1.8509
 3107TIP3   OH233515   2.475   7.330  17.355 -0.8684  0.1917 -0.2173
 3107TIP3    H133516   2.393   7.290  17.323 -1.3588  0.4657  0.6667
 3107TIP3    H233517   2.528   7.341  17.277 -0.9288 -1.7038 -0.5831
 3108TIP3   OH233518   3.873   7.700  17.045 -0.2973  0.7078 -0.0137
 3108TIP3    H133519   3.831   7.643  16.981 -1.2308  0.0713  1.1280
 3108TIP3    H233520   3.815   7.776  17.052  1.6779  2.6457 -2.6320
 3109TIP3   OH233521   0.425   2.753  18.777 -0.2698  0.0324  0.4883
 3109TIP3    H133522   0.495   2.818  18.787  0.0269  0.1354 -1.7714
 3109TIP3    H233523   0.348   2.805  18.752  0.3407 -0.4754 -2.9148
 3110TIP3   OH233524   4.596   1.727  18.133  0.4750  0.2538  0.7775
 3110TIP3    H133525   4.591   1.815  18.172 -0.8671  0.1235  0.9583
 3110TIP3    H233526   4.673   1.687  18.174  0.6515  1.0745  1.2753
 3111TIP3   OH233527   0.080   8.040  17.960 -0.0412 -0.4297  0.3097
 3111TIP3    H133528   0.140   8.101  18.003 -1.3282  0.3268  1.0960
 3111TIP3    H233529   0.028   8.095  17.902 -0.1872 -1.0314 -0.1345
 3112TIP3   OH233530   6.053   1.547  18.690 -0.2980  0.1193 -0.7400
 3112TIP3    H133531   6.074   1.614  18.755  0.5403  0.4819 -1.3599
 3112TIP3    H233532   6.003   1.593  18.623 -2.2282 -0.5096  0.1897
 3113TIP3   OH233533   2.148   7.367  17.992 -0.0161  0.2715  0.4670
 3113TIP3    H133534   2.071   7.416  17.961  1.1712  1.2523 -1.1096
 3113TIP3    H233535   2.164   7.402  18.080 -0.1470  1.6205 -0.0107
 3114TIP3   OH233536   6.479   3.253  16.990  0.2895 -0.4297 -0.9450
 3114TIP3    H133537   6.437   3.210  17.063 -0.2198  2.3594  0.5572
 3114TIP3    H233538   6.428   3.228  16.913 -1.9683  0.0821  0.3266
 3115TIP3   OH233539   3.476   8.199  18.368 -0.0123 -0.1430 -0.2528
 3115TIP3    H133540   3.396   8.219  18.320  0.2912 -0.1572 -0.7682
 3115TIP3    H233541   3.477   8.261  18.441 -0.8398 -0.5966  0.1595
 3116TIP3   OH233542   7.243   6.698  16.435  0.3076  0.1141 -0.5510
 3116TIP3    H133543   7.215   6.789  16.440 -1.2562 -0.3323 -0.8385
 3116TIP3    H233544   7.253   6.681  16.341  1.3817  0.1966 -0.4667
 3117TIP3   OH233545   6.779   0.734  17.067 -0.1976 -1.0546 -0.0735
 3117TIP3    H133546   6.705   0.675  17.051 -0.3124 -0.4490 -1.9693
 3117TIP3    H233547   6.792   0.780  16.984  1.2168  0.1016  0.7418
 3118TIP3   OH233548   0.558   5.692  18.214  0.4115  0.2185  0.6387
 3118TIP3    H133549   0.472   5.683  18.255  0.7016  0.5762  1.3523
 3118TIP3    H233550   0.549   5.651  18.128  0.0414 -1.4193  1.4295
 3119TIP3   OH233551   0.362   5.420  19.204  0.3202  0.5170 -0.3851
 3119TIP3    H133552   0.332   5.473  19.130  0.3875 -0.0871 -0.8538
 3119TIP3    H233553   0.432   5.472  19.244  0.7959  0.5231 -1.2075
 3120TIP3   OH233554   5.910   2.247  16.422 -0.1618 -0.1536 -0.0838
 3120TIP3    H133555   5.861   2.329  16.424  0.3706  0.1933 -1.0170
 3120TIP3    H233556   5.907   2.219  16.331 -1.7846 -2.0708  0.4870
 3121TIP3   OH233557   6.959   4.625  18.651  0.3331  0.1753 -0.2032
 3121TIP3    H133558   7.006   4.697  18.608  1.2118 -0.9053 -1.1323
 3121TIP3    H233559   6.963   4.554  18.587 -2.7838  0.0820 -0.4121
 3122TIP3   OH233560   6.155   0.816  18.457  0.3846  0.3256  0.1451
 3122TIP3    H133561   6.200   0.750  18.404  0.5552 -0.9130  1.7615
 3122TIP3    H233562   6.189   0.900  18.424  2.1067 -0.4755 -0.2474
 3123TIP3   OH233563   3.741   0.513  17.082 -0.1014  0.0678  0.4748
 3123TIP3    H133564   3.695   0.448  17.135  1.8606  1.2008  3.9117
 3123TIP3    H233565   3.832   0.486  17.084  0.3389  1.3474 -0.5274
 3124TIP3   OH233566   6.990   7.786  17.975 -0.3260 -0.2765 -0.4798
 3124TIP3    H133567   6.971   7.878  17.995  0.3395 -0.3138  0.3739
 3124TIP3    H233568   7.086   7.781  17.977 -0.2847 -0.6553 -2.1087
 3125TIP3   OH233569   7.626   0.605  17.833  0.6497  0.1846 -0.0319
 3125TIP3    H133570   7.609   0.688  17.788  0.2896  0.9889  1.5144
 3125TIP3    H233571   7.540   0.565  17.844  0.4208  1.1295  1.9831
 3126TIP3   OH233572   7.068   6.269  18.365  0.0957 -0.1152 -0.0048
 3126TIP3    H133573   7.122   6.246  18.290  0.4212  0.4688  0.0459
 3126TIP3    H233574   7.126   6.262  18.440 -0.3967 -1.3238  0.2793
 3127TIP3   OH233575   5.860   3.194  16.979 -0.7876  0.5378  0.2025
 3127TIP3    H133576   5.845   3.249  17.056 -1.6048  0.5680  0.0325
 3127TIP3    H233577   5.789   3.130  16.980  0.4155 -0.8508  0.6593
 3128TIP3   OH233578   6.023   3.630  16.971  0.6884  0.2858 -0.1643
 3128TIP3    H133579   6.088   3.695  16.943 -0.4382  1.2703 -0.5792
 3128TIP3    H233580   5.939   3.673  16.959 -0.2243 -1.7734 -1.9399
 3129TIP3   OH233581   5.412   6.149  18.411 -0.1986 -0.6121 -0.0735
 3129TIP3    H133582   5.498   6.188  18.422 -0.3138 -0.3042 -0.2433
 3129TIP3    H233583   5.418   6.064  18.456 -0.0581 -0.2475  0.6168
 3130TIP3   OH233584   0.585   3.037  18.789 -0.2893 -0.2299 -0.6866
 3130TIP3    H133585   0.677   3.015  18.800 -0.0726  0.4719 -1.0097
 3130TIP3    H233586   0.566   3.098  18.861 -0.7090 -0.9411 -0.1757
 3131TIP3   OH233587   0.409   1.591  18.771  0.3535 -0.0233 -0.3189
 3131TIP3    H133588   0.364   1.664  18.730  0.3263 -0.3841 -0.9483
 3131TIP3    H233589   0.462   1.630  18.841  0.5779  0.6333 -0.8494
 3132TIP3   OH233590   6.149   4.409  17.013  0.4422 -0.1232 -0.4149
 3132TIP3    H133591   6.218   4.384  17.076 -1.2778 -2.6262  0.6082
 3132TIP3    H233592   6.106   4.484  17.055  0.5546 -0.5307  0.4652
 3133TIP3   OH233593   3.453   2.067  17.037 -0.3623 -0.4734 -0.4587
 3133TIP3    H133594   3.496   2.147  17.067 -0.8289 -0.4454  0.1492
 3133TIP3    H233595   3.431   2.084  16.945  2.0453 -0.9668 -1.1780
 3134TIP3   OH233596   2.216   3.362  17.270 -0.3239  0.2227  0.1418
 3134TIP3    H133597   2.221   3.267  17.260 -0.3652  0.1247  0.9540
 3134TIP3    H233598   2.256   3.397  17.191  1.3873 -0.4732  0.6559
 3135TIP3   OH233599   3.875   5.873  17.031 -0.2126  0.0645 -0.2963
 3135TIP3    H133600   3.961   5.847  17.065  0.9629  1.0168 -2.3812
 3135TIP3    H233601   3.819   5.873  17.109  1.6521 -0.5739  1.1452
 3136TIP3   OH233602   4.546   3.939  18.379  0.4007  0.2501  0.7298
 3136TIP3    H133603   4.590   3.911  18.459 -0.7517  1.2643  1.7599
 3136TIP3    H233604   4.597   4.014  18.348 -0.2660  1.0998  1.6333
 3137TIP3   OH233605   6.965   6.609  17.082 -0.3043  0.0524  0.4104
 3137TIP3    H133606   7.058   6.604  17.063 -0.3488  1.6208 -0.4166
 3137TIP3    H233607   6.924   6.626  16.997 -1.8292 -4.3694  0.0327
 3138TIP3   OH233608   8.413   7.577  17.875 -0.0258  0.2047 -0.2951
 3138TIP3    H133609   8.403   7.552  17.967  1.5677  2.4742  0.5865
 3138TIP3    H233610   8.363   7.657  17.866  2.0312  1.5436 -0.5995
 3139TIP3   OH233611   0.713   2.569  17.833 -0.0947  0.3976 -0.0502
 3139TIP3    H133612   0.629   2.606  17.862 -0.2788  3.0011 -3.2729
 3139TIP3    H233613   0.778   2.636  17.857  0.3611  0.4764 -1.4247
 3140TIP3   OH233614   6.243   4.769  18.369  0.6521 -0.2539 -0.3304
 3140TIP3    H133615   6.192   4.849  18.378  1.1751  0.1009 -0.4631
 3140TIP3    H233616   6.322   4.796  18.322  0.3077 -1.0657 -1.4364
 3141TIP3   OH233617   7.643   3.141  18.735  0.2445 -0.6298 -0.1924
 3141TIP3    H133618   7.609   3.208  18.794 -0.6837 -1.9898  0.8668
 3141TIP3    H233619   7.680   3.190  18.662  0.8084  1.0865  1.1792
 3142TIP3   OH233620   5.719   6.121  18.425  1.5203 -0.5595  0.2854
 3142TIP3    H133621   5.698   6.037  18.384  0.6946 -0.6503  0.8843
 3142TIP3    H233622   5.793   6.154  18.374 -0.1185 -0.1790 -1.9956
 3143TIP3   OH233623   2.292   3.859  18.071 -0.1066 -0.2046  0.0082
 3143TIP3    H133624   2.316   3.779  18.024  0.3684 -0.0922  0.0544
 3143TIP3    H233625   2.291   3.834  18.163 -0.1796 -0.2116  0.0052
 3144TIP3   OH233626   6.250   2.908  17.067  0.6304 -0.4040  0.0060
 3144TIP3    H133627   6.210   2.846  17.006  0.6922 -1.2017  0.7623
 3144TIP3    H233628   6.343   2.909  17.043  0.6452 -0.6801  0.0417
 3145TIP3   OH233629   0.876   1.644  17.055  0.5001  0.1707  0.0061
 3145TIP3    H133630   0.958   1.611  17.018  0.5400  1.8994 -1.6092
 3145TIP3    H233631   0.897   1.733  17.084 -0.6073  0.3457  0.3119
 3146TIP3   OH233632   7.627   5.036  18.677  0.1418  0.5079  0.2504
 3146TIP3    H133633   7.595   5.052  18.766 -2.6882  0.4979 -0.6605
 3146TIP3    H233634   7.556   4.989  18.634  2.0869 -0.9062 -1.5996
 3147TIP3   OH233635   0.094   3.022  19.216 -0.1409  0.5947 -0.3847
 3147TIP3    H133636   0.110   2.952  19.153 -1.1854 -0.2333  0.2221
 3147TIP3    H233637   0.039   3.084  19.169 -0.4893  0.2355 -0.4631
 3148TIP3   OH233638   6.063   2.968  16.751  0.0710  0.1105 -0.1839
 3148TIP3    H133639   5.974   2.977  16.717  0.2182  0.0884 -0.5768
 3148TIP3    H233640   6.052   2.930  16.838 -0.3309  0.5314 -0.0486
 3149TIP3   OH233641   5.129   3.564  17.722 -0.0275  0.2356  0.1061
 3149TIP3    H133642   5.055   3.551  17.663 -0.4064 -0.2703  0.6811
 3149TIP3    H233643   5.093   3.616  17.794  0.0481 -0.4446  0.6399
 3150TIP3   OH233644   4.265   4.263  18.787  0.2720 -0.1603  0.2030
 3150TIP3    H133645   4.342   4.318  18.804  0.8364 -0.1939 -1.9615
 3150TIP3    H233646   4.290   4.210  18.712 -1.4395 -1.0804  0.2395
 3151TIP3   OH233647   0.686   6.726  18.016  0.0096 -0.0969  0.4242
 3151TIP3    H133648   0.594   6.713  17.992 -0.4403 -0.6010  2.2456
 3151TIP3    H233649   0.733   6.658  17.968 -0.9686 -1.7122  1.6464
 3152TIP3   OH233650   5.144   7.642  18.733  0.5467  0.1625  0.0912
 3152TIP3    H133651   5.069   7.628  18.791 -0.2591 -1.6631 -1.2793
 3152TIP3    H233652   5.161   7.736  18.738 -2.8560  0.9495 -0.6847
 3153TIP3   OH233653   3.369   4.861  17.295 -0.0842 -0.0557 -0.1480
 3153TIP3    H133654   3.394   4.785  17.347  0.0720  1.4129  2.0908
 3153TIP3    H233655   3.450   4.887  17.251  0.0460 -0.7006 -0.3008
 3154TIP3   OH233656   6.567   6.781  18.600 -0.2335 -0.1458 -0.3509
 3154TIP3    H133657   6.493   6.720  18.600  0.3204 -0.8268 -0.6138
 3154TIP3    H233658   6.542   6.849  18.538 -0.6535 -0.3497 -0.4094
 3155TIP3   OH233659   1.554   5.803  17.858 -0.1319  0.1828 -0.1225
 3155TIP3    H133660   1.649   5.791  17.848  0.0879  1.4766  0.2347
 3155TIP3    H233661   1.526   5.843  17.776 -0.2422  0.4814  0.0608
 3156TIP3   OH233662   4.370   5.260  18.769 -0.1635 -0.0010  0.3190
 3156TIP3    H133663   4.331   5.322  18.709 -1.0777 -0.3958  0.4861
 3156TIP3    H233664   4.371   5.305  18.854 -1.8191 -0.5567  0.6789
 3157TIP3   OH233665   3.426   1.937  18.693  0.2070 -0.1049 -0.1373
 3157TIP3    H133666   3.469   1.855  18.668 -1.3320 -0.9827 -0.0652
 3157TIP3    H233667   3.427   1.990  18.613 -0.3446 -0.9237 -0.7063
 3158TIP3   OH233668   1.417   0.631  17.771 -0.1731 -0.0871 -0.1662
 3158TIP3    H133669   1.351   0.597  17.711 -1.3187  0.5152  0.7146
 3158TIP3    H233670   1.413   0.574  17.847 -1.2075  1.1729  0.7763
 3159TIP3   OH233671   0.182   0.115  18.461  0.1589  0.1426 -0.2624
 3159TIP3    H133672   0.259   0.170  18.450  0.1020  0.3287  0.2595
 3159TIP3    H233673   0.118   0.171  18.505  0.0474 -0.2909  0.1437
 3160TIP3   OH233674   4.438   0.291  17.578 -0.3341 -0.1233 -0.6200
 3160TIP3    H133675   4.529   0.319  17.568 -0.8849  1.5692 -1.3222
 3160TIP3    H233676   4.387   0.369  17.558 -2.0490 -1.7659 -3.1879
 3161TIP3   OH233677   7.105   0.984  17.513  0.2547  0.3911  0.6112
 3161TIP3    H133678   7.150   0.957  17.433 -2.2671  0.2417 -0.8715
 3161TIP3    H233679   7.106   1.080  17.509 -2.5079  0.4664 -1.3654
 3162TIP3   OH233680   2.804   8.007  18.624  0.0984 -0.0424 -0.2281
 3162TIP3    H133681   2.774   7.943  18.689  1.0531 -0.1100  0.1735
 3162TIP3    H233682   2.727   8.058  18.603 -0.6660 -1.2593 -0.4686
 3163TIP3   OH233683   4.904   6.652  17.766  0.4286  0.1601  0.1852
 3163TIP3    H133684   4.984   6.604  17.742  1.2470  0.3919  2.2312
 3163TIP3    H233685   4.896   6.639  17.860 -0.4623  2.3776  0.4754
 3164TIP3   OH233686   2.088   7.054  17.366 -0.0680 -0.0981 -0.5377
 3164TIP3    H133687   2.119   7.038  17.455  0.7314 -0.1240 -0.8126
 3164TIP3    H233688   1.999   7.087  17.377  0.1033  0.1089  0.2826
 3165TIP3   OH233689   2.861   1.605  17.681  0.1749  0.1723 -0.2975
 3165TIP3    H133690   2.775   1.586  17.717  0.6437  1.1357  1.4852
 3165TIP3    H233691   2.850   1.685  17.631  0.2819  1.1986  1.2384
 3166TIP3   OH233692   7.288   6.704  16.171 -0.3178 -0.0091  0.3281
 3166TIP3    H133693   7.381   6.684  16.178 -0.2485 -0.7807 -2.0105
 3166TIP3    H233694   7.285   6.799  16.158  0.3115 -0.1711 -1.2305
 3167TIP3   OH233695   2.763   3.542  18.051 -0.1248  0.6276  0.4440
 3167TIP3    H133696   2.831   3.529  17.986 -0.5017  0.2450  0.1196
 3167TIP3    H233697   2.765   3.463  18.105 -1.7001 -0.3815 -0.8674
 3168TIP3   OH233698   0.688   7.178  18.053 -0.2275 -0.2984 -0.1953
 3168TIP3    H133699   0.780   7.204  18.048 -0.6440  1.2077 -0.4562
 3168TIP3    H233700   0.640   7.260  18.049 -1.5629 -0.9872  1.0658
 3169TIP3   OH233701   4.402   3.673  17.326 -0.4644  0.1190 -0.0996
 3169TIP3    H133702   4.487   3.693  17.286 -0.4376  0.1412 -0.0320
 3169TIP3    H233703   4.352   3.629  17.257  0.1619 -1.3251  0.3258
 3170TIP3   OH233704   4.952   6.202  18.680 -0.7028 -0.3786  0.4562
 3170TIP3    H133705   4.885   6.261  18.715 -0.4787  0.2164 -0.0870
 3170TIP3    H233706   4.944   6.212  18.585 -0.9313 -1.5389  0.3403
 3171TIP3   OH233707   8.419   4.346  18.067  0.0676 -0.0181  0.3613
 3171TIP3    H133708   8.450   4.361  17.978  0.1857  0.9270  0.5542
 3171TIP3    H233709   8.351   4.279  18.058  0.5986 -0.4769 -0.3385
 3172TIP3   OH233710   6.119   6.734  17.044  0.7986  0.3826 -0.6638
 3172TIP3    H133711   6.139   6.714  17.135  1.2353 -1.0657 -1.0482
 3172TIP3    H233712   6.037   6.783  17.047 -0.0120 -0.9774  0.4112
 3173TIP3   OH233713   1.316   0.566  18.501 -0.1894 -0.0341 -0.0480
 3173TIP3    H133714   1.271   0.646  18.476 -1.9499 -0.9223  0.1168
 3173TIP3    H233715   1.283   0.499  18.441  0.4230 -0.8640  0.5066
 3174TIP3   OH233716   6.574   2.196  17.615  0.9845  0.1543 -0.0782
 3174TIP3    H133717   6.522   2.117  17.604  1.5052 -0.1938 -0.0520
 3174TIP3    H233718   6.607   2.191  17.704 -0.9007  1.5720  0.7836
 3175TIP3   OH233719   0.797   2.055  18.975  0.6481 -0.0523  0.6578
 3175TIP3    H133720   0.873   2.068  19.032  1.0608  0.0528  0.0846
 3175TIP3    H233721   0.832   2.058  18.886 -0.1205  0.6491  0.3634
 3176TIP3   OH233722   8.413   3.545  18.239 -0.7880 -0.1736 -0.1315
 3176TIP3    H133723   8.418   3.632  18.198  1.7052 -0.1865 -0.0161
 3176TIP3    H233724   8.347   3.556  18.308  1.6082  2.6949  2.0212
 3177TIP3   OH233725   3.726   3.365  17.655  0.0615 -0.1113  0.7118
 3177TIP3    H133726   3.770   3.426  17.715  2.0733 -0.4742 -0.2978
 3177TIP3    H233727   3.680   3.304  17.712  0.5325  0.5475  1.8348
 3178TIP3   OH233728   3.991   6.104  17.979 -0.1669 -0.2267  0.0418
 3178TIP3    H133729   4.086   6.102  17.991 -0.1019 -0.8136 -0.5313
 3178TIP3    H233730   3.978   6.087  17.886 -0.8766 -1.6805  0.3663
 3179TIP3   OH233731   8.251   1.432  17.685 -0.2940 -0.3132 -0.5288
 3179TIP3    H133732   8.302   1.372  17.740  0.4055  1.3367  0.6794
 3179TIP3    H233733   8.317   1.489  17.644 -0.9579 -0.2602 -1.5609
 3180TIP3   OH233734   1.938   3.058  17.448  0.0754  0.0529  0.1108
 3180TIP3    H133735   1.904   2.983  17.399 -0.6243  1.2909 -1.3764
 3180TIP3    H233736   1.862   3.114  17.461  0.8934  1.2831 -0.2588
 3181TIP3   OH233737   1.850   6.361  18.839  0.2483 -0.2441  0.2515
 3181TIP3    H133738   1.909   6.351  18.914  1.9288  0.6148 -0.9000
 3181TIP3    H233739   1.762   6.368  18.878  1.1523  1.0683  2.2048
 3182TIP3   OH233740   0.991   3.354  17.529  0.2413 -0.3779 -0.3172
 3182TIP3    H133741   1.049   3.332  17.456  0.1007  0.9288 -0.8374
 3182TIP3    H233742   0.903   3.342  17.494  0.1666  0.7545 -0.5333
 3183TIP3   OH233743   6.600   2.951  17.629 -0.3210  0.0374 -0.0083
 3183TIP3    H133744   6.605   2.959  17.724 -1.1596  1.5992 -0.0672
 3183TIP3    H233745   6.634   2.863  17.610 -0.6917 -0.5180  1.7711
 3184TIP3   OH233746   0.323   1.949  17.502 -0.1494  0.5040  0.3359
 3184TIP3    H133747   0.286   2.019  17.448 -1.2443 -1.0528 -1.0538
 3184TIP3    H233748   0.388   1.907  17.445 -1.3451 -1.1889  0.1409
 3185TIP3   OH233749   3.151   6.064  17.935  0.0209 -0.8969 -1.0259
 3185TIP3    H133750   3.239   6.070  17.973 -0.2107 -0.3742 -0.5637
 3185TIP3    H233751   3.144   5.973  17.906  0.1771 -1.3506  0.2765
 3186TIP3   OH233752   2.758   8.135  17.644 -0.1370 -0.5899  0.0172
 3186TIP3    H133753   2.669   8.120  17.612 -0.6321 -1.2497  1.5701
 3186TIP3    H233754   2.796   8.198  17.583 -1.1983 -1.3287 -1.4601
 3187TIP3   OH233755   3.480   3.601  18.391  0.1210  0.1147  0.4999
 3187TIP3    H133756   3.548   3.615  18.457  0.0469  0.2159  0.5551
 3187TIP3    H233757   3.496   3.670  18.326 -0.1930  0.4043  0.7265
 3188TIP3   OH233758   6.648   7.084  16.554 -0.2873  0.5382  0.3545
 3188TIP3    H133759   6.726   7.140  16.550  0.0737 -0.0172 -1.3142
 3188TIP3    H233760   6.604   7.109  16.635  2.1090  0.2236  1.8332
 3189TIP3   OH233761   3.793   3.101  17.844  0.1292 -0.7037  0.2696
 3189TIP3    H133762   3.709   3.136  17.815 -0.1034 -2.0413 -0.7755
 3189TIP3    H233763   3.773   3.014  17.877  1.1520 -1.2245 -0.4122
 3190TIP3   OH233764   4.118   1.411  18.108 -0.4776  0.8142  0.1149
 3190TIP3    H133765   4.208   1.384  18.127 -0.4610  0.2615 -0.7157
 3190TIP3    H233766   4.126   1.503  18.081 -0.1675  0.7905  0.1256
 3191TIP3   OH233767   8.260   4.140  18.006  0.1398  0.4949 -0.2836
 3191TIP3    H133768   8.202   4.133  17.930  1.1123  0.4774 -1.0444
 3191TIP3    H233769   8.330   4.078  17.988  0.7175  0.9605  0.3242
 3192TIP3   OH233770   8.201   0.182  17.336 -0.0967 -0.2627 -0.9700
 3192TIP3    H133771   8.167   0.222  17.256  0.7560  1.2233 -0.6397
 3192TIP3    H233772   8.245   0.102  17.307  1.0805  0.7686 -2.1562
 3193TIP3   OH233773   7.568   2.734  16.914  0.3931  0.1297  0.1075
 3193TIP3    H133774   7.493   2.790  16.891 -0.7279 -0.3156  2.4170
 3193TIP3    H233775   7.544   2.648  16.879  0.6086  0.3497 -0.5984
 3194TIP3   OH233776   5.576   4.155  18.899  0.2522  0.1534  0.2231
 3194TIP3    H133777   5.669   4.135  18.913 -0.1341  0.0254  3.1420
 3194TIP3    H233778   5.537   4.070  18.876  0.2567 -0.6776  2.9728
 3195TIP3   OH233779   2.215   2.168  18.465 -0.3122 -0.2855  0.6655
 3195TIP3    H133780   2.132   2.154  18.509 -1.0531 -0.7390 -0.8245
 3195TIP3    H233781   2.221   2.097  18.401  0.8379  0.2103  0.1930
 3196TIP3   OH233782   6.597   5.284  19.357 -0.3034 -0.4240 -0.3181
 3196TIP3    H133783   6.508   5.249  19.365 -0.2376 -0.5345 -0.0602
 3196TIP3    H233784   6.594   5.340  19.279 -0.4915 -0.7554 -0.5510
 3197TIP3   OH233785   2.638   6.204  18.216 -0.4363 -0.4178  0.2895
 3197TIP3    H133786   2.634   6.125  18.162  0.9621  0.9536 -1.9398
 3197TIP3    H233787   2.706   6.258  18.176 -0.2432  1.2671  2.6850
 3198TIP3   OH233788   0.581   2.393  17.528 -0.3842 -0.6197 -0.0321
 3198TIP3    H133789   0.584   2.358  17.439  0.7876  0.6049 -0.5173
 3198TIP3    H233790   0.672   2.419  17.546 -1.0079  1.2938  0.6060
 3199TIP3   OH233791   5.473   6.699  18.419  0.4728  0.2970 -0.1855
 3199TIP3    H133792   5.489   6.660  18.504  0.0333 -0.2381 -0.3440
 3199TIP3    H233793   5.419   6.635  18.373  2.6758 -0.5679 -1.7609
 3200TIP3   OH233794   1.516   1.752  18.789 -0.0146  0.4991  0.1379
 3200TIP3    H133795   1.521   1.848  18.787 -0.0718  0.5478  1.3608
 3200TIP3    H233796   1.425   1.733  18.812  0.4244  0.2196  1.7686
 3201TIP3   OH233797   3.883   6.352  18.817  0.1866 -0.0253 -0.3899
 3201TIP3    H133798   3.970   6.317  18.798 -0.5554 -2.0857 -0.3035
 3201TIP3    H233799   3.872   6.338  18.912 -0.7265 -1.0612 -0.6257
 3202TIP3   OH233800   4.601   3.083  18.393  0.5044  0.4024 -0.1844
 3202TIP3    H133801   4.610   3.177  18.376 -0.2878  0.5098 -0.0330
 3202TIP3    H233802   4.622   3.041  18.309 -1.3385  0.8279 -0.9078
 3203TIP3   OH233803   4.490   1.286  18.530 -0.5825 -0.7668  0.8425
 3203TIP3    H133804   4.549   1.211  18.524 -0.0194 -0.2449 -1.0251
 3203TIP3    H233805   4.548   1.360  18.547 -0.7681 -0.3714 -0.1600
 3204TIP3   OH233806   1.602   5.095  18.129 -0.2319 -0.5252  0.0872
 3204TIP3    H133807   1.591   5.116  18.222  0.8174 -2.1546  0.6256
 3204TIP3    H233808   1.582   5.177  18.083  2.2670  1.2555  1.9267
 3205TIP3   OH233809   7.434   4.327  17.602  0.0667 -0.2943 -0.4984
 3205TIP3    H133810   7.426   4.377  17.684 -1.6175 -2.7416  0.9555
 3205TIP3    H233811   7.354   4.347  17.554  0.2884 -0.1424 -0.8107
 3206TIP3   OH233812   5.186   0.294  18.585  0.1347  0.0540 -0.5829
 3206TIP3    H133813   5.167   0.383  18.616  1.6601  0.9734 -2.1302
 3206TIP3    H233814   5.213   0.247  18.664  0.6771  1.3722  0.0470
 3207TIP3   OH233815   4.700   5.165  17.647  0.0897  0.0919 -0.1850
 3207TIP3    H133816   4.667   5.079  17.622  2.4934 -1.1963  0.7469
 3207TIP3    H233817   4.709   5.162  17.742  1.9180  0.6441 -0.2858
 3208TIP3   OH233818   4.079   3.958  18.188  0.3189  0.2704 -0.3832
 3208TIP3    H133819   4.145   4.006  18.238 -0.6817 -0.3301  1.6127
 3208TIP3    H233820   4.111   3.867  18.188 -1.0451 -0.2857  1.7298
 3209TIP3   OH233821   3.811   2.399  17.370 -0.2010  0.5690 -0.4454
 3209TIP3    H133822   3.852   2.374  17.287  1.9175  3.0432 -0.2800
 3209TIP3    H233823   3.762   2.479  17.350  1.0915  1.7340  0.7874
 3210TIP3   OH233824   1.453   8.410  17.904 -0.3409 -1.3258  0.0950
 3210TIP3    H133825   1.459   8.317  17.883 -0.0295 -2.2781  3.7114
 3210TIP3    H233826   1.518   8.423  17.973 -0.8448  1.4460  0.1666
 3211TIP3   OH233827   4.491   4.413  18.595 -0.2261 -0.1275 -0.0180
 3211TIP3    H133828   4.469   4.329  18.556 -0.8234 -0.7034  1.4618
 3211TIP3    H233829   4.505   4.394  18.688  0.5774  1.2542  0.1829
 3212TIP3   OH233830   5.915   8.351  17.426 -0.5561  0.2196  0.2782
 3212TIP3    H133831   5.988   8.362  17.365 -1.5533  1.4704 -0.7428
 3212TIP3    H233832   5.899   8.256  17.427 -0.6903  0.1688 -1.6543
 3213TIP3   OH233833   6.481   6.397  18.704  0.0466  0.5073 -0.2577
 3213TIP3    H133834   6.543   6.396  18.631  0.7238 -1.1167  0.3065
 3213TIP3    H233835   6.526   6.444  18.774  0.1959  0.2945 -0.2122
 3214TIP3   OH233836   5.975   2.540  18.263 -0.7042 -0.3059  0.0479
 3214TIP3    H133837   6.036   2.569  18.196  0.6105  1.8588  2.0586
 3214TIP3    H233838   6.025   2.477  18.316 -0.7281  0.2639  0.7590
 3215TIP3   OH233839   5.995   8.233  18.247  0.1620 -0.0169  0.6037
 3215TIP3    H133840   5.940   8.246  18.324  2.6088 -1.7731  2.8134
 3215TIP3    H233841   5.935   8.244  18.173 -2.0567  3.0571  2.6163
 3216TIP3   OH233842   3.318   5.244  18.018  0.1713 -0.0117 -0.0941
 3216TIP3    H133843   3.390   5.197  17.976  0.4737 -0.1586  0.5819
 3216TIP3    H233844   3.253   5.256  17.948  1.4079  1.3305 -1.0870
 3217TIP3   OH233845   2.791   6.099  18.869  0.2165  0.5010  0.0066
 3217TIP3    H133846   2.747   6.100  18.784  1.0768  1.4574 -0.4456
 3217TIP3    H233847   2.796   6.191  18.895 -0.7265  0.1666  1.4767
 3218TIP3   OH233848   8.135   4.638  17.348  0.3017 -0.2804  0.7310
 3218TIP3    H133849   8.185   4.681  17.417  0.9318 -1.4526  1.0420
 3218TIP3    H233850   8.078   4.576  17.395  0.5281 -0.8810  0.2278
 3219TIP3   OH233851   0.806   7.459  18.216  0.2481 -0.3545 -0.4982
 3219TIP3    H133852   0.747   7.534  18.225  0.1664 -0.3704 -0.8576
 3219TIP3    H233853   0.891   7.497  18.193  0.0344 -0.4007 -1.4238
 3220TIP3   OH233854   8.179   1.263  16.878 -0.1470  0.3187  0.3613
 3220TIP3    H133855   8.153   1.337  16.823  2.6933  0.4264 -1.0386
 3220TIP3    H233856   8.212   1.303  16.958  1.1519  0.6261 -0.2935
 3221TIP3   OH233857   3.390   7.299  18.180 -0.1180  0.8471  0.1249
 3221TIP3    H133858   3.331   7.326  18.251 -0.2592 -0.0345  0.3566
 3221TIP3    H233859   3.332   7.285  18.105  0.0341  1.7970 -0.1749
 3222TIP3   OH233860   5.657   2.981  16.899  0.2519  0.3627  0.6648
 3222TIP3    H133861   5.580   2.974  16.842 -0.1307  0.4038  1.1689
 3222TIP3    H233862   5.732   2.978  16.839 -0.1323 -0.0238  0.1990
 3223TIP3   OH233863   6.275   7.529  17.013  0.1244 -0.7139  0.2207
 3223TIP3    H133864   6.302   7.556  16.925  0.6625 -0.5964  0.4192
 3223TIP3    H233865   6.180   7.522  17.007 -0.0166  0.9641  0.0985
 3224TIP3   OH233866   7.383   0.577  18.926 -0.3210 -0.5305  0.3936
 3224TIP3    H133867   7.421   0.543  19.007  1.8889 -1.8545 -1.1115
 3224TIP3    H233868   7.456   0.621  18.882 -0.7479 -2.1558 -2.0987
 3225TIP3   OH233869   5.223   2.885  16.358 -0.1867  0.4727 -0.1140
 3225TIP3    H133870   5.276   2.963  16.342 -1.1837  1.5064  1.2907
 3225TIP3    H233871   5.286   2.818  16.384  0.7048  0.7461 -1.4726
 3226TIP3   OH233872   7.249   0.239  18.216  0.6080  0.3295 -0.3470
 3226TIP3    H133873   7.233   0.232  18.310  0.0254 -0.8750 -0.5119
 3226TIP3    H233874   7.167   0.274  18.180 -0.0876 -1.4983 -0.6587
 3227TIP3   OH233875   8.308   2.835  17.367 -0.5976  0.1028  0.1812
 3227TIP3    H133876   8.320   2.929  17.354  0.0924  0.2676  1.8628
 3227TIP3    H233877   8.220   2.817  17.332 -1.4754  1.7092  1.4555
 3228TIP3   OH233878   0.794   3.550  16.869  0.3763  0.4108 -0.3819
 3228TIP3    H133879   0.807   3.554  16.964  0.7936 -0.3508 -0.3945
 3228TIP3    H233880   0.699   3.548  16.858  0.3105 -1.1274  0.1294
 3229TIP3   OH233881   4.263   7.341  17.179  0.7217  0.2359 -0.7810
 3229TIP3    H133882   4.240   7.432  17.163 -0.3427 -0.1814 -1.7409
 3229TIP3    H233883   4.243   7.296  17.097  1.0288 -0.9006 -0.2603
 3230TIP3   OH233884   4.996   5.841  16.916 -0.1297  0.0869  0.0645
 3230TIP3    H133885   4.907   5.812  16.896 -0.5934  1.6367 -0.2716
 3230TIP3    H233886   5.031   5.772  16.972 -2.3699  0.4699  2.1571
 3231TIP3   OH233887   3.926   8.178  18.368  0.1519  0.0617 -0.0780
 3231TIP3    H133888   4.011   8.133  18.364 -0.5457 -1.2298 -1.1524
 3231TIP3    H233889   3.876   8.129  18.434 -0.2192 -0.0426 -0.4337
 3232TIP3   OH233890   3.006   2.260  18.178 -0.3947 -0.6399  0.2316
 3232TIP3    H133891   2.929   2.247  18.233  0.4857 -1.3927  1.3237
 3232TIP3    H233892   3.042   2.345  18.205 -1.6179  0.4443 -1.3123
 3233TIP3   OH233893   4.557   6.053  17.507 -0.1398 -0.0765 -0.5928
 3233TIP3    H133894   4.605   5.981  17.548 -0.5739 -0.2399 -0.3580
 3233TIP3    H233895   4.465   6.029  17.518 -0.4026  1.6695  1.6495
 3234TIP3   OH233896   1.231   2.685  16.771 -0.2432  0.1036  0.0027
 3234TIP3    H133897   1.193   2.625  16.707  0.0143 -1.1888  1.0174
 3234TIP3    H233898   1.286   2.629  16.826  0.9403  1.4719  0.2723
 3235TIP3   OH233899   1.549   5.364  18.054 -0.0997  0.3032  0.3785
 3235TIP3    H133900   1.524   5.337  17.965  0.2092 -2.3403  1.0059
 3235TIP3    H233901   1.634   5.407  18.042 -0.5084  0.8708 -0.6900
 3236TIP3   OH233902   0.020   3.344  18.098  0.2047 -0.2056  0.3684
 3236TIP3    H133903  -0.004   3.407  18.166 -2.4132 -1.9936  1.2498
 3236TIP3    H233904  -0.042   3.272  18.108  1.8298 -2.0811 -1.8284
 3237TIP3   OH233905   2.616   7.092  17.177  0.6346  0.2003  0.3223
 3237TIP3    H133906   2.557   7.058  17.243  0.3189  1.6487  0.8060
 3237TIP3    H233907   2.564   7.156  17.128  1.5906  0.9906  0.3136
 3238TIP3   OH233908   5.648   7.068  16.978 -0.7136  0.1279 -0.4290
 3238TIP3    H133909   5.625   7.159  16.957 -1.4575 -0.0456 -0.4047
 3238TIP3    H233910   5.718   7.046  16.916  0.7179  1.2725  0.7326
 3239TIP3   OH233911   7.580   0.751  18.867  0.3269 -0.1779  0.0867
 3239TIP3    H133912   7.644   0.793  18.810 -0.3921 -0.9116 -1.3016
 3239TIP3    H233913   7.618   0.758  18.955  1.6387  0.6348 -0.5132
 3240TIP3   OH233914   1.213   3.279  18.349  0.3416 -0.3969  0.2573
 3240TIP3    H133915   1.270   3.231  18.409 -0.4394 -2.4954 -0.5865
 3240TIP3    H233916   1.160   3.212  18.307 -1.8449  1.3732  0.0226
 3241TIP3   OH233917   6.922   4.259  17.041 -0.8468  0.3094 -0.1968
 3241TIP3    H133918   6.947   4.336  17.091 -0.6942  0.0090  0.1877
 3241TIP3    H233919   6.840   4.230  17.080  1.4023 -2.6105  2.9939
 3242TIP3   OH233920   1.263   7.239  18.454  0.3400  0.1855  0.1084
 3242TIP3    H133921   1.171   7.226  18.477  0.1586  1.0257 -0.1110
 3242TIP3    H233922   1.296   7.299  18.522  1.1344 -1.2894  1.0730
 3243TIP3   OH233923   5.711   1.147  17.194 -0.1886  0.6575 -0.5696
 3243TIP3    H133924   5.626   1.105  17.199 -0.3769  1.0805 -0.0920
 3243TIP3    H233925   5.736   1.140  17.102 -0.2057 -0.4965 -0.5061
 3244TIP3   OH233926   3.846   0.902  18.165 -0.2285 -0.2303  0.0960
 3244TIP3    H133927   3.923   0.922  18.218 -0.0977 -2.4198  0.8472
 3244TIP3    H233928   3.773   0.934  18.216  0.0681 -0.0299  0.4005
 3245TIP3   OH233929   3.940   2.588  17.644 -0.6323  0.1690 -0.1468
 3245TIP3    H133930   4.008   2.564  17.582 -0.0925 -4.4859  1.8042
 3245TIP3    H233931   3.859   2.556  17.605 -0.7614  0.1278  0.1497
 3246TIP3   OH233932   2.544   3.611  16.938 -0.0381  0.3399 -0.5520
 3246TIP3    H133933   2.598   3.659  17.001  0.3059  0.3767 -0.8732
 3246TIP3    H233934   2.607   3.569  16.879 -0.3697  1.0871 -1.4581
 3247TIP3   OH233935   5.471   7.206  17.707  0.2379  0.0515  0.0490
 3247TIP3    H133936   5.494   7.245  17.623  0.9284 -1.6685 -0.6246
 3247TIP3    H233937   5.376   7.205  17.708  0.2002  1.7567  0.1371
 3248TIP3   OH233938   2.186   2.324  18.137  0.3622  0.4712 -0.0436
 3248TIP3    H133939   2.230   2.375  18.206  2.1317 -0.5073 -0.3691
 3248TIP3    H233940   2.208   2.233  18.158 -1.5291 -0.0700 -0.2775
 3249TIP3   OH233941   3.433   5.117  18.236 -0.2542 -0.0303 -0.0998
 3249TIP3    H133942   3.384   5.185  18.190 -0.3736  0.9742  1.4443
 3249TIP3    H233943   3.497   5.086  18.172 -0.7250  0.9677 -1.0856
 3250TIP3   OH233944   6.737   4.880  18.090  0.0487 -0.6274 -0.1048
 3250TIP3    H133945   6.817   4.931  18.076  0.0570 -0.6731 -0.2281
 3250TIP3    H233946   6.757   4.794  18.053 -0.0821 -0.6174 -0.1991
 3251TIP3   OH233947   4.209   1.123  17.975  0.3526 -0.2390 -0.3145
 3251TIP3    H133948   4.172   1.036  17.960  0.1040 -0.2038  0.0640
 3251TIP3    H233949   4.239   1.121  18.066  1.4808 -0.3332 -0.6796
 3252TIP3   OH233950   6.437   5.436  18.146  0.4692 -0.5833 -0.1059
 3252TIP3    H133951   6.471   5.347  18.138  0.8300 -0.5083  0.4783
 3252TIP3    H233952   6.490   5.488  18.086 -0.7201 -0.9967 -1.5841
 3253TIP3   OH233953   1.312   0.898  18.611  0.0466  0.7647  0.3807
 3253TIP3    H133954   1.226   0.913  18.649  0.2158 -0.4645  1.3131
 3253TIP3    H233955   1.352   0.832  18.668 -0.0704 -1.9656 -2.4219
 3254TIP3   OH233956   0.688   5.263  17.072 -0.0379  0.6644  0.0827
 3254TIP3    H133957   0.669   5.188  17.017 -1.1182  0.8331  0.1993
 3254TIP3    H233958   0.776   5.246  17.107  0.4908  0.3537 -1.3221
 3255TIP3   OH233959   2.498   8.064  17.927  0.4765  0.4600  0.0741
 3255TIP3    H133960   2.405   8.079  17.947  0.8446 -0.1933  2.5610
 3255TIP3    H233961   2.502   7.971  17.903  0.4132  0.6432 -0.6694
 3256TIP3   OH233962   2.602   0.030  16.801 -0.6428  0.4942 -0.7133
 3256TIP3    H133963   2.623   0.119  16.829 -0.0000  0.1909 -0.1854
 3256TIP3    H233964   2.664   0.012  16.731  2.3671 -1.0576  2.0461
 3257TIP3   OH233965   2.001   6.793  18.628  0.0831  0.0775 -0.2009
 3257TIP3    H133966   1.929   6.730  18.633 -1.3927  1.6173 -0.9042
 3257TIP3    H233967   2.037   6.795  18.716 -1.4861  0.0759  0.4726
 3258TIP3   OH233968   2.277   2.810  17.331  0.4542  0.0844  0.2594
 3258TIP3    H133969   2.347   2.746  17.341  1.5374  1.3617  1.0850
 3258TIP3    H233970   2.196   2.759  17.344  1.3134 -0.9294  1.9779
 3259TIP3   OH233971   7.548   7.013  17.099 -0.4428 -0.3783  0.3990
 3259TIP3    H133972   7.476   7.032  17.159 -0.7299  0.3884 -0.1703
 3259TIP3    H233973   7.507   7.011  17.013  0.1139 -0.5554  0.1369
 3260TIP3   OH233974   5.138   2.990  18.800  0.2533  0.3886 -0.0764
 3260TIP3    H133975   5.049   3.014  18.824  0.7249  2.7524 -0.4291
 3260TIP3    H233976   5.194   3.047  18.853  1.5759 -0.8750 -0.0331
 3261TIP3   OH233977   1.605   4.827  18.101  0.9654  0.1584 -0.3391
 3261TIP3    H133978   1.682   4.830  18.045  2.2714 -0.9088  1.3088
 3261TIP3    H233979   1.584   4.918  18.120  0.2802  0.5628 -2.7577
 3262TIP3   OH233980   2.565   0.994  18.660 -0.2574  0.2152 -0.4196
 3262TIP3    H133981   2.562   0.918  18.601  1.2490 -0.6297  0.5289
 3262TIP3    H233982   2.658   1.008  18.677 -0.5958  1.2382  0.7452
 3263TIP3   OH233983   4.774   1.100  16.722  0.1620 -0.1308  0.0847
 3263TIP3    H133984   4.821   1.177  16.755  0.4483 -0.0771 -0.4249
 3263TIP3    H233985   4.783   1.035  16.791 -0.8204  0.5621  0.9054
 3264TIP3   OH233986   2.295   5.546  18.715  0.2390  0.2118 -0.0003
 3264TIP3    H133987   2.222   5.496  18.752 -0.1860  1.3518  0.7641
 3264TIP3    H233988   2.373   5.498  18.744 -0.1756 -0.7791 -0.4683
 3265TIP3   OH233989   6.788   0.614  17.408  0.1623 -0.8461  0.1191
 3265TIP3    H133990   6.842   0.621  17.329 -0.8980  1.8912 -0.4536
 3265TIP3    H233991   6.848   0.633  17.480  0.4090  0.2489 -0.3555
 3266TIP3   OH233992   0.561   1.311  18.227 -0.2007 -0.6266 -0.4556
 3266TIP3    H133993   0.629   1.308  18.160 -0.1383 -0.3694 -0.4075
 3266TIP3    H233994   0.571   1.229  18.275  2.0140  0.6181  1.4342
 3267TIP3   OH233995   4.553   4.691  17.635 -0.7877  0.1798 -0.2557
 3267TIP3    H133996   4.570   4.665  17.726 -1.2055  1.0371  0.0780
 3267TIP3    H233997   4.457   4.697  17.630 -0.7769 -0.0510 -0.8153
 3268TIP3   OH233998   5.733   6.630  16.939 -0.0392  0.1163  0.5413
 3268TIP3    H133999   5.710   6.645  16.847 -0.2112 -0.4468  0.4873
 3268TIP3    H234000   5.767   6.541  16.941  3.7867  1.4015  0.3344
 3269TIP3   OH234001   2.667   2.422  17.000  0.0193  0.8420  0.3542
 3269TIP3    H134002   2.758   2.450  16.989  0.4100 -0.3540  0.3268
 3269TIP3    H234003   2.642   2.389  16.914  0.2768 -0.7669  0.8630
 3270TIP3   OH234004   3.611   1.011  18.326  0.3079 -0.2568  0.7202
 3270TIP3    H134005   3.559   0.933  18.340  0.3072  0.0734  2.7616
 3270TIP3    H234006   3.635   1.041  18.413  3.0106  0.2269 -0.0857
 3271TIP3   OH234007   5.529   3.986  18.240 -0.2713  0.2963 -0.2295
 3271TIP3    H134008   5.451   3.940  18.271 -0.4723  1.2108  0.6725
 3271TIP3    H234009   5.551   4.046  18.312 -0.9198  2.7296 -1.9563
 3272TIP3   OH234010   7.444   5.337  19.140  0.2236  0.3667  0.3639
 3272TIP3    H134011   7.422   5.300  19.055 -1.3019  2.2706 -0.1493
 3272TIP3    H234012   7.426   5.267  19.202 -1.6282 -0.0927 -0.6260
 3273TIP3   OH234013   2.696   4.531  17.848 -0.1523  0.5160 -0.3986
 3273TIP3    H134014   2.707   4.573  17.933 -0.1798 -0.4855  0.1096
 3273TIP3    H234015   2.603   4.509  17.843  0.0725 -0.5428 -0.1449
 3274TIP3   OH234016   5.608   6.118  16.765  0.2855  0.1031  0.1433
 3274TIP3    H134017   5.608   6.095  16.857 -1.1797 -0.3933  0.0484
 3274TIP3    H234018   5.539   6.065  16.727 -0.0392  1.2745 -0.9915
 3275TIP3   OH234019   7.414   5.306  17.638  0.2148  0.5211  0.0024
 3275TIP3    H134020   7.473   5.242  17.676  0.8606  1.3100  0.3774
 3275TIP3    H234021   7.365   5.258  17.571  0.8524 -0.2926  0.1092
 3276TIP3   OH234022   0.989   6.601  18.108  0.0206 -0.0194  0.2482
 3276TIP3    H134023   0.903   6.637  18.130  0.4140 -0.5349  3.0748
 3276TIP3    H234024   0.988   6.513  18.146  2.1316  0.3617  1.3393
 3277TIP3   OH234025   0.601   6.425  18.891 -0.1838  0.5078 -0.0935
 3277TIP3    H134026   0.549   6.367  18.948 -0.9844  1.3849  0.0992
 3277TIP3    H234027   0.657   6.365  18.841 -1.4328 -0.4942 -0.3551
 3278TIP3   OH234028   7.585   7.698  17.639  0.1238  0.4112 -0.1484
 3278TIP3    H134029   7.623   7.626  17.690  2.5094  1.5480 -0.1755
 3278TIP3    H234030   7.595   7.671  17.548 -1.4073 -0.3151 -0.1367
 3279TIP3   OH234031   6.745   1.755  17.304  0.0947  0.2237 -0.1838
 3279TIP3    H134032   6.701   1.815  17.244 -1.6101 -1.0370 -0.2394
 3279TIP3    H234033   6.838   1.769  17.286 -0.2897  1.8375 -1.1699
 3280TIP3   OH234034   8.169   6.865  16.527  0.1032  0.2239 -1.5968
 3280TIP3    H134035   8.238   6.799  16.522  0.2746  0.3716 -1.2100
 3280TIP3    H234036   8.165   6.902  16.439  2.7001  2.4116 -0.9273
 3281TIP3   OH234037   4.820   4.808  17.657  0.0876 -0.0345 -0.5750
 3281TIP3    H134038   4.760   4.803  17.731  0.3317  2.4009 -0.1152
 3281TIP3    H234039   4.770   4.773  17.583 -1.7425  1.3196 -0.0655
 3282TIP3   OH234040   6.209   5.786  18.443  0.3967 -0.2478 -0.7940
 3282TIP3    H134041   6.243   5.747  18.524  0.8922  0.3356 -0.7105
 3282TIP3    H234042   6.186   5.711  18.388  0.5133 -0.6532 -0.3022
 3283TIP3   OH234043   6.596   1.058  18.186  0.5264  0.5772  0.4035
 3283TIP3    H134044   6.632   1.019  18.265  0.6613  1.9950  1.0697
 3283TIP3    H234045   6.670   1.102  18.145  0.2362  0.7442  0.0507
 3284TIP3   OH234046   0.487   0.992  17.636 -0.6046 -0.0068  0.1801
 3284TIP3    H134047   0.476   1.076  17.679 -2.1220 -0.0281 -0.1162
 3284TIP3    H234048   0.535   1.012  17.556 -1.4615  0.6701 -0.1750
 3285TIP3   OH234049   2.120   1.741  18.277 -0.2409  0.0304  0.6441
 3285TIP3    H134050   2.124   1.708  18.367 -0.9527 -0.1543  0.6098
 3285TIP3    H234051   2.165   1.825  18.280 -0.2725  0.0272  1.1751
 3286TIP3   OH234052   0.015   4.775  16.415 -0.1753  0.4844  0.1285
 3286TIP3    H134053  -0.032   4.703  16.456  0.3127  0.9198  1.5100
 3286TIP3    H234054   0.108   4.751  16.424  0.1491  2.2797  2.7210
 3287TIP3   OH234055   1.617   1.657  18.334 -0.1573 -0.1916  0.0502
 3287TIP3    H134056   1.710   1.675  18.324  0.1564 -0.7746  1.6779
 3287TIP3    H234057   1.606   1.568  18.301 -0.1649 -0.0766 -0.2594
 3288TIP3   OH234058   2.868   3.171  18.416  0.2950 -0.1195 -0.1396
 3288TIP3    H134059   2.804   3.135  18.478  0.1976  0.4978  0.1238
 3288TIP3    H234060   2.946   3.189  18.468 -0.0983  1.2801  0.0255
 3289TIP3   OH234061   5.311   1.997  16.452  0.5215 -0.1195  0.2749
 3289TIP3    H134062   5.294   2.043  16.534 -0.9871  0.4667 -0.3265
 3289TIP3    H234063   5.404   1.976  16.455  0.9758  1.7747  1.1924
 3290TIP3   OH234064   6.422   7.537  17.487  0.2364 -0.0264 -0.1684
 3290TIP3    H134065   6.407   7.452  17.446 -0.5202 -0.5770  1.1652
 3290TIP3    H234066   6.361   7.596  17.441 -0.8945 -0.7143  0.3942
 3291TIP3   OH234067   0.634   1.377  17.645  0.1241 -0.3266  0.4447
 3291TIP3    H134068   0.598   1.439  17.708  0.1753 -2.0525  2.3056
 3291TIP3    H234069   0.684   1.430  17.584  0.2987  1.4408  2.0352
 3292TIP3   OH234070   6.770   2.252  17.403 -0.3663 -0.0048  0.1380
 3292TIP3    H134071   6.711   2.242  17.478 -1.9821 -1.2840 -1.2251
 3292TIP3    H234072   6.712   2.266  17.328  1.1242 -0.1965 -1.1020
 3293TIP3   OH234073   4.043   6.534  18.107  0.0917 -0.2495  0.0276
 3293TIP3    H134074   3.975   6.479  18.068 -1.5086  1.3543  0.3794
 3293TIP3    H234075   3.996   6.587  18.171  1.8609  0.3411  0.8983
 3294TIP3   OH234076   7.842   6.275  18.330  0.0808  0.0677  0.1110
 3294TIP3    H134077   7.924   6.257  18.284 -0.3235 -2.5458  0.2617
 3294TIP3    H234078   7.805   6.350  18.283  2.1111  0.7741 -0.4989
 3295TIP3   OH234079   5.979   5.605  18.696  0.4055 -0.3636  0.1253
 3295TIP3    H134080   6.071   5.603  18.671  0.6999 -1.3046  1.2203
 3295TIP3    H234081   5.979   5.628  18.788 -0.2995 -2.5029  0.7167
 3296TIP3   OH234082   4.684   1.382  18.200  0.2464 -0.2583 -0.0636
 3296TIP3    H134083   4.623   1.308  18.200  0.1198 -0.1995  1.9059
 3296TIP3    H234084   4.690   1.407  18.108 -1.6533 -1.1301 -0.4846
 3297TIP3   OH234085   0.560   4.579  18.029 -0.0549  0.0830  0.3579
 3297TIP3    H134086   0.550   4.674  18.024 -0.4838  0.0354  0.2698
 3297TIP3    H234087   0.470   4.546  18.029  0.0935 -0.3139  0.5630
 3298TIP3   OH234088   7.805   2.990  17.587  0.3456  0.3453  0.3079
 3298TIP3    H134089   7.894   2.966  17.564 -0.1520 -0.1998 -1.1536
 3298TIP3    H234090   7.750   2.941  17.527 -0.9498  0.7209  1.1358
 3299TIP3   OH234091   0.210   7.983  17.249  0.8159 -0.0044 -0.2040
 3299TIP3    H134092   0.205   8.074  17.221  0.9675 -0.0973 -0.5332
 3299TIP3    H234093   0.243   7.935  17.172 -2.3564 -0.8665 -1.1479
 3300TIP3   OH234094   1.400   5.048  17.812 -0.1168  0.0146  0.3594
 3300TIP3    H134095   1.407   5.027  17.905 -2.4804 -0.7567  0.4440
 3300TIP3    H234096   1.355   5.133  17.809 -1.7360 -0.8174 -0.0413
 3301TIP3   OH234097   5.493   3.406  18.854 -0.2664 -0.2805 -0.5688
 3301TIP3    H134098   5.565   3.364  18.901 -0.2965  0.2713 -0.0234
 3301TIP3    H234099   5.414   3.366  18.891 -0.3938  1.6474  1.3938
 3302TIP3   OH234100   8.008   0.623  19.037  0.0896  0.1034 -0.4096
 3302TIP3    H134101   7.913   0.611  19.045  0.0571  0.9738  0.6674
 3302TIP3    H234102   8.044   0.586  19.118  0.5423  1.0430 -0.1736
 3303TIP3   OH234103   8.062   2.964  17.990 -0.4117  0.1902 -0.1313
 3303TIP3    H134104   8.046   2.926  17.904  0.3498 -0.6495  0.0877
 3303TIP3    H234105   8.157   2.974  17.994 -0.4655  0.4913  0.5007
 3304TIP3   OH234106   1.046   4.843  18.053  0.0350  0.6765  0.3909
 3304TIP3    H134107   0.969   4.833  18.110 -0.0103  0.3307  0.2673
 3304TIP3    H234108   1.064   4.755  18.021  0.1436  0.8493 -0.0249
 3305TIP3   OH234109   3.827   7.259  18.611  0.7229  0.0885 -0.2753
 3305TIP3    H134110   3.778   7.297  18.684  0.1598 -0.6856 -0.2394
 3305TIP3    H234111   3.875   7.332  18.573 -0.7047  0.9204 -0.5054
 3306TIP3   OH234112   2.445   1.802  17.697  0.0334 -0.1152 -0.7750
 3306TIP3    H134113   2.458   1.877  17.639  0.7773  0.6280  0.2915
 3306TIP3    H234114   2.405   1.839  17.775 -0.2984 -0.9686 -0.5281
 3307TIP3   OH234115   7.737   0.604  19.095 -0.1460 -0.1852  1.2131
 3307TIP3    H134116   7.682   0.533  19.063 -1.2242  1.3101 -0.4370
 3307TIP3    H234117   7.682   0.651  19.158 -2.1063  2.9685 -2.4116
 3308TIP3   OH234118   5.453   3.403  18.260  0.2370  0.2849 -0.0739
 3308TIP3    H134119   5.455   3.489  18.302 -0.3929  0.5560 -0.6010
 3308TIP3    H234120   5.361   3.387  18.241  0.4522 -0.0959 -0.8232
 3309TIP3   OH234121   2.176   2.588  17.733 -0.4564  0.5311 -0.1453
 3309TIP3    H134122   2.156   2.501  17.770 -2.7809  0.6185 -1.0238
 3309TIP3    H234123   2.090   2.630  17.724  0.6307  3.0451  0.4607
 3310TIP3   OH234124   2.705   5.145  18.243  0.0707 -0.0539 -0.6962
 3310TIP3    H134125   2.648   5.069  18.256 -0.3002  0.1972 -0.8511
 3310TIP3    H234126   2.751   5.155  18.326  0.1921 -0.5036 -0.7055
 3311TIP3   OH234127   3.471   5.917  16.903  0.0514 -0.0795  0.4909
 3311TIP3    H134128   3.412   5.855  16.947  1.8572 -0.9216  1.8507
 3311TIP3    H234129   3.413   5.984  16.867 -2.0423 -2.6815 -1.3632
 3312TIP3   OH234130   0.863   3.033  17.771 -0.0263 -0.0827  0.5132
 3312TIP3    H134131   0.875   3.011  17.863 -2.2672 -1.8739  0.4481
 3312TIP3    H234132   0.836   3.125  17.772 -0.4466 -0.2000  1.6788
 3313TIP3   OH234133   8.260   2.365  17.488 -0.1166  0.4038 -0.0389
 3313TIP3    H134134   8.237   2.276  17.514  0.2503  0.7316  1.5416
 3313TIP3    H234135   8.304   2.402  17.565  1.6251  1.2673 -1.3665
 3314TIP3   OH234136   3.551   5.423  18.824 -0.1216  0.3414  0.2156
 3314TIP3    H134137   3.604   5.347  18.797 -0.4693 -0.0752  0.6914
 3314TIP3    H234138   3.492   5.389  18.890 -1.1677  0.7551 -0.4801
 3315TIP3   OH234139   0.189   8.266  17.235  0.0363 -0.0953 -0.2769
 3315TIP3    H134140   0.214   8.304  17.319 -2.2051  1.3869 -0.1771
 3315TIP3    H234141   0.135   8.334  17.194 -0.8876 -1.7120 -1.8507
 3316TIP3   OH234142   3.555   7.224  18.549 -0.4767  0.1768 -0.2045
 3316TIP3    H134143   3.651   7.219  18.543 -0.2466 -3.5294  2.9857
 3316TIP3    H234144   3.524   7.148  18.499 -1.5421 -0.0997  0.8366
 3317TIP3   OH234145   5.319   5.963  17.345  0.6842 -0.0308  0.2295
 3317TIP3    H134146   5.295   5.928  17.259 -0.0311  0.3893  0.2472
 3317TIP3    H234147   5.395   6.018  17.327 -1.0412  2.2664 -0.6669
 3318TIP3   OH234148   7.913   7.675  17.166  0.3188  0.1152  0.9310
 3318TIP3    H134149   7.881   7.719  17.087  0.2810 -0.3265  0.7009
 3318TIP3    H234150   8.006   7.659  17.148  0.7477  1.5474  1.6672
 3319TIP3   OH234151   5.191   5.401  18.493 -0.1972  0.6129  0.3373
 3319TIP3    H134152   5.160   5.337  18.557 -2.0570  2.1600  1.0601
 3319TIP3    H234153   5.272   5.436  18.531  0.3541 -0.6166  0.3468
 3320TIP3   OH234154   1.552   3.838  17.740 -0.5030  0.0860  0.6092
 3320TIP3    H134155   1.466   3.796  17.741 -0.0517 -0.9590 -0.8138
 3320TIP3    H234156   1.564   3.864  17.648  1.2123 -0.9563  0.4974
 3321TIP3   OH234157   5.613   4.459  18.581 -0.3726  0.3578 -0.2163
 3321TIP3    H134158   5.678   4.490  18.645 -1.7264  1.4544  0.6743
 3321TIP3    H234159   5.559   4.398  18.630  1.9209 -3.2394 -1.8118
 3322TIP3   OH234160   3.959   6.593  18.663  0.2453  0.2932 -0.4758
 3322TIP3    H134161   3.900   6.666  18.686  0.0093  0.1754 -0.7007
 3322TIP3    H234162   3.901   6.526  18.627  0.3485 -0.3348  0.4782
 3323TIP3   OH234163   4.582   1.777  17.813  0.0963 -0.0426  0.6360
 3323TIP3    H134164   4.529   1.845  17.772 -0.6194  0.1118  1.7391
 3323TIP3    H234165   4.652   1.824  17.858  0.7080 -0.1865 -0.1579
 3324TIP3   OH234166   6.934   6.504  18.065  0.4346  0.1339 -0.0601
 3324TIP3    H134167   6.936   6.495  17.969  1.4234 -0.4098  0.0048
 3324TIP3    H234168   6.945   6.415  18.098 -1.0840  0.1549  0.5759
 3325TIP3   OH234169   0.965   7.254  18.031  1.2160  0.2480  0.0915
 3325TIP3    H134170   0.994   7.255  17.940 -1.2084 -1.9212 -0.8455
 3325TIP3    H234171   0.930   7.342  18.046  2.3207  0.8585 -0.7935
 3326TIP3   OH234172   6.733   2.918  17.292  0.2886 -1.1201  0.4209
 3326TIP3    H134173   6.811   2.908  17.238  1.0402 -0.5051  1.3620
 3326TIP3    H234174   6.669   2.858  17.253  0.6023 -0.2827 -1.4820
 3327TIP3   OH234175   0.508   5.903  17.345 -0.4310  0.1050 -0.1019
 3327TIP3    H134176   0.505   5.948  17.260 -0.1273 -1.5348 -1.0294
 3327TIP3    H234177   0.601   5.890  17.362 -0.5361 -1.1501 -0.4120
 3328TIP3   OH234178   7.804   7.217  18.635 -0.0474  0.3366 -0.8445
 3328TIP3    H134179   7.759   7.135  18.655 -0.3836  1.2497  3.0958
 3328TIP3    H234180   7.733   7.280  18.623  0.1704  0.6239 -0.6473
 3329TIP3   OH234181   7.758   1.833  16.989  0.0392 -0.2026  0.1701
 3329TIP3    H134182   7.707   1.797  16.916  1.5046  0.0050 -1.0030
 3329TIP3    H234183   7.693   1.879  17.043 -0.9711  0.4213 -1.5014
 3330TIP3   OH234184   5.014   7.873  16.576  0.1634 -0.1429  0.1346
 3330TIP3    H134185   4.944   7.808  16.560  0.3621 -0.3690  0.1770
 3330TIP3    H234186   5.072   7.830  16.638  1.4684 -0.7855 -1.4650
 3331TIP3   OH234187   5.665   3.884  19.022  0.1344 -0.0038  0.8407
 3331TIP3    H134188   5.689   3.956  19.080  0.9147 -0.3123  0.9279
 3331TIP3    H234189   5.687   3.805  19.072 -0.5769 -0.2973  0.6970
 3332TIP3   OH234190   8.322   7.571  17.411  0.1716  0.4068 -0.7137
 3332TIP3    H134191   8.376   7.492  17.406  0.3977  0.2980  2.0216
 3332TIP3    H234192   8.385   7.643  17.407  0.1720  0.3879 -1.0648
 3333TIP3   OH234193   1.565   5.156  17.198  0.2907 -0.0459  0.5024
 3333TIP3    H134194   1.507   5.232  17.191  0.2120 -0.1798 -0.4317
 3333TIP3    H234195   1.508   5.085  17.227  0.1295 -0.0025  0.2993
 3334TIP3   OH234196   2.767   4.138  18.930  0.3771 -0.1777 -0.2001
 3334TIP3    H134197   2.835   4.095  18.878  0.0742  0.1664 -0.8867
 3334TIP3    H234198   2.801   4.226  18.946 -0.7413  0.7000 -2.2719
 3335TIP3   OH234199   7.460   6.040  17.246 -0.1852  0.5827  0.1681
 3335TIP3    H134200   7.445   6.042  17.340  0.4493  0.4252  0.2743
 3335TIP3    H234201   7.528   6.106  17.231 -0.2702  0.5958 -0.1790
 3336TIP3   OH234202   2.851   6.633  18.855  0.3289  0.1562 -0.2001
 3336TIP3    H134203   2.925   6.573  18.868  0.0248 -0.0598  0.5234
 3336TIP3    H234204   2.877   6.713  18.901 -0.0375 -0.0421  0.3556
 3337TIP3   OH234205   8.174   8.064  18.120 -0.1400  0.4802  0.3758
 3337TIP3    H134206   8.132   8.117  18.188 -1.0307  0.3628 -0.0756
 3337TIP3    H234207   8.117   8.073  18.044 -0.4462 -1.3084  0.3584
 3338TIP3   OH234208   4.217   2.226  18.040 -0.5298  0.0518  0.5266
 3338TIP3    H134209   4.292   2.168  18.026 -1.1347 -0.7483  0.5170
 3338TIP3    H234210   4.256   2.312  18.056  0.3553  0.0026 -1.0739
 3339TIP3   OH234211   6.089   5.045  18.361 -0.0895 -0.3221  0.7300
 3339TIP3    H134212   6.156   5.088  18.414 -0.1131 -2.6260  2.7773
 3339TIP3    H234213   6.008   5.091  18.383  0.2146  0.0337  1.1280
 3340TIP3   OH234214   5.163   0.545  18.669 -0.0615  0.3420  0.5878
 3340TIP3    H134215   5.250   0.516  18.694  0.0318 -0.7082 -0.8194
 3340TIP3    H234216   5.178   0.613  18.603 -0.3158  1.4354  1.6207
 3341TIP3   OH234217   7.334   1.122  18.816 -0.1403 -0.2883 -0.2593
 3341TIP3    H134218   7.243   1.121  18.784 -0.9239 -1.8133  1.7653
 3341TIP3    H234219   7.372   1.042  18.779 -0.6854 -1.4023  1.4201
 3342TIP3   OH234220   5.332   1.864  17.099  0.0894 -0.7646  0.1784
 3342TIP3    H134221   5.265   1.828  17.157  0.1154 -0.5570  0.3396
 3342TIP3    H234222   5.293   1.861  17.012 -0.6815  0.6450  0.4482
 3343TIP3   OH234223   0.476   2.690  17.609  0.3417  0.1512 -0.1078
 3343TIP3    H134224   0.485   2.705  17.704 -0.9656 -0.0536  0.0666
 3343TIP3    H234225   0.557   2.645  17.584  0.9551  0.7155  0.8020
 3344TIP3   OH234226   2.564   0.107  17.741 -0.1033 -0.5345  0.0366
 3344TIP3    H134227   2.504   0.182  17.744  0.9451  0.3620 -0.3022
 3344TIP3    H234228   2.629   0.127  17.809  0.1165 -1.2054  0.0232
 3345TIP3   OH234229   0.756   6.124  17.163 -0.4874 -0.1880  0.0176
 3345TIP3    H134230   0.756   6.156  17.073  0.1270 -0.7924 -0.2013
 3345TIP3    H234231   0.771   6.030  17.155 -1.1642 -0.3681  0.7148
 3346TIP3   OH234232   7.177   4.298  17.852  0.4766 -0.4956  0.0431
 3346TIP3    H134233   7.164   4.228  17.789  1.2515 -1.0855  0.5241
 3346TIP3    H234234   7.263   4.281  17.891 -0.3922 -0.7408  1.9897
 3347TIP3   OH234235   4.145   1.342  17.234 -0.0593  0.3593 -0.0891
 3347TIP3    H134236   4.057   1.361  17.267  0.0398  0.9087 -0.1180
 3347TIP3    H234237   4.131   1.314  17.143 -0.3551 -1.4610  0.4982
 3348TIP3   OH234238   2.818   7.397  18.812 -0.3136 -0.0684  0.6111
 3348TIP3    H134239   2.768   7.316  18.822  0.6306 -0.7813 -0.1999
 3348TIP3    H234240   2.767   7.450  18.751 -1.4521  0.4077  1.9327
 3349TIP3   OH234241   1.915   7.841  18.051 -0.4000 -0.2196  0.1057
 3349TIP3    H134242   1.886   7.918  18.099  0.9927 -1.1733  2.6776
 3349TIP3    H234243   1.839   7.782  18.051  0.2417 -1.2632  3.6276
 3350TIP3   OH234244   0.231   8.402  17.447 -0.3814  0.2020 -0.0454
 3350TIP3    H134245   0.197   8.491  17.462 -2.7286 -0.5075 -0.7615
 3350TIP3    H234246   0.258   8.372  17.534  0.3535  1.5466  0.2247
 3351TIP3   OH234247   2.223   3.654  17.344  0.5150  0.4208  0.1959
 3351TIP3    H134248   2.223   3.562  17.318 -3.0722  0.5119 -0.6832
 3351TIP3    H234249   2.305   3.689  17.308  0.9979 -1.9848 -1.2641
 3352TIP3   OH234250   2.809   4.068  18.241 -0.1553  0.5306 -0.3340
 3352TIP3    H134251   2.774   3.981  18.260 -0.7999  0.7478 -0.5128
 3352TIP3    H234252   2.827   4.106  18.327 -0.0487  0.2957 -0.2514
 3353TIP3   OH234253   0.283   5.858  16.529  0.0542 -0.2302  0.8665
 3353TIP3    H134254   0.237   5.878  16.447  1.3216  1.4017  0.5093
 3353TIP3    H234255   0.352   5.797  16.503  1.1855  1.1682  0.4508
 3354TIP3   OH234256   6.137   4.482  17.880  0.0301  0.0267 -0.2830
 3354TIP3    H134257   6.106   4.562  17.922  0.4775 -0.6558  1.4287
 3354TIP3    H234258   6.227   4.473  17.910 -0.7336 -2.3502  1.5458
 3355TIP3   OH234259   5.045   1.064  18.109  0.1049  0.2335  0.4115
 3355TIP3    H134260   5.077   1.133  18.051  0.8368  0.0127  0.5362
 3355TIP3    H234261   5.123   1.013  18.131 -0.4399 -0.6994  0.2344
 3356TIP3   OH234262   3.537   7.731  18.075  0.6433  0.0883 -0.4824
 3356TIP3    H134263   3.493   7.743  18.159 -0.9687 -4.1487 -0.4417
 3356TIP3    H234264   3.471   7.754  18.009  1.0734  1.0506 -0.5965
 3357TIP3   OH234265   7.506   2.613  18.573 -0.1214 -0.8232  0.9779
 3357TIP3    H134266   7.440   2.593  18.508  0.8960  0.9052 -0.7131
 3357TIP3    H234267   7.457   2.634  18.652 -1.5744 -0.1169 -0.0743
 3358TIP3   OH234268   4.182   4.271  17.957 -0.3661 -0.4145 -0.3053
 3358TIP3    H134269   4.196   4.238  17.868 -1.2440 -3.6885  0.6458
 3358TIP3    H234270   4.268   4.262  17.999 -0.1548  0.3453 -0.5569
 3359TIP3   OH234271   3.262   6.999  16.782 -0.0241 -0.8262  0.0762
 3359TIP3    H134272   3.352   7.007  16.751 -0.4263 -0.9891 -1.2194
 3359TIP3    H234273   3.270   6.983  16.876  1.2200  1.6643  0.4782
 3360TIP3   OH234274   4.808   0.317  17.336 -0.3878  0.0363 -0.0885
 3360TIP3    H134275   4.793   0.318  17.242 -0.3626 -0.0896 -0.0951
 3360TIP3    H234276   4.831   0.226  17.355  1.7594  0.4823 -0.3114
 3361TIP3   OH234277   0.262   8.396  16.926 -0.9766  0.0193 -0.0645
 3361TIP3    H134278   0.181   8.403  16.977 -0.1085  0.1982  1.3226
 3361TIP3    H234279   0.288   8.304  16.936 -1.6028 -0.3433 -1.4906
 3362TIP3   OH234280   4.552   2.723  18.017  0.5620 -0.4096 -0.2403
 3362TIP3    H134281   4.533   2.650  17.957  0.7041 -0.3896 -0.3089
 3362TIP3    H234282   4.533   2.687  18.104 -0.4189 -0.1901 -0.3534
 3363TIP3   OH234283   2.442   7.529  18.393  0.3309 -0.2574 -0.0300
 3363TIP3    H134284   2.415   7.495  18.308 -1.2998 -0.4893  0.5416
 3363TIP3    H234285   2.474   7.452  18.440  0.4512 -0.2798 -0.1496
 3364TIP3   OH234286   8.011   5.046  18.461 -0.2311 -0.0732  0.0469
 3364TIP3    H134287   8.079   5.086  18.407  0.8115  1.1957  2.1700
 3364TIP3    H234288   8.006   4.955  18.431  2.0519 -0.0546 -0.5298
 3365TIP3   OH234289   0.999   6.834  16.926 -0.6648 -0.0725  0.3097
 3365TIP3    H134290   1.070   6.876  16.976 -0.0436  0.6770 -1.1135
 3365TIP3    H234291   1.028   6.840  16.835 -0.9454 -2.9431 -0.0427
 3366TIP3   OH234292   7.546   3.926  19.376  0.6223 -0.2426  0.1382
 3366TIP3    H134293   7.600   4.001  19.400 -2.4073  1.9900  0.6088
 3366TIP3    H234294   7.536   3.877  19.457 -0.7597  1.2711  0.9487
 3367TIP3   OH234295   6.344   1.832  17.370  0.3484 -0.2000  0.0213
 3367TIP3    H134296   6.282   1.843  17.298 -0.2271  0.1768  0.5576
 3367TIP3    H234297   6.350   1.738  17.383  1.6243 -0.3628 -1.4943
 3368TIP3   OH234298   6.825   2.268  16.681 -0.0914  0.0228  0.7792
 3368TIP3    H134299   6.747   2.221  16.651 -0.5026  0.4305  1.1754
 3368TIP3    H234300   6.899   2.221  16.643 -0.4289 -1.5738  2.0303
 3369TIP3   OH234301   8.275   6.947  17.728 -0.3670  0.7858 -0.9854
 3369TIP3    H134302   8.310   6.985  17.809 -2.0238  0.3801 -0.0393
 3369TIP3    H234303   8.244   6.860  17.754 -1.3969  0.8481 -1.9308
 3370TIP3   OH234304   0.043   4.402  18.637 -0.0615  0.1376 -0.4753
 3370TIP3    H134305  -0.048   4.377  18.624  0.2670 -0.3152 -2.1877
 3370TIP3    H234306   0.044   4.497  18.625 -0.5111  0.3651  1.0434
 3371TIP3   OH234307   3.924   0.827  17.200  0.2031 -0.2514  0.3017
 3371TIP3    H134308   3.842   0.874  17.219  0.9885  0.7025  1.4984
 3371TIP3    H234309   3.933   0.766  17.272  0.1640 -0.9110 -0.2463
 3372TIP3   OH234310   6.024   6.575  16.774 -0.0006  0.5796  0.4017
 3372TIP3    H134311   6.038   6.499  16.831  0.9145  0.3497 -0.1056
 3372TIP3    H234312   6.028   6.650  16.833  1.7136  0.4033  0.5762
 3373TIP3   OH234313   5.660   4.988  18.992 -0.0757 -0.1193  0.4404
 3373TIP3    H134314   5.673   5.082  18.979  1.2331 -0.1591  1.2787
 3373TIP3    H234315   5.641   4.954  18.904  1.4208  0.6382 -0.2125
 3374TIP3   OH234316   4.565   5.258  18.152 -0.1808  0.4467 -0.5936
 3374TIP3    H134317   4.623   5.272  18.228  0.3853 -0.5989 -0.8082
 3374TIP3    H234318   4.482   5.231  18.190 -0.0687  0.4834 -0.3200
 3375TIP3   OH234319   4.248   5.211  18.100 -0.3065 -0.2185  0.1937
 3375TIP3    H134320   4.210   5.166  18.025  1.2834  0.9106 -1.3735
 3375TIP3    H234321   4.173   5.231  18.157 -1.9210  0.8564 -2.1517
 3376TIP3   OH234322   6.675   5.450  18.933  0.3460 -0.4951 -0.6226
 3376TIP3    H134323   6.750   5.399  18.902  0.1567 -0.0500 -1.8622
 3376TIP3    H234324   6.710   5.538  18.948 -0.0563 -0.0881 -1.9299
 3377TIP3   OH234325   8.344   4.995  17.620 -0.5836 -0.4441 -0.2855
 3377TIP3    H134326   8.369   5.041  17.700 -0.7251 -1.9223  0.6389
 3377TIP3    H234327   8.384   5.047  17.550 -0.5933  0.9672  0.7063
 3378TIP3   OH234328   5.033   6.886  17.785 -0.8741 -0.3668  1.0920
 3378TIP3    H134329   4.976   6.811  17.805 -2.0639  0.4486  0.9003
 3378TIP3    H234330   4.986   6.932  17.715  1.1913 -0.9508 -0.7635
 3379TIP3   OH234331   7.544   3.360  17.994  0.1179 -0.3415  0.0844
 3379TIP3    H134332   7.515   3.426  17.932 -0.5905 -1.6759 -1.0581
 3379TIP3    H234333   7.502   3.279  17.965  1.3884 -1.4249  1.1144
 3380TIP3   OH234334   4.119   6.976  18.189  0.3598 -0.0048 -0.1652
 3380TIP3    H134335   4.117   7.043  18.258  0.9707  0.8454 -0.9541
 3380TIP3    H234336   4.198   6.995  18.139  1.3385 -2.1845  0.4129
 3381TIP3   OH234337   4.061   1.354  16.958 -0.2877  0.5824  0.2149
 3381TIP3    H134338   4.012   1.272  16.961 -0.8535  0.9427  1.9583
 3381TIP3    H234339   4.031   1.397  16.878 -3.1266  0.9334  1.3514
 3382TIP3   OH234340   1.064   2.903  16.755 -0.1778  0.4550 -0.4895
 3382TIP3    H134341   1.007   2.955  16.697  0.6049 -2.0296 -3.7769
 3382TIP3    H234342   1.065   2.816  16.716  1.9652 -0.9391  2.3146
 3383TIP3   OH234343   3.972   8.421  18.240  0.2604 -0.2310 -0.5311
 3383TIP3    H134344   3.879   8.440  18.233  0.0156 -1.1227  0.1466
 3383TIP3    H234345   3.976   8.330  18.268  1.2673  0.6356  2.4664
 3384TIP3   OH234346   6.274   3.771  17.886  0.6293 -0.4774  0.0060
 3384TIP3    H134347   6.281   3.848  17.828  0.1247 -0.0670  0.4791
 3384TIP3    H234348   6.361   3.732  17.884  1.0908  0.4914  0.2740
 3385TIP3   OH234349   1.689   3.483  17.382 -0.4320 -0.3079  0.0983
 3385TIP3    H134350   1.771   3.484  17.334 -0.6330  0.7237 -0.2424
 3385TIP3    H234351   1.710   3.527  17.465 -0.6291 -0.0703  0.0232
 3386TIP3   OH234352   0.819   0.638  18.718  0.2972  0.0758  0.1186
 3386TIP3    H134353   0.862   0.591  18.789 -1.7122 -0.5634  0.9825
 3386TIP3    H234354   0.822   0.579  18.644  0.2699 -0.2658  0.3885
 3387TIP3   OH234355   4.671   6.068  18.431  0.1532  0.2143  0.4664
 3387TIP3    H134356   4.754   6.115  18.424 -0.6614  1.6753  0.2138
 3387TIP3    H234357   4.664   6.043  18.523 -0.7627  3.3316  1.3713
 3388TIP3   OH234358   0.389   3.409  17.599  0.5833 -0.2262 -0.0639
 3388TIP3    H134359   0.421   3.396  17.510  0.5211  1.3690 -0.3558
 3388TIP3    H234360   0.297   3.386  17.596  0.9557 -1.8715  0.0398
 3389TIP3   OH234361   1.203   8.190  17.124 -0.0325 -0.4261 -0.0430
 3389TIP3    H134362   1.188   8.283  17.106  2.6807  0.1628  0.2677
 3389TIP3    H234363   1.230   8.187  17.215  0.5150 -1.4270 -0.2157
 3390TIP3   OH234364   8.070   5.882  17.466  0.2716 -0.7901  0.5778
 3390TIP3    H134365   8.135   5.934  17.418 -0.2430  0.7485  1.4501
 3390TIP3    H234366   7.995   5.877  17.407 -0.3764  1.1339  1.1344
 3391TIP3   OH234367   8.422   4.316  19.260 -0.2963  0.4547  0.5262
 3391TIP3    H134368   8.440   4.321  19.166  0.0111  0.8360  0.6027
 3391TIP3    H234369   8.388   4.228  19.273  1.0940 -0.1353  0.2918
 3392TIP3   OH234370   4.308   5.022  18.588  0.0098 -0.3008  0.1300
 3392TIP3    H134371   4.298   5.095  18.527 -1.9524 -1.7121 -1.3668
 3392TIP3    H234372   4.297   5.061  18.674 -0.2597  1.2906 -0.5920
 3393TIP3   OH234373   7.169   6.743  18.062 -0.2258 -0.2297 -0.1338
 3393TIP3    H134374   7.191   6.778  17.976  1.1508  1.8953  1.0030
 3393TIP3    H234375   7.167   6.648  18.050  0.9893 -0.0343 -2.2639
 3394TIP3   OH234376   6.736   4.739  19.270 -0.2965 -0.1215  0.6290
 3394TIP3    H134377   6.774   4.793  19.339  0.1372  1.0956 -0.5139
 3394TIP3    H234378   6.666   4.793  19.233  0.7480  0.1176 -1.1578
 3395TIP3   OH234379   0.944   2.682  18.010 -0.6503 -0.3505  0.3723
 3395TIP3    H134380   1.006   2.677  18.083  0.9799  2.0540 -0.7422
 3395TIP3    H234381   0.987   2.633  17.939 -0.4657  0.4900 -0.1039
 3396TIP3   OH234382   3.480   5.230  17.252 -0.4076  1.0093  0.0962
 3396TIP3    H134383   3.552   5.221  17.189 -0.5365  0.0687  0.0623
 3396TIP3    H234384   3.442   5.316  17.234  1.5651  2.1530  1.0189
 3397TIP3   OH234385   2.240   3.323  18.842  0.0266  0.1479 -0.0590
 3397TIP3    H134386   2.280   3.325  18.929  0.7762  1.1536 -0.4036
 3397TIP3    H234387   2.310   3.291  18.785 -0.9069 -1.9381 -0.1076
 3398TIP3   OH234388   2.034   8.362  18.653 -0.1437 -0.2239  0.5123
 3398TIP3    H134389   2.111   8.306  18.662 -0.3391 -1.1347 -2.4336
 3398TIP3    H234390   2.069   8.445  18.622 -0.2260 -0.2254  0.4149
 3399TIP3   OH234391   7.884   1.071  18.396  0.0823  0.8085  0.0110
 3399TIP3    H134392   7.978   1.083  18.412  0.2172 -0.2642  0.0913
 3399TIP3    H234393   7.867   1.118  18.314  0.7458  0.8165 -0.1260
 3400TIP3   OH234394   1.776   2.854  17.193 -0.0510 -0.7341 -0.7164
 3400TIP3    H134395   1.706   2.818  17.139 -0.4587  0.4908 -1.0456
 3400TIP3    H234396   1.844   2.881  17.131  0.8433 -2.1038 -0.3887
 3401TIP3   OH234397   1.446   6.746  18.040  0.2903  0.1907 -0.1194
 3401TIP3    H134398   1.389   6.673  18.065  0.3249  0.7191  1.6661
 3401TIP3    H234399   1.412   6.821  18.088  1.0514  1.0627 -0.8936
 3402TIP3   OH234400   6.535   0.916  16.579 -0.0006 -0.0424 -0.0353
 3402TIP3    H134401   6.606   0.872  16.532 -0.6039  1.7203 -2.8860
 3402TIP3    H234402   6.578   0.986  16.628  0.3612  0.3668 -0.9146
 3403TIP3   OH234403   2.884   4.384  17.729  0.2667  0.2744 -0.1419
 3403TIP3    H134404   2.949   4.411  17.793  0.3552 -0.3430  0.0281
 3403TIP3    H234405   2.803   4.428  17.758  0.6847  1.3854 -0.5963
 3404TIP3   OH234406   6.906   5.227  19.294  0.4678 -0.0236 -0.0994
 3404TIP3    H134407   6.860   5.182  19.224  2.4360 -0.9651 -0.8575
 3404TIP3    H234408   6.839   5.244  19.360 -1.1740 -0.2498 -1.6482
 3405TIP3   OH234409   6.031   7.868  18.477  0.0225  0.6108  1.0839
 3405TIP3    H134410   6.078   7.921  18.542  0.1587  0.6499  0.9528
 3405TIP3    H234411   6.094   7.801  18.451  0.4445  1.4009 -0.0100
 3406TIP3   OH234412   4.152   7.103  17.325  0.0271  0.1508 -0.7198
 3406TIP3    H134413   4.247   7.112  17.319 -0.0358  0.7869 -0.7771
 3406TIP3    H234414   4.118   7.189  17.302 -0.5240  0.3182  0.6149
 3407TIP3   OH234415   1.160   5.979  18.659  0.4033  0.0381  0.3737
 3407TIP3    H134416   1.091   5.996  18.595  1.2201  2.2076 -0.0249
 3407TIP3    H234417   1.234   5.947  18.607  0.0515 -1.3431  0.6811
 3408TIP3   OH234418   7.967   3.709  18.536 -0.0133 -0.0701  0.5970
 3408TIP3    H134419   7.921   3.682  18.456 -0.3134 -1.8632  1.3446
 3408TIP3    H234420   8.031   3.773  18.505 -0.4322 -0.3744 -1.0193
 3409TIP3   OH234421   8.268   5.719  17.783  0.1990  0.2921 -0.1604
 3409TIP3    H134422   8.257   5.739  17.876  1.5389 -1.0590  0.3306
 3409TIP3    H234423   8.297   5.628  17.781  0.7549  0.4703 -1.8711
 3410TIP3   OH234424   0.554   6.308  17.368 -0.1752 -0.9455 -0.2424
 3410TIP3    H134425   0.508   6.278  17.290 -1.1713  0.1859 -0.1154
 3410TIP3    H234426   0.647   6.305  17.344 -0.4963 -0.0002 -1.7094
 3411TIP3   OH234427   8.069   6.923  18.433 -0.5699 -0.6669 -0.0056
 3411TIP3    H134428   8.062   7.016  18.409 -0.4957 -0.5084  0.5714
 3411TIP3    H234429   7.984   6.901  18.469 -0.0531 -0.3523  1.4556
 3412TIP3   OH234430   6.600   1.788  16.302  0.5243  0.5844  0.3328
 3412TIP3    H134431   6.614   1.845  16.378 -0.7614 -2.0203  2.7199
 3412TIP3    H234432   6.687   1.780  16.262  1.6964  0.5698  2.7036
 3413TIP3   OH234433   7.130   0.003  17.091 -0.1345  1.0228  0.4374
 3413TIP3    H134434   7.171  -0.006  17.006  2.2373 -0.2699  1.6314
 3413TIP3    H234435   7.059   0.066  17.077 -0.2176  0.3864 -2.5743
 3414TIP3   OH234436   0.757   8.373  16.583 -0.7664  0.0531  0.2441
 3414TIP3    H134437   0.784   8.361  16.674  1.4566 -1.8242 -0.5484
 3414TIP3    H234438   0.806   8.451  16.554 -0.8757  0.1996  0.4538
 3415TIP3   OH234439   2.982   3.748  17.801 -0.2136 -0.3567  0.0134
 3415TIP3    H134440   2.928   3.803  17.744  1.7122  1.2488 -0.3671
 3415TIP3    H234441   2.950   3.766  17.889 -1.0988 -0.3971 -0.2859
 3416TIP3   OH234442   7.092   2.236  17.752  0.3840 -0.1033  0.3758
 3416TIP3    H134443   7.136   2.246  17.667  1.5373 -1.3803  0.7877
 3416TIP3    H234444   7.163   2.236  17.816 -0.4139  0.0548  1.2823
 3417TIP3   OH234445   7.359   2.357  17.594 -0.5121  0.5392  0.1804
 3417TIP3    H134446   7.352   2.389  17.684  0.6599 -0.0292  0.4914
 3417TIP3    H234447   7.269   2.361  17.560 -1.0475  0.3427  1.5087
 3418TIP3   OH234448   3.305   4.357  18.285 -0.5199 -0.0706  0.0161
 3418TIP3    H134449   3.309   4.271  18.243 -1.1695 -0.1710  0.1563
 3418TIP3    H234450   3.390   4.366  18.329 -0.9098 -1.1847  1.0567
 3419TIP3   OH234451   7.261   7.789  18.015  1.1907  0.4007 -0.3490
 3419TIP3    H134452   7.290   7.858  17.955  0.3641  0.6850 -0.4281
 3419TIP3    H234453   7.335   7.778  18.075  1.0791  1.8408  0.0944
 3420TIP3   OH234454   2.209   6.618  18.607  0.7609  0.3597  0.0407
 3420TIP3    H134455   2.221   6.577  18.692 -1.0119  1.2702  0.7788
 3420TIP3    H234456   2.130   6.671  18.616  0.6970  0.7379 -2.0822
 3421TIP3   OH234457   5.016   5.446  18.886  0.0725  0.6324  0.5539
 3421TIP3    H134458   4.940   5.388  18.885  0.7894 -0.3666 -1.2149
 3421TIP3    H234459   4.982   5.532  18.860 -0.9809  1.0432  3.0917
 3422TIP3   OH234460   4.980   2.758  16.300  0.6364  0.6639  0.1940
 3422TIP3    H134461   5.017   2.671  16.289  0.5250  0.4602  1.3186
 3422TIP3    H234462   5.053   2.818  16.280  0.2831  0.4034 -2.2538
 3423TIP3   OH234463   5.835   6.216  18.012 -0.3231  0.1457 -0.6286
 3423TIP3    H134464   5.781   6.258  18.080 -1.8594  0.8288 -2.1986
 3423TIP3    H234465   5.868   6.137  18.054 -1.8066  0.1713  0.7194
 3424TIP3   OH234466   8.221   4.287  18.609 -0.4282  0.2504  0.1296
 3424TIP3    H134467   8.162   4.211  18.607 -1.6375  1.1752 -0.3554
 3424TIP3    H234468   8.164   4.362  18.595  0.9500  1.1454 -0.9351
 3425TIP3   OH234469   8.005   4.759  18.443  0.3143  0.5687 -0.3932
 3425TIP3    H134470   7.949   4.754  18.520  0.2270 -1.8093 -0.5484
 3425TIP3    H234471   8.094   4.769  18.479  0.2842 -0.6110  0.0331
 3426TIP3   OH234472   3.030   8.239  18.066  0.0232 -0.3001  0.5018
 3426TIP3    H134473   3.017   8.150  18.099  0.1344 -1.2707 -1.8210
 3426TIP3    H234474   2.960   8.251  18.001  0.9934  0.6462 -0.4191
 3427TIP3   OH234475   3.397   5.325  19.052 -0.3573  0.2943  0.0173
 3427TIP3    H134476   3.387   5.232  19.028  0.2489  0.5958 -1.4863
 3427TIP3    H234477   3.415   5.323  19.146  0.2798 -1.1623 -0.1027
 3428TIP3   OH234478   0.741   4.372  17.814 -0.3355  0.2825 -0.4972
 3428TIP3    H134479   0.736   4.464  17.842 -0.1180  0.4267 -0.9161
 3428TIP3    H234480   0.792   4.329  17.882 -1.9347  0.0842  0.6514
 3429TIP3   OH234481   2.544   7.689  17.006  0.0693 -0.0436 -0.1484
 3429TIP3    H134482   2.565   7.764  16.951  1.8921 -1.0834 -0.9709
 3429TIP3    H234483   2.535   7.725  17.094  1.6153  1.0454 -0.4116
 3430TIP3   OH234484   1.070   2.126  17.036  0.3134 -0.4009 -0.1167
 3430TIP3    H134485   1.154   2.140  17.079  0.1383 -1.1396  0.4823
 3430TIP3    H234486   1.069   2.189  16.963  0.4723  1.1240  1.1482
 3431TIP3   OH234487   7.333   5.145  17.105  0.3463  0.3389  0.4646
 3431TIP3    H134488   7.345   5.067  17.050  0.3312  1.2528 -0.8848
 3431TIP3    H234489   7.334   5.111  17.194 -0.8086 -1.3843 -0.1059
 3432TIP3   OH234490   3.118   1.197  17.653  0.0396 -0.0299 -0.0382
 3432TIP3    H134491   3.207   1.170  17.677 -0.3840 -0.0297  1.6354
 3432TIP3    H234492   3.083   1.123  17.603  1.2924  0.3732 -1.5944
 3433TIP3   OH234493   5.230   3.380  17.516 -0.2500  0.2337 -0.4152
 3433TIP3    H134494   5.166   3.447  17.492  0.1772  1.2374  1.0513
 3433TIP3    H234495   5.202   3.351  17.603  0.6751 -0.0545 -0.1984
 3434TIP3   OH234496   3.432   4.799  16.932 -0.1546 -0.6875  0.0950
 3434TIP3    H134497   3.390   4.727  16.979 -0.3418  0.2996  1.4813
 3434TIP3    H234498   3.361   4.837  16.880 -0.4524 -0.4539  0.6643
 3435TIP3   OH234499   1.451   4.902  17.313 -0.1073 -0.0694 -0.3984
 3435TIP3    H134500   1.449   4.830  17.251  2.6825  1.4670 -2.5117
 3435TIP3    H234501   1.467   4.860  17.398 -0.9291 -2.0296 -1.1521
 3436TIP3   OH234502   0.140   2.099  17.882 -0.0964 -0.0246  0.2730
 3436TIP3    H134503   0.146   2.163  17.953  0.2931  0.3151 -0.0627
 3436TIP3    H234504   0.226   2.056  17.881 -0.9050 -1.7829  1.6318
 3437TIP3   OH234505   0.854   2.077  18.425  0.1755  0.0107  0.4271
 3437TIP3    H134506   0.818   2.060  18.512 -0.4995 -1.2322 -0.0712
 3437TIP3    H234507   0.782   2.118  18.376  0.0067 -0.8139 -0.0292
 3438TIP3   OH234508   1.538   6.121  18.971 -0.2165  0.6414  0.1951
 3438TIP3    H134509   1.467   6.120  18.907  0.8112  1.7911 -1.0428
 3438TIP3    H234510   1.544   6.213  18.998  0.0608  0.3514  1.1455
 3439TIP3   OH234511   6.913   5.644  16.249  0.0880 -0.3871 -0.1325
 3439TIP3    H134512   6.956   5.729  16.243 -2.3510  0.8886 -0.4732
 3439TIP3    H234513   6.980   5.586  16.285  1.7857  1.6744  0.1966
 3440TIP3   OH234514   8.216   1.219  16.594  0.0491  0.2373 -0.2822
 3440TIP3    H134515   8.148   1.278  16.628 -0.7281 -0.3661 -0.7675
 3440TIP3    H234516   8.269   1.275  16.538 -1.1415  0.3433 -1.3590
 3441TIP3   OH234517   6.730   2.445  16.905  0.3920  0.1627  0.4545
 3441TIP3    H134518   6.641   2.413  16.892  0.1846  1.6407 -2.5876
 3441TIP3    H234519   6.785   2.383  16.857  0.6553  0.8228 -0.1153
 3442TIP3   OH234520   5.834   2.419  17.221  0.4862  0.1517  0.0330
 3442TIP3    H134521   5.908   2.479  17.230 -0.3315  1.9941 -3.4748
 3442TIP3    H234522   5.818   2.415  17.126 -2.9471 -1.3270  0.5080
 3443TIP3   OH234523   3.696   3.935  17.803  0.2359  0.7411 -0.0053
 3443TIP3    H134524   3.662   4.015  17.763 -2.7264 -0.0560  0.6647
 3443TIP3    H234525   3.624   3.903  17.857  2.0409 -1.3303  1.3541
 3444TIP3   OH234526   3.864   8.004  17.541 -0.0188 -0.0114  0.0219
 3444TIP3    H134527   3.796   8.064  17.512  0.6485  1.0236  0.5268
 3444TIP3    H234528   3.877   7.945  17.467 -0.3919  0.7410 -0.6554
 3445TIP3   OH234529   5.228   6.435  17.142  0.6786 -0.5775 -0.1805
 3445TIP3    H134530   5.184   6.352  17.160  0.9237 -0.7427 -0.3393
 3445TIP3    H234531   5.270   6.459  17.224 -2.0875  1.0569  0.8944
 3446TIP3   OH234532   1.045   6.220  17.055  1.4174  0.2345 -0.1699
 3446TIP3    H134533   0.998   6.225  16.972  1.9568  0.2334 -0.4795
 3446TIP3    H234534   1.041   6.127  17.079  0.6730  0.3400  0.1591
 3447TIP3   OH234535   8.340   0.968  18.041 -0.1630  0.2933 -0.4831
 3447TIP3    H134536   8.319   1.009  17.957  0.6844  0.6267 -0.5395
 3447TIP3    H234537   8.254   0.945  18.078 -0.5413 -1.0408 -2.0183
 3448TIP3   OH234538   6.832   8.379  16.471 -0.2625  0.4958  0.3575
 3448TIP3    H134539   6.901   8.314  16.484 -0.2755  0.8269  2.3718
 3448TIP3    H234540   6.860   8.454  16.523 -1.2962  1.3110 -0.2180
 3449TIP3   OH234541   0.846   0.692  17.802  0.4382  0.0811  0.2726
 3449TIP3    H134542   0.940   0.698  17.816  0.3445  1.1823  0.5218
 3449TIP3    H234543   0.824   0.768  17.748 -0.0125 -1.2942 -1.5671
 3450TIP3   OH234544   2.089   4.846  18.325 -0.0215  0.1513 -0.3295
 3450TIP3    H134545   2.049   4.813  18.406 -2.0847  2.4411 -0.2913
 3450TIP3    H234546   2.046   4.797  18.255 -0.9673  0.6889 -0.1520
 3451TIP3   OH234547   3.836   1.867  16.828 -0.0000  0.8303 -0.4637
 3451TIP3    H134548   3.839   1.903  16.740 -1.2537  1.6009 -0.2120
 3451TIP3    H234549   3.831   1.943  16.885 -2.7941  0.3324  0.0704
 3452TIP3   OH234550   5.092   7.553  16.680 -0.6878 -0.2569 -0.1545
 3452TIP3    H134551   4.999   7.548  16.659 -0.3948  0.5908 -1.8568
 3452TIP3    H234552   5.134   7.578  16.597  1.0553 -0.6201  0.5696
 3453TIP3   OH234553   3.961   5.282  17.770 -0.2445  0.2571 -0.5722
 3453TIP3    H134554   3.908   5.264  17.848  0.6520  1.3357  0.3181
 3453TIP3    H234555   4.043   5.237  17.786 -0.0107  0.5882 -0.8292
 3454TIP3   OH234556   1.778   0.258  17.886  0.4216 -0.1865 -0.2727
 3454TIP3    H134557   1.683   0.260  17.872  0.5094  1.4089 -0.8831
 3454TIP3    H234558   1.791   0.303  17.969  0.7463  1.3950 -1.1396
 3455TIP3   OH234559   6.775   7.183  16.919 -0.3942 -0.3894 -0.0221
 3455TIP3    H134560   6.715   7.175  16.993 -2.4411 -0.6184 -1.6175
 3455TIP3    H234561   6.786   7.277  16.908 -0.5023 -0.3410  0.2619
 3456TIP3   OH234562   5.940   5.227  16.557  0.0835 -0.1818  0.4587
 3456TIP3    H134563   5.935   5.318  16.531 -0.2718  0.4381  2.5112
 3456TIP3    H234564   6.018   5.222  16.613 -0.6963 -0.7902  1.5293
 3457TIP3   OH234565   5.739   0.241  17.591 -0.4157  0.5745 -0.1436
 3457TIP3    H134566   5.650   0.235  17.626 -0.0067 -0.2846  0.7915
 3457TIP3    H234567   5.736   0.316  17.531 -1.8760  0.2956 -0.4579
 3458TIP3   OH234568   5.841   6.840  17.085 -0.0859 -0.1691 -0.0796
 3458TIP3    H134569   5.798   6.777  17.027 -1.4314 -1.3003  2.0022
 3458TIP3    H234570   5.769   6.890  17.124  0.5169 -0.9250  2.1789
 3459TIP3   OH234571   6.154   5.940  16.815  0.1449 -0.3576  0.0630
 3459TIP3    H134572   6.066   5.905  16.811 -0.4813  1.1488 -0.0151
 3459TIP3    H234573   6.210   5.870  16.780 -0.7563 -2.0659  1.8471
 3460TIP3   OH234574   0.371   3.923  17.396  0.8955  0.0968  0.5534
 3460TIP3    H134575   0.395   3.929  17.303  0.0501  0.1683  0.3251
 3460TIP3    H234576   0.370   4.014  17.426  0.2903  0.1517  0.3863
 3461TIP3   OH234577   3.366   1.806  18.047 -0.0805  0.3586 -0.5184
 3461TIP3    H134578   3.367   1.760  18.131 -0.6844  0.8664 -0.2236
 3461TIP3    H234579   3.351   1.898  18.070 -0.7663  0.4320 -1.2098
 3462TIP3   OH234580   7.491   3.660  17.985  0.2446  0.3632 -0.3524
 3462TIP3    H134581   7.568   3.604  17.985 -0.3289 -0.4608 -1.6715
 3462TIP3    H234582   7.524   3.746  18.012  1.5015 -0.1218 -0.2795
 3463TIP3   OH234583   1.861   7.497  17.893  0.0572 -0.2817  0.5512
 3463TIP3    H134584   1.789   7.437  17.875 -0.4336  0.4255  0.1142
 3463TIP3    H234585   1.819   7.577  17.923  0.6942 -0.0732  0.8998
 3464TIP3   OH234586   0.813   1.769  17.448 -0.6229  0.1600  0.3938
 3464TIP3    H134587   0.737   1.803  17.497 -0.1759  2.3000 -0.2891
 3464TIP3    H234588   0.825   1.831  17.377  3.1445  1.2739  1.7389
 3465TIP3   OH234589   2.114   3.553  18.749  0.3476  0.1665 -0.3447
 3465TIP3    H134590   2.164   3.487  18.797  0.8473  0.9034  0.1570
 3465TIP3    H234591   2.112   3.629  18.807  0.1758  0.7576 -1.1094
 3466TIP3   OH234592   3.798   5.352  17.250 -0.4762 -0.8459  0.6604
 3466TIP3    H134593   3.748   5.306  17.181 -0.4538 -2.3120  1.5730
 3466TIP3    H234594   3.823   5.435  17.210  1.0819 -2.3664 -1.7731
 3467TIP3   OH234595   5.816   6.616  17.599 -0.2707  0.1725  0.2431
 3467TIP3    H134596   5.855   6.528  17.597  2.9003  1.4411  0.8892
 3467TIP3    H234597   5.788   6.627  17.690 -1.8544 -0.5897 -0.1257
 3468TIP3   OH234598   1.110   2.434  17.954  0.6025 -0.0817 -0.0681
 3468TIP3    H134599   1.110   2.339  17.957 -0.4040 -0.0914  2.7959
 3468TIP3    H234600   1.138   2.461  18.042  0.1903  2.2476 -0.5817
 3469TIP3   OH234601   3.874   1.341  17.685 -0.0411  0.1045  0.0941
 3469TIP3    H134602   3.919   1.372  17.764 -0.2613 -1.0791  0.6965
 3469TIP3    H234603   3.860   1.248  17.700  0.6425 -0.3217 -1.7101
 3470TIP3   OH234604   6.784   6.141  17.337 -0.3146  0.4532 -0.2290
 3470TIP3    H134605   6.816   6.064  17.384  1.4192  1.0037 -0.4188
 3470TIP3    H234606   6.857   6.165  17.279 -1.2868  1.5192 -1.0457
 3471TIP3   OH234607   5.701   2.310  18.237 -0.0840 -0.7455  0.0635
 3471TIP3    H134608   5.703   2.296  18.142 -0.0657 -0.1510 -0.0258
 3471TIP3    H234609   5.636   2.248  18.269 -0.7575 -0.3219 -0.4520
 3472TIP3   OH234610   6.082   1.180  17.314  0.5952 -0.3869 -0.6114
 3472TIP3    H134611   6.019   1.118  17.352 -0.8110  1.0545 -0.5234
 3472TIP3    H234612   6.101   1.144  17.227 -1.5814 -0.0572 -1.2724
 3473TIP3   OH234613   0.167   5.031  17.425  0.1366  0.4076 -0.0712
 3473TIP3    H134614   0.108   5.087  17.476 -0.7833 -0.0265 -0.6217
 3473TIP3    H234615   0.167   5.070  17.337 -0.6999 -0.5457 -0.5263
 3474TIP3   OH234616   1.532   6.014  18.307 -0.4540  0.0449  0.3291
 3474TIP3    H134617   1.515   6.032  18.214  1.5963 -0.4407 -0.2103
 3474TIP3    H234618   1.546   5.920  18.310  0.7808  0.2311  0.8691
 3475TIP3   OH234619   8.355   1.209  18.378 -0.2119 -0.8406  0.3659
 3475TIP3    H134620   8.404   1.186  18.299 -0.5206 -1.3875  0.3251
 3475TIP3    H234621   8.264   1.192  18.355 -0.4527  0.3426  0.3764
 3476TIP3   OH234622   5.249   4.515  17.510  0.4763 -0.5219 -0.6920
 3476TIP3    H134623   5.283   4.548  17.593 -0.1669 -1.6144  0.0332
 3476TIP3    H234624   5.154   4.513  17.523  0.3985 -1.1065 -1.3052
 3477TIP3   OH234625   5.428   6.421  18.082 -0.5710 -0.1301 -0.2675
 3477TIP3    H134626   5.391   6.462  18.160 -1.9609  0.1709 -1.0420
 3477TIP3    H234627   5.458   6.494  18.029 -0.9829 -0.2364 -0.6548
 3478TIP3   OH234628   8.074   3.460  18.720  0.4041 -0.4617 -0.4299
 3478TIP3    H134629   8.165   3.486  18.733  0.8380 -2.0263 -0.0590
 3478TIP3    H234630   8.023   3.521  18.774  1.1906  0.6215 -0.8848
 3479TIP3   OH234631   4.314   0.288  18.390 -0.0141  0.1806 -0.0617
 3479TIP3    H134632   4.351   0.288  18.479  0.2419  0.8464 -0.1637
 3479TIP3    H234633   4.384   0.321  18.335 -0.3682  0.3196 -0.4309
 3480TIP3   OH234634   0.824   4.240  19.239  0.2030 -0.5488 -0.1072
 3480TIP3    H134635   0.823   4.335  19.241 -0.0012 -0.5586  0.5979
 3480TIP3    H234636   0.909   4.217  19.202 -0.5240 -0.0880 -2.2442
 3481TIP3   OH234637   5.961   3.958  17.452 -0.5795 -0.4834 -0.1885
 3481TIP3    H134638   6.032   3.960  17.517 -1.0398  2.7427  0.3645
 3481TIP3    H234639   5.891   3.910  17.496  0.7130 -2.5131 -0.2127
 3482TIP3   OH234640   5.147   5.204  17.826 -0.0141 -0.1746 -0.0570
 3482TIP3    H134641   5.106   5.125  17.864  1.2149 -1.4943 -1.3786
 3482TIP3    H234642   5.083   5.235  17.763  0.1452 -1.0637 -0.6779
 3483TIP3   OH234643   4.666   0.684  17.043  0.0897 -0.2578 -0.1761
 3483TIP3    H134644   4.588   0.738  17.056  0.2104  0.4440 -2.0893
 3483TIP3    H234645   4.640   0.620  16.977  0.9750 -0.3492 -0.4481
 3484TIP3   OH234646   5.682   7.699  17.746  0.3892 -0.1738  0.0962
 3484TIP3    H134647   5.627   7.638  17.796 -0.4961  0.6042  0.0870
 3484TIP3    H234648   5.765   7.652  17.734 -0.5537 -1.7147 -0.6469
 3485TIP3   OH234649   3.577   4.417  17.395  0.5877 -0.5890  0.3989
 3485TIP3    H134650   3.539   4.356  17.332 -0.7573 -1.8315  2.3036
 3485TIP3    H234651   3.585   4.366  17.476 -1.2731  1.8938  2.3076
 3486TIP3   OH234652   6.109   5.295  18.206 -0.6288 -0.0649 -0.0248
 3486TIP3    H134653   6.137   5.226  18.146 -0.0351  0.1115  0.0484
 3486TIP3    H234654   6.017   5.275  18.223 -0.2639 -1.3061  0.6176
 3487TIP3   OH234655   5.714   7.580  18.354  0.3398 -0.3261 -0.2892
 3487TIP3    H134656   5.632   7.611  18.393 -0.1761 -0.1036 -1.5177
 3487TIP3    H234657   5.736   7.502  18.404 -1.0016 -0.7871 -0.3919
 3488TIP3   OH234658   1.954   5.372  18.812 -0.0978  0.2814 -0.0383
 3488TIP3    H134659   1.970   5.386  18.718 -0.4481  2.1903  0.1511
 3488TIP3    H234660   2.041   5.372  18.851 -0.0137  0.6422 -0.2212
 3489TIP3   OH234661   3.240   7.271  17.631 -0.0482 -0.3238  0.1029
 3489TIP3    H134662   3.154   7.237  17.657 -0.1989  1.6798  2.6603
 3489TIP3    H234663   3.295   7.258  17.708  1.8401 -1.0453 -1.2935
 3490TIP3   OH234664   7.308   5.131  18.501 -0.1188  0.3134 -0.3546
 3490TIP3    H134665   7.376   5.094  18.444 -0.1905  0.1289 -0.3185
 3490TIP3    H234666   7.324   5.226  18.498  1.7699  0.1248  1.7030
 3491TIP3   OH234667   3.429   3.115  16.637 -0.0344  0.2334 -0.0067
 3491TIP3    H134668   3.385   3.126  16.552 -0.8532  0.7508  0.4790
 3491TIP3    H234669   3.375   3.052  16.684  0.0353  0.4687  0.3945
 3492TIP3   OH234670   3.624   7.284  16.742 -0.0768 -0.6433  0.1890
 3492TIP3    H134671   3.584   7.211  16.789 -0.6908 -0.8769 -0.6700
 3492TIP3    H234672   3.559   7.354  16.744  0.0856 -0.4875  0.1017
 3493TIP3   OH234673   7.621   1.809  18.384 -0.0274 -0.0170 -0.3694
 3493TIP3    H134674   7.708   1.769  18.382 -0.6100 -1.3040 -2.0023
 3493TIP3    H234675   7.577   1.766  18.458  1.0143  1.4485  1.1970
 3494TIP3   OH234676   6.004   2.498  17.633 -0.3931 -0.0844  0.2367
 3494TIP3    H134677   5.966   2.417  17.598  1.1575 -0.5991 -0.3694
 3494TIP3    H234678   6.097   2.477  17.645  0.4790  2.1970 -1.8376
 3495TIP3   OH234679   7.621   2.474  18.309  0.2405 -0.7633 -0.0410
 3495TIP3    H134680   7.531   2.495  18.334  0.2720 -3.2705  2.8884
 3495TIP3    H234681   7.675   2.527  18.368  0.6444 -0.6864 -0.4722
 3496TIP3   OH234682   1.397   4.448  17.738  0.2194  0.3579  0.5811
 3496TIP3    H134683   1.390   4.450  17.643 -2.4299  0.9989  0.7089
 3496TIP3    H234684   1.463   4.381  17.756 -1.0627 -1.6429 -1.6479
 3497TIP3   OH234685   3.399   1.996  17.751 -0.1092  0.5935  0.1350
 3497TIP3    H134686   3.367   1.985  17.661 -0.5612 -2.1814  0.5567
 3497TIP3    H234687   3.320   1.993  17.805  0.3766 -0.9527  0.8122
 3498TIP3   OH234688   6.580   2.020  16.440  1.1857 -0.0717  0.0090
 3498TIP3    H134689   6.565   2.082  16.511 -0.7899 -0.7788  0.2789
 3498TIP3    H234690   6.516   2.044  16.374  0.7250 -1.4885 -0.0904
 3499TIP3   OH234691   6.347   6.889  18.260  0.2239 -0.1421  0.8937
 3499TIP3    H134692   6.356   6.960  18.196 -1.0348 -0.6160  0.1753
 3499TIP3    H234693   6.265   6.907  18.305 -1.0011 -2.0105 -0.4459
 3500TIP3   OH234694   4.624   0.340  17.098 -0.1944 -0.1602  0.3974
 3500TIP3    H134695   4.670   0.371  17.020 -2.1406  0.8713 -0.4094
 3500TIP3    H234696   4.571   0.415  17.126  2.0162  0.3218  4.0749
 3501TIP3   OH234697   8.179   3.519  19.024  0.1116 -0.0639 -0.7794
 3501TIP3    H134698   8.265   3.529  18.983  0.4743 -0.7303 -0.2041
 3501TIP3    H234699   8.141   3.607  19.021  0.9754  0.3252 -0.6916
 3502TIP3   OH234700   4.820   0.946  18.208 -0.1930  0.1243 -0.2900
 3502TIP3    H134701   4.886   0.985  18.151  0.9640 -1.7575 -0.3424
 3502TIP3    H234702   4.866   0.873  18.251 -2.3970 -1.7156 -0.8627
 3503TIP3   OH234703   1.695   2.829  17.838 -1.1064  0.7027  0.4207
 3503TIP3    H134704   1.647   2.825  17.755 -1.4992  0.9438  0.6302
 3503TIP3    H234705   1.755   2.902  17.828 -1.4148  0.9688  0.4790
 3504TIP3   OH234706   6.343   7.127  18.165  0.0056  0.6570  0.4611
 3504TIP3    H134707   6.256   7.157  18.138 -0.6972  1.0051  2.9104
 3504TIP3    H234708   6.391   7.207  18.187 -0.2180  0.3175  2.3078
 3505TIP3   OH234709   6.308   1.310  18.219  0.0055  0.1721 -0.2933
 3505TIP3    H134710   6.369   1.276  18.153 -1.4157  0.0495 -1.5879
 3505TIP3    H234711   6.336   1.400  18.233  1.3132 -0.2674  0.1907
 3506TIP3   OH234712   0.839   5.028  17.115 -0.1280  0.5280 -0.0740
 3506TIP3    H134713   0.838   4.953  17.173 -0.0755  1.1794  0.7921
 3506TIP3    H234714   0.932   5.048  17.103 -0.0994 -0.1452 -1.1236
 3507TIP3   OH234715   6.005   6.388  17.206 -0.2518  0.1959 -0.0479
 3507TIP3    H134716   6.083   6.336  17.186  1.1087  2.3964 -0.8209
 3507TIP3    H234717   6.032   6.445  17.278 -1.6132  0.0691  0.5935
 3508TIP3   OH234718   2.616   7.810  18.704 -0.1218  0.4610 -0.0310
 3508TIP3    H134719   2.648   7.729  18.664 -0.5994 -0.5994  1.6259
 3508TIP3    H234720   2.522   7.794  18.717  0.0392  0.6349  1.6530
 3509TIP3   OH234721   2.246   5.908  18.496  0.1665  0.5764  0.2979
 3509TIP3    H134722   2.296   5.830  18.470 -1.1325 -0.0880 -0.3029
 3509TIP3    H234723   2.229   5.896  18.589 -0.2102  0.0121  0.1652
 3510TIP3   OH234724   4.774   7.211  17.335 -0.0687 -0.3629 -0.0583
 3510TIP3    H134725   4.753   7.119  17.320 -0.4722 -0.2106 -0.4499
 3510TIP3    H234726   4.862   7.222  17.299 -0.0537 -0.5758 -0.0859
 3511TIP3   OH234727   0.404   3.527  19.249  0.1597  0.4347  0.0199
 3511TIP3    H134728   0.374   3.441  19.278  0.4169  0.4866  0.4461
 3511TIP3    H234729   0.323   3.578  19.240  0.1423  0.7402  1.7192
 3512TIP3   OH234730   6.181   2.219  17.462  0.4159  0.2279  0.2181
 3512TIP3    H134731   6.258   2.267  17.495  2.4152 -1.6137 -1.5243
 3512TIP3    H234732   6.192   2.218  17.367 -1.9913  0.1775 -0.1164
 3513TIP3   OH234733   8.035   4.033  18.608 -0.0188 -0.2614  0.1908
 3513TIP3    H134734   7.963   4.023  18.546  0.2653  0.5612 -0.2934
 3513TIP3    H234735   7.993   4.050  18.692 -0.3969  0.8094 -0.1950
 3514TIP3   OH234736   1.315   2.457  16.940 -0.2300  0.5506 -0.4906
 3514TIP3    H134737   1.339   2.420  17.025 -3.1522  0.3390  0.3847
 3514TIP3    H234738   1.371   2.412  16.877 -1.6572 -3.5274  0.7899
 3515TIP3   OH234739   1.329   2.737  18.404 -0.1641  0.7896  0.4500
 3515TIP3    H134740   1.334   2.644  18.425  0.1605  0.3372 -1.4261
 3515TIP3    H234741   1.407   2.775  18.443  1.1279 -0.2507 -0.9837
 3516TIP3   OH234742   4.246   2.020  17.538  0.1456  0.4552  0.3032
 3516TIP3    H134743   4.229   2.104  17.580 -1.7978  0.8136 -1.0507
 3516TIP3    H234744   4.165   1.970  17.550  0.3373 -0.2504 -1.0770
 3517TIP3   OH234745   6.045   1.390  17.894 -0.4305 -0.1551  0.3544
 3517TIP3    H134746   5.988   1.410  17.820  1.1199  1.0162 -0.5740
 3517TIP3    H234747   5.987   1.390  17.970 -1.5124  2.0386 -0.4002
 3518TIP3   OH234748   0.909   5.631  19.031 -0.4092 -0.1103  0.0347
 3518TIP3    H134749   0.930   5.671  18.947  0.9300  0.6616  0.7032
 3518TIP3    H234750   0.943   5.692  19.097 -2.3720 -0.1672  1.1919
 3519TIP3   OH234751   5.984   0.246  17.364 -0.1143 -0.3839  0.0537
 3519TIP3    H134752   5.909   0.186  17.358  0.9648 -1.9767  1.7706
 3519TIP3    H234753   5.949   0.324  17.407 -0.4549 -1.8392  2.5827
 3520TIP3   OH234754   2.786   0.433  18.756  0.8286 -0.7921  0.2773
 3520TIP3    H134755   2.859   0.402  18.703  0.9808 -1.7485  1.0233
 3520TIP3    H234756   2.711   0.381  18.729  0.8148 -1.0026  0.7105
 3521TIP3   OH234757   6.582   8.173  17.390 -0.1546 -0.1416 -0.4165
 3521TIP3    H134758   6.587   8.217  17.305 -0.2053 -0.2166 -0.4586
 3521TIP3    H234759   6.673   8.150  17.411 -0.1529 -0.2047 -0.4944
 3522TIP3   OH234760   0.443   1.804  18.140 -0.1389  0.2629  0.5260
 3522TIP3    H134761   0.530   1.769  18.121  0.0740  1.0222  0.0886
 3522TIP3    H234762   0.384   1.729  18.127  0.0655  0.5019 -2.4927
 3523TIP3   OH234763   0.524   8.443  17.922  0.0510 -0.5930  0.2690
 3523TIP3    H134764   0.512   8.533  17.952 -1.6888 -0.8398  0.3846
 3523TIP3    H234765   0.531   8.391  18.002 -0.0027 -0.6925  0.2099
 3524TIP3   OH234766   4.411   4.290  18.124  0.4120  1.1502 -0.3879
 3524TIP3    H134767   4.433   4.383  18.131  2.5354  0.6787 -0.2042
 3524TIP3    H234768   4.468   4.256  18.056 -1.7796  0.3259 -1.9551
 3525TIP3   OH234769   3.818   5.025  18.526 -0.5530 -0.2699 -0.2683
 3525TIP3    H134770   3.876   5.099  18.545 -0.5707 -0.1301 -0.7378
 3525TIP3    H234771   3.731   5.065  18.518 -0.5698 -0.3445 -0.4694
 3526TIP3   OH234772   8.370   2.546  18.412 -0.2830  0.1857 -0.1998
 3526TIP3    H134773   8.367   2.640  18.426 -0.0154  0.1526  0.1062
 3526TIP3    H234774   8.280   2.522  18.391 -0.2923  0.5528 -0.5790
 3527TIP3   OH234775   6.444   0.304  17.590  0.1465  0.5810  0.0278
 3527TIP3    H134776   6.351   0.319  17.576  0.1506  1.9696  1.2592
 3527TIP3    H234777   6.449   0.224  17.642 -0.4014  0.8484  0.4965
 3528TIP3   OH234778   7.493   0.003  17.739 -0.1732 -0.0090 -0.4723
 3528TIP3    H134779   7.405   0.008  17.777 -0.4671 -1.6548 -0.8280
 3528TIP3    H234780   7.488   0.055  17.659 -0.1612  1.7326  0.6258
 3529TIP3   OH234781   7.693   4.147  19.359 -0.2734  0.4122 -0.5484
 3529TIP3    H134782   7.612   4.180  19.319 -1.6126  0.4550  2.0039
 3529TIP3    H234783   7.732   4.224  19.401  0.7327  0.2396 -1.1338
 3530TIP3   OH234784   0.479   3.407  18.728 -0.1551 -0.4812 -0.3843
 3530TIP3    H134785   0.549   3.472  18.722 -0.1596 -0.3864  0.4906
 3530TIP3    H234786   0.439   3.407  18.641  1.0002 -0.6232 -0.9310
 3531TIP3   OH234787   7.083   0.005  17.561  0.3547  0.0281 -0.1919
 3531TIP3    H134788   7.072   0.038  17.650  1.1446  1.2280 -0.5184
 3531TIP3    H234789   6.995  -0.019  17.533  0.1650 -0.9275  1.1134
 3532TIP3   OH234790   1.255   8.101  18.264  0.4258 -0.5509 -0.2345
 3532TIP3    H134791   1.346   8.115  18.293 -0.0545 -0.4044  1.2655
 3532TIP3    H234792   1.255   8.012  18.230  1.0849 -0.6503 -0.0013
 3533TIP3   OH234793   4.422   6.404  16.847 -0.1270  0.0685  0.1054
 3533TIP3    H134794   4.499   6.374  16.800 -0.2372  0.0426 -0.0585
 3533TIP3    H234795   4.352   6.402  16.782 -0.5728 -1.2376  0.5885
 3534TIP3   OH234796   2.129   1.123  18.094 -0.0909 -0.2828  0.4035
 3534TIP3    H134797   2.121   1.086  18.182 -1.0093  0.6298  0.7250
 3534TIP3    H234798   2.047   1.100  18.051 -0.8670  1.6790  0.7523
 3535TIP3   OH234799   0.554   4.166  18.023  0.1747  0.0577 -0.1640
 3535TIP3    H134800   0.639   4.161  17.980  0.3126  2.4734 -0.3255
 3535TIP3    H234801   0.566   4.121  18.106  1.8464  0.9126  0.1081
 3536TIP3   OH234802   7.569   1.186  18.537 -0.5738 -0.0984 -0.0972
 3536TIP3    H134803   7.662   1.165  18.530 -0.5018 -0.0914  0.6791
 3536TIP3    H234804   7.530   1.152  18.457 -0.1260 -1.3988  0.2145
 3537TIP3   OH234805   6.575   4.419  18.567 -0.0815 -0.1929 -0.4037
 3537TIP3    H134806   6.608   4.509  18.571  0.4378 -0.4111  0.4404
 3537TIP3    H234807   6.497   4.425  18.513  0.8485  0.4976 -1.7478
 3538TIP3   OH234808   6.789   6.847  18.740 -0.3372 -0.6389 -0.3150
 3538TIP3    H134809   6.696   6.844  18.719 -0.3081  1.1807 -0.8890
 3538TIP3    H234810   6.833   6.851  18.655  0.4159 -3.2758 -0.1173
 3539TIP3   OH234811   6.576   8.281  16.593  0.2765  0.2728 -1.0318
 3539TIP3    H134812   6.501   8.319  16.548 -0.5696  1.1296  0.9750
 3539TIP3    H234813   6.652   8.325  16.554 -0.5366  2.3623 -0.4012
 3540TIP3   OH234814   1.406   7.828  18.465  0.1879  0.3005  0.2795
 3540TIP3    H134815   1.411   7.922  18.478  2.0930  0.3275 -0.3637
 3540TIP3    H234816   1.484   7.793  18.509  0.0325 -0.8552 -0.3063
 3541TIP3   OH234817   0.631   6.153  16.865 -0.1969 -0.4230  0.2753
 3541TIP3    H134818   0.643   6.061  16.841  0.2658 -0.9434  2.3031
 3541TIP3    H234819   0.580   6.190  16.793  0.4083 -2.0219 -1.0476
 3542TIP3   OH234820   6.692   3.236  17.217 -0.2385 -0.2254 -0.6997
 3542TIP3    H134821   6.617   3.230  17.158  1.0838 -0.5013 -2.4029
 3542TIP3    H234822   6.768   3.222  17.162  1.1130  0.2138  0.9569
 3543TIP3   OH234823   5.917   4.401  18.049 -0.1979 -0.2696  0.3043
 3543TIP3    H134824   5.879   4.485  18.074 -1.5039 -0.8973  0.4923
 3543TIP3    H234825   5.962   4.419  17.966  0.6765  0.8972  0.9871
 3544TIP3   OH234826   3.544   5.097  17.964 -0.1912  0.3879  0.0229
 3544TIP3    H134827   3.536   5.002  17.963  2.0001  0.1548 -0.1841
 3544TIP3    H234828   3.635   5.114  17.986 -0.9863  2.5163  2.1093
 3545TIP3   OH234829   6.057   8.144  17.820  0.4904 -0.0214  0.0033
 3545TIP3    H134830   6.127   8.208  17.834  1.6675 -0.8396 -1.6925
 3545TIP3    H234831   5.976   8.195  17.825  1.2948  1.2696  0.3686
 3546TIP3   OH234832   0.105   3.058  17.871 -0.0769  0.0655  0.1070
 3546TIP3    H134833   0.066   3.080  17.787 -2.0918 -0.7197  0.7566
 3546TIP3    H234834   0.073   3.126  17.931  1.0264  0.4043  0.3319
 3547TIP3   OH234835   7.552   1.415  18.206 -0.0693 -0.1972  0.6487
 3547TIP3    H134836   7.520   1.371  18.127 -1.0890  2.3804 -0.4635
 3547TIP3    H234837   7.647   1.411  18.199 -0.1338 -1.3396  0.1149
 3548TIP3   OH234838   8.394   5.907  17.330 -0.3505  0.4257 -0.1052
 3548TIP3    H134839   8.469   5.929  17.275 -1.3493  1.5705 -1.0518
 3548TIP3    H234840   8.378   5.814  17.312  0.2354  0.4168 -0.6333
 3549TIP3   OH234841   7.129   2.681  17.290 -0.0873  0.1774  0.5026
 3549TIP3    H134842   7.218   2.674  17.327 -0.5001 -1.1581  1.3247
 3549TIP3    H234843   7.126   2.614  17.222  0.5347  2.3638 -1.8577
 3550TIP3   OH234844   4.980   2.977  17.176 -0.1722  0.5488 -0.4792
 3550TIP3    H134845   5.051   3.039  17.160  0.6818 -0.5036 -0.9546
 3550TIP3    H234846   5.022   2.905  17.223 -1.0768  0.2028 -0.1794
 3551TIP3   OH234847   4.696   5.445  17.496 -0.4615 -0.5060  0.2686
 3551TIP3    H134848   4.759   5.509  17.529 -1.5149  0.5590  0.2516
 3551TIP3    H234849   4.718   5.364  17.542  0.6542 -0.0539  0.5628
 3552TIP3   OH234850   7.843   3.312  17.851 -0.3510  0.2301  0.4059
 3552TIP3    H134851   7.925   3.275  17.818 -0.4710  0.0330  0.3268
 3552TIP3    H234852   7.853   3.310  17.946 -0.7079 -0.8239  0.4350
 3553TIP3   OH234853   2.029   6.460  18.316  0.5052  0.2523 -0.2913
 3553TIP3    H134854   1.983   6.526  18.265  0.6736  0.8033  0.2637
 3553TIP3    H234855   2.109   6.503  18.346  0.1427  0.1275  0.9028
 3554TIP3   OH234856   1.110   5.919  17.530 -0.1227  0.3206 -0.4058
 3554TIP3    H134857   1.038   5.891  17.473 -1.2208  1.4908  0.3437
 3554TIP3    H234858   1.099   5.866  17.609 -0.7118  1.1070  0.0511
 3555TIP3   OH234859   6.236   2.879  17.349  0.3251 -0.4675 -0.0938
 3555TIP3    H134860   6.147   2.916  17.348 -0.2763 -1.8652 -0.4549
 3555TIP3    H234861   6.253   2.855  17.258  0.8605 -0.7011  0.0657
 3556TIP3   OH234862   6.412   8.134  18.522  0.3717 -0.4570 -0.2387
 3556TIP3    H134863   6.392   8.193  18.450 -2.1809 -0.7158  0.1712
 3556TIP3    H234864   6.450   8.057  18.479 -0.7045 -0.4355 -1.2848
 3557TIP3   OH234865   2.187   2.887  17.737  0.1189  0.1850  0.4882
 3557TIP3    H134866   2.190   2.886  17.833 -1.0271  0.0258  0.5453
 3557TIP3    H234867   2.110   2.835  17.716 -0.1739  0.9858 -0.4870
 3558TIP3   OH234868   4.077   4.837  17.681 -0.0890 -0.2164  0.3056
 3558TIP3    H134869   4.003   4.775  17.677 -0.1309 -0.1334 -0.2451
 3558TIP3    H234870   4.036   4.923  17.677 -0.0737 -0.1241  1.6887
 3559TIP3   OH234871   8.394   3.102  18.215 -0.3417  0.3149 -0.2374
 3559TIP3    H134872   8.328   3.168  18.235 -0.4853  0.0670  0.1194
 3559TIP3    H234873   8.352   3.044  18.151 -0.0179  0.8829 -0.9834
 3560TIP3   OH234874   1.054   2.940  17.609  0.7365  0.5195  0.5336
 3560TIP3    H134875   0.972   2.943  17.658  0.9459  1.3121  0.8457
 3560TIP3    H234876   1.122   2.940  17.676  0.9962 -0.2326  0.2799
 3561TIP3   OH234877   0.362   5.354  18.143 -0.4573  0.3902  0.0184
 3561TIP3    H134878   0.425   5.420  18.114 -1.5419  1.4020 -0.0916
 3561TIP3    H234879   0.319   5.324  18.063 -2.2451  1.9468  0.3221
 3562TIP3   OH234880   1.714   6.168  16.650  0.1361  0.8916 -0.1378
 3562TIP3    H134881   1.801   6.204  16.636 -0.4751  2.3151 -0.5666
 3562TIP3    H234882   1.675   6.165  16.562  0.8970 -3.0607 -0.5065
 3563TIP3   OH234883   8.106   0.039  18.471 -0.2117  0.2462 -0.7844
 3563TIP3    H134884   8.169   0.109  18.451 -2.1747  2.2734 -0.2534
 3563TIP3    H234885   8.124   0.017  18.562 -0.9424  1.6177 -0.2821
 3564TIP3   OH234886   7.385   1.332  17.577  0.2830  0.1711  0.1440
 3564TIP3    H134887   7.366   1.295  17.491 -0.8322 -2.4394  1.4000
 3564TIP3    H234888   7.426   1.416  17.558 -0.0550 -0.2270 -2.9154
 3565TIP3   OH234889   5.250   0.343  17.376  0.0852  0.3114 -0.1612
 3565TIP3    H134890   5.182   0.363  17.312  1.4544 -0.3889 -1.9252
 3565TIP3    H234891   5.202   0.315  17.454 -1.6803 -1.9509 -1.9263
 3566TIP3   OH234892   1.654   7.409  16.951 -0.0731  0.1896 -1.1256
 3566TIP3    H134893   1.617   7.428  16.865  0.3107  1.7315 -0.9640
 3566TIP3    H234894   1.737   7.365  16.932 -0.4358 -0.3472 -1.5137
 3567TIP3   OH234895   2.889   7.162  17.130  0.3962  0.3516  0.2067
 3567TIP3    H134896   2.886   7.119  17.044  0.3354  0.0583  0.3531
 3567TIP3    H234897   2.807   7.136  17.172  0.5098  0.3460  0.4239
 3568TIP3   OH234898   5.699   5.062  17.217 -0.2184 -0.0912 -0.0962
 3568TIP3    H134899   5.705   5.067  17.312 -1.4436  1.6358 -0.0710
 3568TIP3    H234900   5.617   5.015  17.200 -1.5916  2.2186 -0.2275
 3569TIP3   OH234901   7.715   7.520  17.794  0.7776 -0.0268 -0.5883
 3569TIP3    H134902   7.708   7.425  17.783  1.0875  0.0463 -1.4582
 3569TIP3    H234903   7.781   7.530  17.863  0.2962 -0.4460 -0.0460
 3570TIP3   OH234904   6.258   5.663  18.700 -0.3500 -0.2868  0.3455
 3570TIP3    H134905   6.335   5.608  18.719 -1.0338 -1.7197 -0.8634
 3570TIP3    H234906   6.249   5.718  18.778  2.5293  0.7147  0.0795
 3571TIP3   OH234907   2.948   6.087  16.810 -0.0491 -0.1102  0.0999
 3571TIP3    H134908   3.003   6.162  16.788 -0.3017  0.7405  2.1107
 3571TIP3    H234909   2.954   6.081  16.905 -0.3997 -2.3829  0.0262
 3572TIP3   OH234910   8.267   4.499  16.922  0.9878 -0.4416 -0.0696
 3572TIP3    H134911   8.359   4.495  16.948  0.7121 -0.0060  1.0331
 3572TIP3    H234912   8.223   4.433  16.975  0.5528 -0.1763 -0.0874
 3573TIP3   OH234913   4.046   4.387  18.665  0.0654  0.1363 -0.2140
 3573TIP3    H134914   3.976   4.324  18.681 -0.0431  0.2722 -0.1474
 3573TIP3    H234915   4.123   4.350  18.708  0.3198 -0.5604 -1.2336
 3574TIP3   OH234916   6.506   5.385  17.591  0.4209  0.7941  0.9333
 3574TIP3    H134917   6.443   5.456  17.582 -0.2551  0.2468  1.2876
 3574TIP3    H234918   6.569   5.400  17.521  0.2568  1.7115  0.9723
 3575TIP3   OH234919   5.250   5.747  18.022  0.0419 -0.0152  0.0830
 3575TIP3    H134920   5.171   5.727  18.072  1.0085  0.3646  1.8673
 3575TIP3    H234921   5.295   5.663  18.012 -0.7604 -0.3068 -1.3206
 3576TIP3   OH234922   5.111   8.179  17.807 -0.2037  0.4594  0.1436
 3576TIP3    H134923   5.151   8.232  17.738  1.6612 -0.5667  0.3903
 3576TIP3    H234924   5.098   8.093  17.766 -0.5844  0.2976  0.5936
 3577TIP3   OH234925   6.417   3.968  17.758 -0.2813  0.5129 -0.1123
 3577TIP3    H134926   6.483   3.916  17.803 -2.1871 -0.1510  2.0786
 3577TIP3    H234927   6.465   4.046  17.729  1.8309 -0.7359 -0.2559
 3578TIP3   OH234928   7.384   2.875  17.999  0.3048  0.1382  0.0822
 3578TIP3    H134929   7.428   2.791  18.008 -0.0327 -0.0716 -0.1893
 3578TIP3    H234930   7.291   2.854  18.000  0.2169  0.4854 -0.1690
 3579TIP3   OH234931   5.142   3.343  19.119 -0.3583 -0.1552  0.0231
 3579TIP3    H134932   5.162   3.316  19.209 -0.0561 -0.4756 -0.1390
 3579TIP3    H234933   5.138   3.439  19.123 -2.1310 -0.2225  0.7518
 3580TIP3   OH234934   1.280   6.059  17.346 -0.2761  0.3939  0.3840
 3580TIP3    H134935   1.212   6.027  17.405 -1.6612  1.9288 -0.2810
 3580TIP3    H234936   1.268   6.010  17.265  0.2660 -0.2310  0.6714
 3581TIP3   OH234937   6.543   3.046  18.113 -0.2004  0.5393 -0.2932
 3581TIP3    H134938   6.484   3.121  18.121  1.9176  2.4119 -0.9957
 3581TIP3    H234939   6.558   3.039  18.018  0.5028 -0.0409 -0.1393
 3582TIP3   OH234940   6.111   7.233  18.075 -0.3148 -0.1835  0.2048
 3582TIP3    H134941   6.024   7.230  18.115  0.3212 -1.3934  1.6027
 3582TIP3    H234942   6.130   7.326  18.067 -0.4711  0.1741  2.8885
 3583TIP3   OH234943   5.242   2.110  16.691  0.1474  0.0695  0.3783
 3583TIP3    H134944   5.264   2.117  16.784 -0.1385 -1.7100  0.6150
 3583TIP3    H234945   5.192   2.189  16.672  0.0765  0.3862  1.7644
 3584TIP3   OH234946   1.453   5.795  16.545  0.0284  0.9252 -0.2658
 3584TIP3    H134947   1.523   5.854  16.573 -1.8317  3.7934 -1.2859
 3584TIP3    H234948   1.418   5.835  16.465 -2.2240 -0.8619 -0.2752
 3585TIP3   OH234949   2.746   3.485  19.273 -0.0273 -0.2736 -0.1177
 3585TIP3    H134950   2.806   3.497  19.347  1.9477  1.6207 -1.9004
 3585TIP3    H234951   2.789   3.421  19.217 -1.2620 -1.3042  0.0666
 3586TIP3   OH234952   2.317   3.877  18.663  0.1515  0.2260  0.2161
 3586TIP3    H134953   2.229   3.912  18.650 -0.2569 -0.6385  0.5392
 3586TIP3    H234954   2.338   3.897  18.754 -0.1993 -0.5796  0.4877
 3587TIP3   OH234955   5.724   3.326  18.966  0.6297  0.2952  0.6377
 3587TIP3    H134956   5.718   3.234  18.993  1.2833  0.0869  0.1076
 3587TIP3    H234957   5.808   3.332  18.920  0.6059  1.1670  0.6844
 3588TIP3   OH234958   4.764   6.628  17.523 -0.1383 -0.9434  0.3751
 3588TIP3    H134959   4.828   6.633  17.593  0.1023 -1.5168  0.2095
 3588TIP3    H234960   4.816   6.633  17.443 -0.2671 -1.5867  0.2384
 3589TIP3   OH234961   0.538   5.066  18.197  0.0541 -0.5283  0.2989
 3589TIP3    H134962   0.609   5.129  18.211  0.0347 -0.2102 -0.9681
 3589TIP3    H234963   0.502   5.052  18.285  0.1884  1.0767  0.6456
 3590TIP3   OH234964   6.601   6.225  18.312 -0.3073 -0.1720  0.2867
 3590TIP3    H134965   6.603   6.313  18.349  0.8869  0.1248 -0.4164
 3590TIP3    H234966   6.536   6.230  18.242  1.0376  0.7124 -0.9717
 3591TIP3   OH234967   3.069   5.453  17.140  0.1997  0.2489  0.0441
 3591TIP3    H134968   3.056   5.438  17.047  0.0951  0.2729  0.0545
 3591TIP3    H234969   2.988   5.423  17.181  1.1510 -2.0394  0.3880
 3592TIP3   OH234970   2.749   1.144  18.152 -0.0617  0.5327  0.2670
 3592TIP3    H134971   2.773   1.139  18.245  0.7040  0.3884  0.0685
 3592TIP3    H234972   2.753   1.053  18.122  1.4587  0.7708 -0.3284
 3593TIP3   OH234973   1.842   3.149  17.165 -0.1292 -0.0116 -0.6373
 3593TIP3    H134974   1.899   3.112  17.097  1.5845  0.9666  0.1942
 3593TIP3    H234975   1.755   3.117  17.143  0.5792 -0.8213 -2.5119
 3594TIP3   OH234976   2.483   2.135  18.449  0.5634 -0.1737  0.4317
 3594TIP3    H134977   2.392   2.140  18.476  0.3770 -0.8563 -0.0417
 3594TIP3    H234978   2.530   2.104  18.526  0.5953  1.3421  1.0533
 3595TIP3   OH234979   0.762   5.558  18.624  0.0453 -0.0301 -0.8802
 3595TIP3    H134980   0.773   5.462  18.626  0.3355  0.0072  1.5296
 3595TIP3    H234981   0.848   5.591  18.600  0.3396 -0.3411 -0.2735
 3596TIP3   OH234982   5.839   7.282  18.147  0.0187 -0.0310 -0.1538
 3596TIP3    H134983   5.824   7.307  18.238  1.6457  0.2858  0.0519
 3596TIP3    H234984   5.790   7.201  18.136 -1.8658  0.9711  0.4047
 3597TIP3   OH234985   4.284   1.362  17.834  0.1477  0.6964  1.0562
 3597TIP3    H134986   4.240   1.287  17.874  0.3638  0.3164  0.5932
 3597TIP3    H234987   4.330   1.404  17.906  0.4614  0.0676  1.2314
 3598TIP3   OH234988   6.369   7.813  18.031  0.0619 -0.2646  0.6654
 3598TIP3    H134989   6.431   7.882  18.005 -0.0875 -0.0887  0.7723
 3598TIP3    H234990   6.285   7.843  17.998  0.2689 -1.2454 -0.8523
 3599TIP3   OH234991   8.199   1.084  17.805 -0.3747 -0.2015 -0.3647
 3599TIP3    H134992   8.196   1.003  17.755  0.1892  0.5039 -1.6021
 3599TIP3    H234993   8.109   1.117  17.801  0.0754  1.0169 -3.0477
 3600TIP3   OH234994   1.535   4.045  18.032  0.1516  0.1856  0.4270
 3600TIP3    H134995   1.621   4.087  18.030  0.0837  0.2825 -1.4419
 3600TIP3    H234996   1.554   3.954  18.054  0.5435  0.5483  1.7091
 3601TIP3   OH234997   3.306   6.025  18.508 -0.7151 -0.1382 -0.4312
 3601TIP3    H134998   3.379   6.084  18.492  0.6217 -1.6795 -0.2588
 3601TIP3    H234999   3.230   6.083  18.519  0.5958  1.5358  0.1783
 3602TIP3   OH235000   3.567   1.817  17.625 -0.0935  0.2311  0.1214
 3602TIP3    H135001   3.503   1.853  17.687 -0.8355  0.7673 -0.9316
 3602TIP3    H235002   3.574   1.724  17.650 -0.5303  0.3851  0.8758
 3603TIP3   OH235003   0.004   6.876  18.337 -0.0041  0.0022  0.4164
 3603TIP3    H135004  -0.008   6.825  18.257  0.4923 -2.3115  1.7235
 3603TIP3    H235005   0.088   6.921  18.324  0.4690 -0.9802 -0.0773
 3604TIP3   OH235006   8.445   7.563  16.762 -0.6625 -0.2423 -0.0960
 3604TIP3    H135007   8.475   7.549  16.852 -0.1879 -0.5323 -0.2980
 3604TIP3    H235008   8.422   7.476  16.730 -0.7979 -0.1435 -0.2675
 3605TIP3   OH235009   2.085   1.667  17.703 -0.4509  0.7094 -0.0705
 3605TIP3    H135010   2.060   1.756  17.681  1.8319  2.0892  2.3539
 3605TIP3    H235011   2.091   1.666  17.799 -1.3365 -2.3515  0.0798
 3606TIP3   OH235012   5.053   7.206  18.195  0.5651  0.0896 -0.2908
 3606TIP3    H135013   5.034   7.296  18.167  1.6848  0.8758  1.3482
 3606TIP3    H235014   4.980   7.183  18.252  0.3846  0.0301 -0.5435
 3607TIP3   OH235015   2.621   5.095  17.297 -0.1297  0.7019  0.1742
 3607TIP3    H135016   2.626   5.077  17.391 -1.0964 -0.9451 -0.0637
 3607TIP3    H235017   2.683   5.035  17.257 -0.6506  0.4968 -0.3447
 3608TIP3   OH235018   5.127   8.343  16.439 -0.1139  0.0229  0.0065
 3608TIP3    H135019   5.085   8.385  16.514  1.9076 -1.0644  1.8346
 3608TIP3    H235020   5.199   8.402  16.415  1.8651 -1.5792  1.6972
 3609TIP3   OH235021   2.515   6.682  19.000  0.0503  0.0035  0.3472
 3609TIP3    H135022   2.540   6.772  18.978 -0.2801  0.1574  0.5940
 3609TIP3    H235023   2.592   6.630  18.978  1.7854  0.8216  3.7254
 3610TIP3   OH235024   1.897   3.183  18.442 -0.0219  0.7329 -0.2757
 3610TIP3    H135025   1.918   3.268  18.481 -0.6763  1.1347 -0.7952
 3610TIP3    H235026   1.911   3.195  18.348 -0.1430  0.2678 -0.3548
 3611TIP3   OH235027   3.299   5.478  17.775 -0.2736 -0.2524  0.3806
 3611TIP3    H135028   3.321   5.570  17.763  0.9750 -0.3499  1.6554
 3611TIP3    H235029   3.377   5.430  17.747 -0.6488 -0.8730  0.3774
 3612TIP3   OH235030   0.278   7.005  17.437 -0.0870 -0.0921  0.3039
 3612TIP3    H135031   0.312   6.997  17.527 -0.0883  0.6131  0.3743
 3612TIP3    H235032   0.184   6.988  17.446  0.1681 -1.6823  0.1647
 3613TIP3   OH235033   4.591   6.069  17.934  0.0498  0.1329 -0.4950
 3613TIP3    H135034   4.587   6.158  17.900 -0.2053  0.3101 -0.0012
 3613TIP3    H235035   4.656   6.073  18.004  0.5955 -0.2403 -0.9648
 3614TIP3   OH235036   7.488   3.116  17.879  0.0612 -0.1285  0.0236
 3614TIP3    H135037   7.415   3.137  17.821  0.1326  1.6233  0.5113
 3614TIP3    H235038   7.457   3.041  17.930 -0.6396 -0.6248 -1.1015
 3615TIP3   OH235039   2.407   8.396  16.990  0.4382  0.2169  0.0560
 3615TIP3    H135040   2.478   8.415  16.930  0.1900  1.1275  0.0312
 3615TIP3    H235041   2.401   8.474  17.045  1.1984 -0.9090  1.8235
 3616TIP3   OH235042   4.669   7.571  17.503  0.1969  0.1467 -0.2305
 3616TIP3    H135043   4.739   7.613  17.553  0.2680 -0.1677 -0.0621
 3616TIP3    H235044   4.592   7.579  17.558  0.5744 -1.4727  0.6142
 3617TIP3   OH235045   0.887   4.703  18.263 -0.3201 -0.3175 -0.6120
 3617TIP3    H135046   0.899   4.644  18.337 -0.3684 -1.3416 -1.3942
 3617TIP3    H235047   0.848   4.783  18.301  1.0377 -0.2297  0.6754
 3618TIP3   OH235048   6.824   2.158  18.887 -0.1654 -0.6559 -0.1597
 3618TIP3    H135049   6.833   2.250  18.911 -1.0206 -0.8507  0.9796
 3618TIP3    H235050   6.913   2.125  18.884  0.1432  0.1743 -0.4859
 3619TIP3   OH235051   8.421   7.812  17.314  0.5860 -0.7180 -0.3460
 3619TIP3    H135052   8.362   7.883  17.338 -0.4062 -0.6280 -2.7266
 3619TIP3    H235053   8.464   7.843  17.234  0.7267 -2.4448 -0.9934
 3620TIP3   OH235054   5.837   3.589  19.018  0.8164  0.3435 -0.3235
 3620TIP3    H135055   5.919   3.543  18.998  1.9297 -0.3283  4.6177
 3620TIP3    H235056   5.773   3.520  19.030  1.5006  0.1580  3.1051
 3621TIP3   OH235057   7.777   3.035  17.968  0.2807  0.1414 -0.6543
 3621TIP3    H135058   7.748   3.080  18.048 -0.2950  0.2753 -0.9333
 3621TIP3    H235059   7.868   3.012  17.986  0.1466  0.1249  0.0671
 3622TIP3   OH235060   5.607   5.086  18.530 -0.2833  0.3600  0.4383
 3622TIP3    H135061   5.531   5.086  18.473 -0.0715 -0.9663  0.1344
 3622TIP3    H235062   5.583   5.143  18.603 -0.9684  1.1868 -0.4166
 3623TIP3   OH235063   7.552   3.995  17.823  0.3189  0.3216 -0.4937
 3623TIP3    H135064   7.562   4.037  17.738  0.9954 -0.2634 -0.7107
 3623TIP3    H235065   7.477   3.936  17.812 -0.4728  1.2557 -0.2632
 3624TIP3   OH235066   2.682   1.828  18.453 -0.3931 -0.1005 -0.2811
 3624TIP3    H135067   2.621   1.754  18.452 -3.0230  1.9265 -0.7410
 3624TIP3    H235068   2.690   1.853  18.361 -0.1528  0.6406 -0.0660
 3625TIP3   OH235069   1.257   3.781  18.881 -0.1455 -0.3849 -0.6392
 3625TIP3    H135070   1.224   3.771  18.971  0.8334  0.9782 -0.0940
 3625TIP3    H235071   1.235   3.871  18.857 -0.8751 -0.9017 -1.9893
 3626TIP3   OH235072   1.089   0.808  17.815 -0.2595  0.3245  0.0255
 3626TIP3    H135073   1.167   0.841  17.770  0.2607 -0.7472  0.0905
 3626TIP3    H235074   1.115   0.804  17.907 -1.0914  1.8761  0.3538
 3627TIP3   OH235075   5.538   1.917  16.173 -0.4603  0.2303  0.1529
 3627TIP3    H135076   5.533   1.918  16.268 -0.5011 -0.3059  0.1596
 3627TIP3    H235077   5.557   1.825  16.151  0.4532  0.5192 -0.3116
 3628TIP3   OH235078   0.571   5.797  18.537 -0.1348  0.2821 -0.1813
 3628TIP3    H135079   0.596   5.705  18.527  0.0516  0.3213 -0.0783
 3628TIP3    H235080   0.504   5.796  18.605  0.4769  0.3188  0.4331
 3629TIP3   OH235081   6.827   1.213  18.062 -0.3113  0.2418  0.5493
 3629TIP3    H135082   6.886   1.259  18.121  1.2710 -1.1005  0.0922
 3629TIP3    H235083   6.876   1.205  17.980 -1.8021  0.5711 -0.4058
 3630TIP3   OH235084   6.537   7.619  18.579  0.0373 -0.0652 -0.0837
 3630TIP3    H135085   6.626   7.624  18.615  0.5619 -0.1752 -1.3137
 3630TIP3    H235086   6.510   7.710  18.571  0.4038  0.0067 -0.5536
 3631TIP3   OH235087   4.515   0.740  17.859  0.0965 -0.2236  0.7141
 3631TIP3    H135088   4.492   0.697  17.776  1.5641  0.1198  0.0954
 3631TIP3    H235089   4.563   0.819  17.833  1.0963 -0.4096  1.8964
 3632TIP3   OH235090   3.421   6.426  18.159 -0.6863 -0.0543  0.0536
 3632TIP3    H135091   3.396   6.435  18.067  1.4636  0.6288 -0.5136
 3632TIP3    H235092   3.401   6.512  18.197  0.6378  0.4627 -0.3772
 3633TIP3   OH235093   2.524   3.525  18.327  0.0899  0.1881  0.4247
 3633TIP3    H135094   2.504   3.454  18.388  1.8315  0.3910  1.2965
 3633TIP3    H235095   2.587   3.488  18.266 -1.1550  0.1812 -0.9239
 3634TIP3   OH235096   4.894   5.327  17.989  0.2828 -0.0391  0.8193
 3634TIP3    H135097   4.848   5.324  18.073 -0.9639 -2.3339  0.1504
 3634TIP3    H235098   4.858   5.253  17.940  3.0735 -0.5413 -0.6543
 3635TIP3   OH235099   2.149   7.586  18.342  0.2228  0.1987 -0.4040
 3635TIP3    H135100   2.075   7.566  18.285 -0.1720  1.0841 -0.2229
 3635TIP3    H235101   2.207   7.641  18.289 -0.8184  2.2121  0.4247
 3636TIP3   OH235102   3.227   0.785  18.143  0.0587 -0.2133 -0.1349
 3636TIP3    H135103   3.165   0.719  18.173  0.1750  0.1678  0.9666
 3636TIP3    H235104   3.196   0.867  18.181  1.9531 -0.2199  1.5596
 3637TIP3   OH235105   4.074   4.751  18.652 -0.2587  0.2387 -0.0447
 3637TIP3    H135106   4.041   4.721  18.567  0.2032  0.0463 -0.1638
 3637TIP3    H235107   4.157   4.704  18.663 -0.8363 -0.5692  1.0147
 3638TIP3   OH235108   7.182   5.643  17.696  0.7456 -0.2523 -0.1503
 3638TIP3    H135109   7.134   5.715  17.738 -0.9896 -0.3830 -1.7766
 3638TIP3    H235110   7.257   5.685  17.654  0.6517  0.3546  0.2700
 3639TIP3   OH235111   1.948   1.346  18.267  0.2235 -0.0042  0.1753
 3639TIP3    H135112   1.994   1.330  18.350 -1.4236 -0.9498  0.9711
 3639TIP3    H235113   1.928   1.258  18.234  1.6621  0.3225 -1.7675
 3640TIP3   OH235114   6.539   2.845  17.026 -0.8309  0.6385 -0.5735
 3640TIP3    H135115   6.598   2.877  16.957 -0.5262  0.8785 -0.2068
 3640TIP3    H235116   6.582   2.765  17.058 -1.2698  0.2004 -1.0545
 3641TIP3   OH235117   0.344   3.689  17.184 -0.2283  0.2049  0.0150
 3641TIP3    H135118   0.365   3.776  17.150  0.4061  0.3793  0.8088
 3641TIP3    H235119   0.271   3.704  17.244 -0.2705  0.1564 -0.0252
 3642TIP3   OH235120   0.137   0.336  17.967  0.8518 -0.4598  0.2397
 3642TIP3    H135121   0.066   0.273  17.964 -0.1251  0.5813  0.8834
 3642TIP3    H235122   0.196   0.309  17.897 -0.7678 -0.6380 -1.1024
 3643TIP3   OH235123   8.109   5.372  18.430  0.4648  0.4503 -0.0047
 3643TIP3    H135124   8.021   5.337  18.436  0.0611  0.8537 -2.4690
 3643TIP3    H235125   8.099   5.466  18.436  0.5737  0.5588 -1.2069
 3644TIP3   OH235126   4.471   5.600  18.237 -0.1612  0.1228 -0.1023
 3644TIP3    H135127   4.510   5.573  18.154  0.3487  1.2136 -0.2506
 3644TIP3    H235128   4.498   5.533  18.299  2.7455  1.1857 -0.0293
 3645TIP3   OH235129   3.611   2.437  18.525 -0.3135  0.2892 -0.8961
 3645TIP3    H135130   3.651   2.502  18.583 -0.2190  0.2302 -0.8933
 3645TIP3    H235131   3.682   2.411  18.466 -0.0249 -0.6444 -0.1714
 3646TIP3   OH235132   7.399   0.161  18.969  0.1524  0.2843 -0.0419
 3646TIP3    H135133   7.432   0.154  18.879  0.1049 -0.8617  0.0190
 3646TIP3    H235134   7.423   0.078  19.010 -1.1386  0.1818  0.5634
 3647TIP3   OH235135   5.627   3.794  17.763  0.4567  0.4247  0.5982
 3647TIP3    H135136   5.699   3.834  17.813  1.1624  0.3849 -0.3596
 3647TIP3    H235137   5.649   3.701  17.759  0.8196  0.5387 -0.4275
 3648TIP3   OH235138   3.492   0.398  18.557  0.0688  0.1399  0.3991
 3648TIP3    H135139   3.516   0.491  18.563 -0.5258  0.2023  2.5433
 3648TIP3    H235140   3.434   0.394  18.481  0.0753  1.5473  0.2840
 3649TIP3   OH235141   7.834   2.618  17.900  0.3692  0.3412  0.0131
 3649TIP3    H135142   7.763   2.565  17.935  0.9832 -0.7097 -0.2823
 3649TIP3    H235143   7.886   2.557  17.847  1.9935  0.8651  0.9360
 3650TIP3   OH235144   6.244   1.370  18.627  0.0474 -0.1471 -0.0426
 3650TIP3    H135145   6.174   1.432  18.647 -1.1133 -1.6231  0.6452
 3650TIP3    H235146   6.202   1.302  18.575  1.0513 -0.9008  0.1019
 3651TIP3   OH235147   7.744   5.940  18.253  0.3505  0.1443  0.0474
 3651TIP3    H135148   7.675   5.987  18.300 -1.7867  0.2110 -2.8337
 3651TIP3    H235149   7.707   5.853  18.239  0.8958  0.1102 -1.3550
 3652TIP3   OH235150   5.157   0.300  16.912  0.7885  0.6173 -0.0005
 3652TIP3    H135151   5.163   0.391  16.883 -2.0965  1.3959  1.5108
 3652TIP3    H235152   5.075   0.295  16.960  0.9844 -2.7542  0.2341
 3653TIP3   OH235153   4.464   3.251  17.450 -0.5470  0.3477 -0.1330
 3653TIP3    H135154   4.507   3.327  17.489  0.0987  0.2129 -0.5679
 3653TIP3    H235155   4.456   3.272  17.357  1.4013 -0.8730 -0.6401
 3654TIP3   OH235156   6.173   4.211  18.740  0.0069 -0.1703  0.0664
 3654TIP3    H135157   6.181   4.305  18.757 -2.0800  0.3013 -1.2522
 3654TIP3    H235158   6.193   4.202  18.647 -0.5246 -0.9247  0.0205
 3655TIP3   OH235159   2.615   6.214  17.248 -0.1374 -0.4095  0.2498
 3655TIP3    H135160   2.673   6.151  17.290 -0.5003 -0.4641  0.6718
 3655TIP3    H235161   2.661   6.298  17.259  1.6262 -0.8865 -2.5761
 3656TIP3   OH235162   0.080   8.186  18.295 -0.1812 -0.0719  0.1730
 3656TIP3    H135163   0.113   8.096  18.306 -0.4729 -0.4768 -1.8985
 3656TIP3    H235164   0.144   8.227  18.237 -0.7198  0.6858  0.1109
 3657TIP3   OH235165   0.399   2.544  18.626 -0.1812  0.2714 -0.1499
 3657TIP3    H135166   0.396   2.632  18.665  2.0721  0.8570 -1.1421
 3657TIP3    H235167   0.322   2.540  18.570 -0.8618  1.2241  0.6751
 3658TIP3   OH235168   7.386   8.011  17.305  0.1930 -0.3920 -0.2586
 3658TIP3    H135169   7.307   7.962  17.282  0.5718 -1.2706  0.2855
 3658TIP3    H235170   7.358   8.071  17.374 -0.6119  1.2353 -1.9001
 3659TIP3   OH235171   5.744   5.926  17.204  0.0323 -0.0002  0.2182
 3659TIP3    H135172   5.778   5.858  17.263 -0.2806  0.3142  0.7793
 3659TIP3    H235173   5.686   5.978  17.260  1.3157  1.5569  0.1568
 3660TIP3   OH235174   0.290   0.195  17.134 -0.1788  0.7239 -0.1674
 3660TIP3    H135175   0.284   0.231  17.045  0.5867  0.6734 -0.2435
 3660TIP3    H235176   0.228   0.122  17.135  1.3679 -0.6869 -1.3598
 3661TIP3   OH235177   6.872   3.018  16.949  0.6535 -0.2848 -0.3952
 3661TIP3    H135178   6.922   2.992  17.026  1.5675  0.0621 -0.8646
 3661TIP3    H235179   6.874   2.941  16.892  0.8577 -0.1921 -0.5156
 3662TIP3   OH235180   7.516   4.123  16.795  0.2066  0.3907 -0.2102
 3662TIP3    H135181   7.537   4.205  16.750  0.1249 -0.5057 -1.9676
 3662TIP3    H235182   7.427   4.102  16.766  1.2344 -1.7365 -2.1310
 3663TIP3   OH235183   4.737   4.615  18.955 -0.3038 -1.1330  0.2437
 3663TIP3    H135184   4.724   4.655  18.869 -0.4584 -0.2153  0.6791
 3663TIP3    H235185   4.652   4.624  18.999  0.5873  1.2444  1.6293
 3664TIP3   OH235186   3.239   3.370  17.841  0.4790  0.1619  0.3901
 3664TIP3    H135187   3.183   3.310  17.792 -1.5780  0.8633  1.7571
 3664TIP3    H235188   3.242   3.335  17.929  4.1062 -1.0465 -0.0452
 3665TIP3   OH235189   3.808   7.450  16.886  0.4972 -0.6419  0.1233
 3665TIP3    H135190   3.879   7.387  16.898  0.0819 -0.8621  1.6037
 3665TIP3    H235191   3.734   7.399  16.857  1.1730 -0.2707 -2.4867
 3666TIP3   OH235192   5.591   2.896  17.858 -0.1217  0.6291 -0.6359
 3666TIP3    H135193   5.532   2.852  17.797  0.5512  1.1576 -1.7059
 3666TIP3    H235194   5.610   2.830  17.925 -3.8750  1.2069  1.2337
 3667TIP3   OH235195   2.396   8.407  17.929 -0.0705 -0.4420 -0.0946
 3667TIP3    H135196   2.431   8.494  17.948  1.0048 -0.9311  0.2427
 3667TIP3    H235197   2.383   8.367  18.014  0.9872 -1.1962 -0.2732
 3668TIP3   OH235198   4.154   3.582  17.922  0.4434 -0.5936  0.1033
 3668TIP3    H135199   4.208   3.640  17.975 -0.3233 -0.6255  0.9651
 3668TIP3    H235200   4.102   3.640  17.867  0.3850 -0.4969  0.2581
 3669TIP3   OH235201   1.666   7.764  18.301  0.1210 -0.3424 -0.7084
 3669TIP3    H135202   1.584   7.754  18.349  0.3027  1.6343  0.1543
 3669TIP3    H235203   1.729   7.791  18.369  0.3507  2.7335 -1.9651
 3670TIP3   OH235204   3.801   7.860  18.375 -0.1896  0.4446 -0.2625
 3670TIP3    H135205   3.802   7.783  18.318 -1.0573  0.2625 -0.0481
 3670TIP3    H235206   3.730   7.914  18.341 -1.2761 -0.0543  1.1159
 3671TIP3   OH235207   6.363   7.582  16.406 -0.1086 -0.1968 -0.0790
 3671TIP3    H135208   6.367   7.537  16.490 -0.2236 -0.2020 -0.0749
 3671TIP3    H235209   6.353   7.674  16.429  0.6206 -0.1123 -0.0821
 3672TIP3   OH235210   2.233   1.707  18.538  0.1791  0.3038 -0.3146
 3672TIP3    H135211   2.173   1.772  18.573 -2.3057 -0.9254 -1.9573
 3672TIP3    H235212   2.260   1.655  18.614 -0.9352  0.8168  0.4492
 3673TIP3   OH235213   7.349   1.589  18.262  0.0944  0.3512 -0.4454
 3673TIP3    H135214   7.373   1.583  18.355 -1.5368 -1.1505 -0.0822
 3673TIP3    H235215   7.417   1.540  18.216  2.6562  3.6115 -0.4694
 3674TIP3   OH235216   1.496   0.217  18.507 -0.2175  0.1513 -0.3232
 3674TIP3    H135217   1.446   0.253  18.580  1.4256 -3.8451  3.1609
 3674TIP3    H235218   1.441   0.147  18.471  0.4091 -0.2341 -0.5496
 3675TIP3   OH235219   1.298   6.721  18.907  0.8793 -0.3888 -0.0334
 3675TIP3    H135220   1.270   6.803  18.868 -1.7050 -0.9979  0.3703
 3675TIP3    H235221   1.218   6.683  18.943  2.3959 -1.9619  1.9095
 3676TIP3   OH235222   4.768   6.919  17.560  0.2611  0.1530 -0.1005
 3676TIP3    H135223   4.783   6.945  17.469  0.8390  0.2540  0.0249
 3676TIP3    H235224   4.752   6.824  17.555 -0.4598  0.2750 -0.3902
 3677TIP3   OH235225   7.833   4.639  16.924 -0.2778 -0.0044  0.7433
 3677TIP3    H135226   7.763   4.591  16.969  1.1145 -0.8683  2.0597
 3677TIP3    H235227   7.885   4.677  16.994  0.2022  1.2234 -0.2415
 3678TIP3   OH235228   6.668   3.489  17.316 -0.0983 -0.0410  0.8761
 3678TIP3    H135229   6.691   3.397  17.307  0.0054  0.1809 -1.8928
 3678TIP3    H235230   6.573   3.492  17.305  0.0162  0.2597 -0.1367
 3679TIP3   OH235231   8.390   4.096  18.708 -0.6308  0.2903  0.2121
 3679TIP3    H135232   8.483   4.110  18.729 -0.5558 -1.1440  0.9799
 3679TIP3    H235233   8.365   4.172  18.657  0.6488  1.3277  1.0625
 3680TIP3   OH235234   6.208   5.587  18.983 -0.5273 -0.1349 -0.0727
 3680TIP3    H135235   6.204   5.491  18.976  0.5756 -0.2875  0.9743
 3680TIP3    H235236   6.118   5.613  19.003 -0.7007 -1.0344  0.3800
 3681TIP3   OH235237   7.618   4.499  19.372 -0.2846  0.3958  0.3344
 3681TIP3    H135238   7.707   4.483  19.405 -0.2654  0.5734  0.3703
 3681TIP3    H235239   7.616   4.594  19.356 -0.3656  0.3419  0.0372
 3682TIP3   OH235240   4.159   2.443  16.704 -0.0614 -0.4175  0.4122
 3682TIP3    H135241   4.174   2.537  16.691  2.1572 -0.9072 -1.1538
 3682TIP3    H235242   4.181   2.404  16.619  1.5760 -2.6001  1.7490
 3683TIP3   OH235243   3.394   4.351  18.615 -0.3185 -0.2436 -0.4132
 3683TIP3    H135244   3.323   4.312  18.564 -0.4119  0.8772 -1.1653
 3683TIP3    H235245   3.467   4.358  18.555 -0.7536  2.0568 -0.7603
 3684TIP3   OH235246   3.756   0.825  17.746  0.5913  0.1637  0.2268
 3684TIP3    H135247   3.825   0.795  17.686 -0.1241 -0.0204 -0.5109
 3684TIP3    H235248   3.733   0.746  17.796  1.8307  0.5163  1.4240
 3685TIP3   OH235249   6.560   0.775  18.282 -0.4642 -0.0109 -0.2041
 3685TIP3    H135250   6.465   0.788  18.272 -0.2819  2.0928  0.4307
 3685TIP3    H235251   6.585   0.725  18.204 -2.0831 -0.5878 -0.3913
 3686TIP3   OH235252   5.126   1.299  17.671  0.7838 -0.4121  0.1077
 3686TIP3    H135253   5.136   1.370  17.608 -0.2246 -0.7645 -0.4710
 3686TIP3    H235254   5.151   1.220  17.624  0.1580 -0.6587  0.1707
 3687TIP3   OH235255   1.359   0.294  18.055 -0.1001 -0.0047 -0.2179
 3687TIP3    H135256   1.405   0.229  18.109  0.3280  1.1288  0.8307
 3687TIP3    H235257   1.271   0.259  18.045 -0.3094 -0.0885  1.5624
 3688TIP3   OH235258   6.189   6.231  16.338  0.3105  0.6608 -0.2276
 3688TIP3    H135259   6.165   6.151  16.384 -0.6047 -0.1166 -1.9393
 3688TIP3    H235260   6.271   6.210  16.294 -0.1618  0.4869 -1.0458
 3689TIP3   OH235261   7.981   1.904  18.818 -0.1550  0.5322  0.5957
 3689TIP3    H135262   8.023   1.927  18.735  0.0165  0.1930  0.5836
 3689TIP3    H235263   7.933   1.982  18.844 -0.8772  0.3799 -0.2411
 3690TIP3   OH235264   6.583   2.768  18.522  0.1062 -0.0490 -0.2143
 3690TIP3    H135265   6.489   2.773  18.504  0.3167  0.4667 -1.2395
 3690TIP3    H235266   6.607   2.677  18.504 -0.0110  0.0640 -0.9916
 3691TIP3   OH235267   6.505   5.766  17.300  0.0865 -0.3272 -0.0685
 3691TIP3    H135268   6.535   5.809  17.380 -0.7163 -0.9611  0.5790
 3691TIP3    H235269   6.582   5.716  17.270  0.1197 -0.8327  0.8191
 3692TIP3   OH235270   7.869   4.828  18.211 -0.2187 -0.6174  0.2834
 3692TIP3    H135271   7.927   4.820  18.286  1.2303  2.6830 -0.3028
 3692TIP3    H235272   7.890   4.914  18.174 -2.2204 -1.2903 -2.7631
 3693TIP3   OH235273   4.663   1.100  18.361 -0.7146 -0.7555 -0.3293
 3693TIP3    H135274   4.718   1.070  18.288 -0.6078  0.6947 -0.8699
 3693TIP3    H235275   4.609   1.024  18.382  0.1997 -1.6293 -1.0097
 3694TIP3   OH235276   6.917   3.147  18.295 -0.2689 -0.3209 -0.2681
 3694TIP3    H135277   6.835   3.136  18.247  0.2381 -1.8332 -0.8569
 3694TIP3    H235278   6.976   3.188  18.232  0.0516 -1.2404 -0.5862
 3695TIP3   OH235279   0.219   7.224  18.054  0.1418 -0.3922 -0.1448
 3695TIP3    H135280   0.164   7.272  17.992 -0.0608 -0.8347 -0.3171
 3695TIP3    H235281   0.201   7.132  18.036  0.5962 -0.5387  0.1117
 3696TIP3   OH235282   1.986   0.372  17.103  0.5593 -0.2819  0.2119
 3696TIP3    H135283   2.016   0.440  17.164  0.5572 -1.4683  1.5914
 3696TIP3    H235284   1.961   0.420  17.024  1.4338  1.2225  0.7974
 3697TIP3   OH235285   1.469   2.857  17.638  0.1670 -0.3203  0.8298
 3697TIP3    H135286   1.482   2.898  17.553  1.3655 -0.7257  0.8051
 3697TIP3    H235287   1.460   2.930  17.699 -1.1638 -0.0182  0.3182
 3698TIP3   OH235288   4.800   8.372  17.218  0.1304 -0.1046  0.2653
 3698TIP3    H135289   4.824   8.420  17.298 -0.2868 -0.2162  0.4629
 3698TIP3    H235290   4.847   8.289  17.225 -0.2073 -0.2731  0.5896
 3699TIP3   OH235291   2.174   1.890  17.496 -0.2494  0.4199 -0.1110
 3699TIP3    H135292   2.145   1.935  17.575 -1.6246 -0.2988 -0.1750
 3699TIP3    H235293   2.250   1.940  17.466 -0.9217  1.8914  0.5446
 3700TIP3   OH235294   0.415   3.058  17.729 -0.5702 -0.1243 -0.1222
 3700TIP3    H135295   0.482   3.080  17.664 -0.3726 -1.3459 -0.3600
 3700TIP3    H235296   0.350   3.007  17.681 -1.0557  0.0087  0.3752
 3701TIP3   OH235297   3.920   3.713  18.126 -0.3098 -0.3994  0.2187
 3701TIP3    H135298   3.827   3.723  18.147 -0.3929  0.7946 -0.6087
 3701TIP3    H235299   3.950   3.801  18.107  1.7170 -0.3381  3.1578
 3702TIP3   OH235300   7.085   0.634  18.070  0.2269  0.0406  0.1539
 3702TIP3    H135301   7.067   0.728  18.071  0.3180  0.0747  1.8278
 3702TIP3    H235302   7.153   0.622  18.137 -0.1139 -1.2722  0.2947
 3703TIP3   OH235303   0.409   1.982  18.380 -0.2429  0.4860  0.0493
 3703TIP3    H135304   0.320   2.008  18.355 -0.2744 -0.3039 -0.7040
 3703TIP3    H235305   0.430   1.909  18.322  1.8913  2.2739 -1.6457
 3704TIP3   OH235306   1.010   3.249  19.075  0.0386 -0.4453  0.5287
 3704TIP3    H135307   1.031   3.306  19.149 -0.0466 -0.3253  0.4589
 3704TIP3    H235308   0.919   3.223  19.090 -0.1038 -0.1018  0.2513
 3705TIP3   OH235309   0.488   8.279  16.597  0.6940  0.5441  0.4879
 3705TIP3    H135310   0.452   8.365  16.618 -0.3997  0.5396 -1.1369
 3705TIP3    H235311   0.579   8.296  16.573  0.9567  0.9930  1.7525
 3706TIP3   OH235312   7.422   7.565  18.597  0.1683  0.0342  0.0082
 3706TIP3    H135313   7.336   7.578  18.559  0.7850  1.0893 -1.1038
 3706TIP3    H235314   7.446   7.649  18.636  0.9484 -0.0471 -0.2612
 3707TIP3   OH235315   1.833   2.046  17.048 -0.3465 -0.5947 -0.1943
 3707TIP3    H135316   1.895   2.116  17.030 -0.6573  0.7466  3.2227
 3707TIP3    H235317   1.750   2.090  17.064 -0.6732 -1.7262  1.5162
 3708TIP3   OH235318   0.118   4.121  17.211  0.8266 -0.4775 -0.4756
 3708TIP3    H135319   0.184   4.189  17.227  0.3584 -0.4996  1.9146
 3708TIP3    H235320   0.056   4.162  17.150  1.8976  0.3164 -1.0571
 3709TIP3   OH235321   3.207   4.557  17.543 -0.2450  0.1488  0.0020
 3709TIP3    H135322   3.192   4.482  17.485  1.9898  1.0261 -1.8719
 3709TIP3    H235323   3.277   4.527  17.602 -1.3155 -0.1554  1.1437
 3710TIP3   OH235324   4.227   3.504  18.613 -0.5756 -0.3879  0.7481
 3710TIP3    H135325   4.212   3.425  18.561  2.3353  0.5623 -1.8869
 3710TIP3    H235326   4.315   3.492  18.649 -0.1761  1.4982  0.4921
 3711TIP3   OH235327   8.293   0.812  18.440 -0.1976  0.4686 -0.2798
 3711TIP3    H135328   8.355   0.803  18.512  1.0084  0.2228 -1.3123
 3711TIP3    H235329   8.249   0.728  18.435  3.2253 -1.4197 -2.8915
 3712TIP3   OH235330   6.512   5.318  16.978 -0.1251  0.0206  0.9188
 3712TIP3    H135331   6.589   5.359  16.938  0.2276 -0.3012  1.2662
 3712TIP3    H235332   6.444   5.325  16.911  0.5258 -0.7414  0.1620
 3713TIP3   OH235333   1.749   5.551  17.510  0.4192 -0.4001 -1.0423
 3713TIP3    H135334   1.699   5.524  17.433  1.2514  0.9419 -2.0960
 3713TIP3    H235335   1.804   5.623  17.479  2.8253 -1.6504  0.1289
 3714TIP3   OH235336   5.680   4.094  18.487  0.3828 -0.4098 -0.6098
 3714TIP3    H135337   5.718   4.170  18.532  1.8626 -1.6258  0.2779
 3714TIP3    H235338   5.746   4.071  18.421 -0.6911 -0.1061 -1.8158
 3715TIP3   OH235339   3.269   6.442  18.712 -0.7868 -0.4651  0.5580
 3715TIP3    H135340   3.349   6.493  18.725 -1.1051  0.4516 -0.8103
 3715TIP3    H235341   3.262   6.434  18.617 -1.5165 -1.8625  0.7130
 3716TIP3   OH235342   1.382   2.124  18.763  0.3269  0.3196 -0.3331
 3716TIP3    H135343   1.357   2.131  18.855  2.0890 -2.8347  0.5222
 3716TIP3    H235344   1.298   2.115  18.717 -0.5244 -0.4776  1.2646
 3717TIP3   OH235345   5.540   4.775  18.018 -0.0348 -0.3027  0.0292
 3717TIP3    H135346   5.528   4.701  17.959 -1.3627  0.0600 -0.2008
 3717TIP3    H235347   5.477   4.761  18.088  0.0296  0.3583  0.2290
 3718TIP3   OH235348   3.037   6.699  18.463 -0.0710 -0.3128 -0.0293
 3718TIP3    H135349   2.952   6.740  18.483 -0.9196 -1.6309 -0.7553
 3718TIP3    H235350   3.022   6.606  18.478  0.5984 -0.8237 -2.1665
 3719TIP3   OH235351   3.781   7.025  18.078  0.4147 -0.6399  0.1494
 3719TIP3    H135352   3.837   7.096  18.046  1.4577 -1.4736  0.0567
 3719TIP3    H235353   3.735   6.994  18.000 -1.1901  0.8714  0.4298
 3720TIP3   OH235354   6.759   5.943  18.635 -0.0812  0.1263 -0.2345
 3720TIP3    H135355   6.835   6.002  18.630  0.0850  0.0143  0.6989
 3720TIP3    H235356   6.729   5.952  18.726 -0.7555 -0.3666 -0.4082
 3721TIP3   OH235357   7.351   0.541  17.836  0.1244 -0.2460  0.2884
 3721TIP3    H135358   7.349   0.629  17.873  1.9518 -1.5041  3.9578
 3721TIP3    H235359   7.259   0.517  17.826 -0.4534  1.2995  1.4811
 3722TIP3   OH235360   7.273   8.177  16.474 -0.1824 -0.6489 -0.0095
 3722TIP3    H135361   7.283   8.083  16.458 -0.0658 -0.3912 -1.6506
 3722TIP3    H235362   7.362   8.207  16.494 -0.3616 -1.0136  1.4923
 3723TIP3   OH235363   6.950   3.392  18.083  0.4517  0.2709 -0.0640
 3723TIP3    H135364   6.929   3.316  18.028  0.3007 -1.3446  2.0965
 3723TIP3    H235365   7.028   3.430  18.041  0.3633 -0.9032 -1.3746
 3724TIP3   OH235366   4.831   1.808  17.633 -0.0254 -0.2000 -0.2715
 3724TIP3    H135367   4.761   1.832  17.572  0.0035 -0.9421 -0.6091
 3724TIP3    H235368   4.797   1.832  17.719 -0.3131  0.2942 -0.5158
 3725TIP3   OH235369   6.779   2.091  18.591 -0.1782 -0.6941  0.3461
 3725TIP3    H135370   6.724   2.013  18.588  0.0756 -0.9477  1.6121
 3725TIP3    H235371   6.807   2.097  18.683  2.3709 -0.8929 -0.3513
 3726TIP3   OH235372   7.091   4.032  18.222  0.2729 -0.1161  0.2180
 3726TIP3    H135373   7.148   4.008  18.295  1.6232 -0.3463 -0.8672
 3726TIP3    H235374   7.141   4.007  18.144 -0.6688  1.0962 -0.8152
 3727TIP3   OH235375   6.281   8.211  18.280  0.3087 -0.5648  0.0604
 3727TIP3    H135376   6.227   8.281  18.244  2.1055  0.6546 -0.3994
 3727TIP3    H235377   6.225   8.134  18.277 -1.0905  0.4359 -1.2165
 3728TIP3   OH235378   5.251   4.107  19.008 -0.0532 -0.5719  0.8407
 3728TIP3    H135379   5.178   4.087  19.067 -1.5085 -0.3783 -0.8249
 3728TIP3    H235380   5.245   4.041  18.939  1.9036 -1.0813  1.1032
 3729TIP3   OH235381   6.593   5.125  18.021  0.2520 -0.8048  0.0863
 3729TIP3    H135382   6.515   5.077  17.996 -0.5919  0.3853  0.3469
 3729TIP3    H235383   6.659   5.058  18.038 -0.2581 -1.7724 -1.6096
 3730TIP3   OH235384   0.753   6.338  17.662  0.5239 -0.8148  0.3246
 3730TIP3    H135385   0.681   6.336  17.598  0.5767 -1.1649  0.2718
 3730TIP3    H235386   0.802   6.258  17.644  0.3588 -1.0723  1.0093
 3731TIP3   OH235387   7.582   6.362  18.501  0.6501  0.2856 -0.1884
 3731TIP3    H135388   7.650   6.422  18.532  0.2146  0.8170 -0.2617
 3731TIP3    H235389   7.627   6.306  18.437  1.2793 -0.0734  0.5402
 3732TIP3   OH235390   7.779   7.177  17.568  0.0741 -0.3554  0.4046
 3732TIP3    H135391   7.837   7.124  17.512 -0.1348  0.5209 -0.6775
 3732TIP3    H235392   7.823   7.177  17.653  1.7947  0.4381 -0.4260
 3733TIP3   OH235393   2.259   6.714  17.085 -0.1738 -0.0088 -0.3182
 3733TIP3    H135394   2.312   6.684  17.159 -0.7745  1.8735  0.9394
 3733TIP3    H235395   2.319   6.769  17.033 -0.0642 -0.4148 -0.6286
 3734TIP3   OH235396   1.138   8.203  17.929 -0.0657  0.4014  0.4174
 3734TIP3    H135397   1.195   8.181  17.856 -0.3511  0.0904  0.2879
 3734TIP3    H235398   1.195   8.201  18.006 -0.0043 -0.3697  0.3522
 3735TIP3   OH235399   4.270   3.251  16.952  0.2329 -0.3096 -0.4259
 3735TIP3    H135400   4.227   3.209  16.877 -0.2618 -0.9802  0.2149
 3735TIP3    H235401   4.201   3.303  16.993  0.2421 -0.7234  0.1231
 3736TIP3   OH235402   4.510   7.837  17.415 -0.1388 -0.3388  0.1564
 3736TIP3    H135403   4.430   7.789  17.437  0.0191 -0.7754 -0.2034
 3736TIP3    H235404   4.549   7.787  17.343 -0.7216  1.0985 -1.2259
 3737TIP3   OH235405   0.511   2.837  17.387  0.2461  0.0870  0.3546
 3737TIP3    H135406   0.480   2.784  17.460 -0.5933 -0.6155 -0.4774
 3737TIP3    H235407   0.466   2.921  17.397  1.2687  0.5258  1.4497
 3738TIP3   OH235408   0.110   6.374  18.757  0.0075 -0.9293  0.4347
 3738TIP3    H135409   0.117   6.401  18.849 -0.3149 -0.2047  0.2513
 3738TIP3    H235410   0.092   6.280  18.761  2.0526 -1.3479  1.0704
 3739TIP3   OH235411   8.393   0.158  17.897 -0.0447  0.8289  0.3586
 3739TIP3    H135412   8.368   0.153  17.804 -0.8280 -1.4593  0.6437
 3739TIP3    H235413   8.433   0.074  17.916  0.3305  1.3561  2.0534
 3740TIP3   OH235414   6.467   3.513  18.303  0.3231 -0.1113  0.6013
 3740TIP3    H135415   6.541   3.547  18.353  0.3473  1.1681 -0.2674
 3740TIP3    H235416   6.412   3.589  18.285  0.0699 -0.6083 -0.9011
 3741TIP3   OH235417   2.021   2.414  17.427 -0.0090  0.0328  0.0511
 3741TIP3    H135418   2.029   2.409  17.522  1.8978  0.3882 -0.0527
 3741TIP3    H235419   2.018   2.323  17.399  1.3130 -0.1358  0.3619
 3742TIP3   OH235420   7.497   3.472  18.254 -0.0811 -0.4613  0.5140
 3742TIP3    H135421   7.429   3.540  18.261  0.7084  0.5993 -1.4745
 3742TIP3    H235422   7.488   3.439  18.165  1.2271 -1.1942  0.6409
 3743TIP3   OH235423   0.614   1.922  17.537 -0.2692  0.5225  0.2547
 3743TIP3    H135424   0.587   1.998  17.590  1.8526  1.9110 -0.4884
 3743TIP3    H235425   0.606   1.952  17.446  0.5236 -0.1626 -0.0526
 3744TIP3   OH235426   6.986   4.782  17.936 -0.9683  0.5676  0.2208
 3744TIP3    H135427   6.935   4.842  17.882 -0.0733  1.4538  0.3327
 3744TIP3    H235428   6.948   4.696  17.919 -0.3253  0.7108 -2.2983
 3745TIP3   OH235429   5.210   1.478  17.023  0.2099  0.2189 -0.4308
 3745TIP3    H135430   5.222   1.434  16.939  0.0589 -0.3556 -0.1577
 3745TIP3    H235431   5.282   1.447  17.077 -0.4298 -0.4276  0.0619
 3746TIP3   OH235432   2.623   5.755  18.972  0.2070 -0.6065 -0.4087
 3746TIP3    H135433   2.609   5.850  18.977  1.0911 -0.4945  0.4424
 3746TIP3    H235434   2.665   5.741  18.887 -1.2126 -0.4300 -1.1547
 3747TIP3   OH235435   6.340   2.807  18.208 -0.6032 -0.1514  0.8463
 3747TIP3    H135436   6.402   2.767  18.147  0.4772  2.6376 -0.0860
 3747TIP3    H235437   6.254   2.792  18.168  0.0419  1.2410 -1.2582
 3748TIP3   OH235438   6.966   0.742  17.623  0.6332 -0.4229  0.2173
 3748TIP3    H135439   6.927   0.799  17.690 -0.6450 -0.0452 -0.8276
 3748TIP3    H235440   7.016   0.802  17.568  1.7182 -0.7412  0.8199
 3749TIP3   OH235441   6.847   2.081  16.423 -0.7882  0.5633 -1.0127
 3749TIP3    H135442   6.768   2.026  16.425  0.2550 -1.0262 -1.6076
 3749TIP3    H235443   6.824   2.153  16.365 -2.8516  1.9059  1.2650
 3750TIP3   OH235444   2.966   7.642  18.815 -0.2601 -0.0544  0.1305
 3750TIP3    H135445   2.916   7.571  18.856 -0.3006 -0.9833 -1.4615
 3750TIP3    H235446   3.049   7.601  18.789 -0.5015  0.3154 -1.3073
 3751TIP3   OH235447   2.668   5.262  17.703  0.3176  0.0382  0.5446
 3751TIP3    H135448   2.689   5.213  17.782  0.0226 -1.8284 -0.4630
 3751TIP3    H235449   2.751   5.267  17.655 -0.4033 -3.7109 -1.5039
 3752TIP3   OH235450   7.216   6.227  17.791 -0.0939  0.6430  0.3387
 3752TIP3    H135451   7.299   6.260  17.825  0.7169  0.8125 -1.6340
 3752TIP3    H235452   7.196   6.284  17.716 -1.2585 -0.2610 -0.0766
 3753TIP3   OH235453   4.015   3.229  17.319 -0.0684  0.2371  0.1865
 3753TIP3    H135454   4.086   3.185  17.366  0.6406  0.3745 -0.7396
 3753TIP3    H235455   4.059   3.292  17.263 -0.7883 -0.9178 -1.7473
 3754TIP3   OH235456   8.153   2.704  19.045 -0.2277  0.1040  0.8386
 3754TIP3    H135457   8.203   2.763  19.102  0.0705 -0.5576  1.2790
 3754TIP3    H235458   8.073   2.752  19.026 -0.8957 -0.1338  2.8410
 3755TIP3   OH235459   3.437   0.810  18.369 -0.0101  0.1383 -0.3522
 3755TIP3    H135460   3.389   0.877  18.418  0.4118  1.3143 -1.4865
 3755TIP3    H235461   3.386   0.797  18.289 -0.2074 -1.0823 -0.0454
 3756TIP3   OH235462   5.278   7.713  17.500 -0.4794 -0.7002 -1.0369
 3756TIP3    H135463   5.212   7.721  17.431 -0.5832  0.6157 -0.8006
 3756TIP3    H235464   5.361   7.730  17.454 -0.5415  0.0970 -0.8675
 3757TIP3   OH235465   2.661   2.423  17.803  0.4483 -0.3466  0.2937
 3757TIP3    H135466   2.626   2.417  17.892 -1.3618 -0.1208 -0.3577
 3757TIP3    H235467   2.752   2.393  17.811 -0.2709 -2.3544  1.8483
 3758TIP3   OH235468   6.856   3.670  18.593  0.0429 -0.0540 -1.0608
 3758TIP3    H135469   6.918   3.741  18.610  3.0776 -3.1495  2.7471
 3758TIP3    H235470   6.891   3.625  18.516  1.1995 -0.3071 -0.4219
 3759TIP3   OH235471   7.808   7.091  17.125  0.6023  0.4765 -0.1354
 3759TIP3    H135472   7.719   7.057  17.129  0.4772  0.9109  1.9221
 3759TIP3    H235473   7.841   7.061  17.040 -0.5035 -2.2389  0.2910
 3760TIP3   OH235474   6.770   0.854  16.441 -0.5508 -0.3993  0.1823
 3760TIP3    H135475   6.810   0.931  16.482 -1.0070 -1.3881  2.6689
 3760TIP3    H235476   6.844   0.799  16.417 -0.2529  0.4390 -0.8968
 3761TIP3   OH235477   5.287   7.451  17.587 -0.2959  0.8012  0.0062
 3761TIP3    H135478   5.223   7.514  17.620 -1.0943 -0.3339  0.6874
 3761TIP3    H235479   5.237   7.395  17.528  0.7517  1.7540 -1.8864
 3762TIP3   OH235480   2.473   8.291  17.684 -0.3222 -0.0866 -0.3763
 3762TIP3    H135481   2.450   8.262  17.772 -0.2028 -1.3166 -0.7305
 3762TIP3    H235482   2.506   8.380  17.696  0.9344 -0.6933  1.0030
 3763TIP3   OH235483   0.010   7.943  16.757  0.2113  0.2307 -0.3978
 3763TIP3    H135484   0.057   8.008  16.706 -2.6823  3.1544  0.3502
 3763TIP3    H235485   0.013   7.975  16.847 -0.5903 -1.1211  0.1494
 3764TIP3   OH235486   5.950   5.783  18.243  0.0690 -0.2514  0.1970
 3764TIP3    H135487   5.975   5.695  18.216  0.5267 -0.3374  0.8909
 3764TIP3    H235488   5.890   5.769  18.316 -1.8220 -0.0472 -1.2185
 3765TIP3   OH235489   4.279   2.838  18.189  0.3608 -0.1349  0.4292
 3765TIP3    H135490   4.301   2.797  18.105 -0.3538  0.9134 -0.3062
 3765TIP3    H235491   4.219   2.776  18.230 -1.6981  0.6170 -1.2221
 3766TIP3   OH235492   3.280   7.712  16.576  0.0055 -0.1803  0.6222
 3766TIP3    H135493   3.306   7.794  16.619  0.8474 -0.3817  0.5205
 3766TIP3    H235494   3.341   7.703  16.503 -0.8425 -0.3020 -0.0907
 3767TIP3   OH235495   5.173   2.827  16.843 -0.1276  0.1021 -0.1982
 3767TIP3    H135496   5.124   2.788  16.771  0.1466  0.3972 -0.5462
 3767TIP3    H235497   5.116   2.895  16.877 -1.5724 -1.9851  1.8401
 3768TIP3   OH235498   5.157   8.164  17.407  0.3877  0.3876  0.1995
 3768TIP3    H135499   5.199   8.082  17.434  0.1968 -0.1148 -0.9755
 3768TIP3    H235500   5.107   8.140  17.329  1.5715  1.9256 -1.1032
 3769TIP3   OH235501   2.866   0.857  17.147  1.0882 -0.0520 -0.2308
 3769TIP3    H135502   2.832   0.945  17.164  0.0554 -0.2840 -1.0630
 3769TIP3    H235503   2.915   0.865  17.066  1.7112 -0.0753  0.1325
 3770TIP3   OH235504   2.596   3.418  18.629 -0.1278  0.5444 -0.0512
 3770TIP3    H135505   2.520   3.360  18.619  0.1107  0.1134  0.5639
 3770TIP3    H235506   2.558   3.506  18.634 -0.4650  0.4998 -1.4399
 3771TIP3   OH235507   8.261   2.092  18.072  0.6882  0.2746  0.3242
 3771TIP3    H135508   8.311   2.147  18.133 -1.1139  0.8588  1.3474
 3771TIP3    H235509   8.209   2.154  18.021  0.4662 -0.3425 -0.2112
 3772TIP3   OH235510   7.710   1.352  17.714  0.4818 -0.2672  0.5027
 3772TIP3    H135511   7.653   1.404  17.657 -0.2906 -0.7753  0.7870
 3772TIP3    H235512   7.792   1.401  17.718 -1.0540  2.3974  2.9099
 3773TIP3   OH235513   2.031   6.380  17.485  0.0518 -0.4866 -0.3617
 3773TIP3    H135514   1.939   6.402  17.502  0.4634  0.6537  0.4489
 3773TIP3    H235515   2.059   6.334  17.564  0.6795  0.7929  0.1824
 3774TIP3   OH235516   4.366   1.656  18.293 -0.5018 -0.6282 -0.3194
 3774TIP3    H135517   4.299   1.674  18.227 -0.5922  0.0610 -0.0486
 3774TIP3    H235518   4.449   1.677  18.250 -0.5726 -0.0177 -0.1625
 3775TIP3   OH235519   5.786   6.365  16.865 -0.2066 -0.0103  0.1910
 3775TIP3    H135520   5.752   6.305  16.931 -0.2322  0.9678  1.0929
 3775TIP3    H235521   5.880   6.348  16.863 -0.2106 -0.0669  0.4597
 3776TIP3   OH235522   2.881   2.086  16.874 -0.4257 -0.1444  0.5211
 3776TIP3    H135523   2.808   2.055  16.929  0.0994 -0.2332  1.1823
 3776TIP3    H235524   2.909   2.167  16.916 -0.9090  0.5261 -0.4243
 3777TIP3   OH235525   4.213   4.167  17.709 -0.3701 -0.6014 -0.3176
 3777TIP3    H135526   4.261   4.090  17.679 -0.0887 -0.2360 -0.8097
 3777TIP3    H235527   4.261   4.242  17.673  0.0382 -0.1366  1.1034
 3778TIP3   OH235528   8.192   0.457  18.729  0.7070 -0.0155 -0.6228
 3778TIP3    H135529   8.212   0.545  18.763  0.7594 -0.2669  0.0121
 3778TIP3    H235530   8.232   0.397  18.792  1.0983 -0.4988 -1.3197
 3779TIP3   OH235531   2.376   8.022  18.187  0.1786 -0.3793  0.2081
 3779TIP3    H135532   2.281   8.021  18.199  0.0621 -1.8941 -0.5607
 3779TIP3    H235533   2.398   7.932  18.162  1.7701  0.0321  0.0022
 3780TIP3   OH235534   7.413   4.832  17.629 -0.3100 -0.0531 -0.1096
 3780TIP3    H135535   7.408   4.894  17.557 -2.1351 -0.6499 -0.5471
 3780TIP3    H235536   7.322   4.814  17.652  0.1359 -2.5024  0.0463
 3781TIP3   OH235537   7.301   0.894  17.343 -0.4148  0.5058 -0.0626
 3781TIP3    H135538   7.348   0.811  17.354  1.0698  1.4174  0.9014
 3781TIP3    H235539   7.352   0.943  17.279 -0.9449  0.9074 -0.1879
 3782TIP3   OH235540   6.570   1.969  17.300  0.2754  0.1072  0.2275
 3782TIP3    H135541   6.584   1.966  17.395 -0.0547  0.5757  0.2960
 3782TIP3    H235542   6.492   1.915  17.286 -1.1211  1.9058  0.5354
 3783TIP3   OH235543   5.229   6.929  17.974  0.4214 -0.3611 -0.1739
 3783TIP3    H135544   5.178   6.904  17.897 -0.2732  0.1538  0.1076
 3783TIP3    H235545   5.163   6.951  18.040  1.0009 -1.0435  0.6572
 3784TIP3   OH235546   7.033   6.601  16.568 -0.1476 -0.9690 -0.3428
 3784TIP3    H135547   7.125   6.601  16.545 -0.2474  0.7955 -0.8676
 3784TIP3    H235548   6.994   6.669  16.513 -1.3594 -0.2344  1.3161
 3785TIP3   OH235549   1.518   2.540  17.713  0.1851 -0.3621 -0.2552
 3785TIP3    H135550   1.486   2.616  17.763 -0.0170 -1.2508  1.0118
 3785TIP3    H235551   1.461   2.468  17.739  1.4529 -1.3514 -0.1041
 3786TIP3   OH235552   3.246   2.553  16.904 -0.2035  0.2031  0.8909
 3786TIP3    H135553   3.329   2.576  16.946 -0.1096 -0.2978  0.9760
 3786TIP3    H235554   3.206   2.638  16.884  1.7477  0.5749 -2.0380
 3787TIP3   OH235555   4.310   5.226  18.397 -0.4986  0.0297  0.0961
 3787TIP3    H135556   4.378   5.292  18.407 -0.0279 -0.5815  1.0779
 3787TIP3    H235557   4.233   5.275  18.369  0.2580  0.7688 -0.7361
 3788TIP3   OH235558   5.381   2.676  16.392  0.3635 -0.4100 -0.9732
 3788TIP3    H135559   5.298   2.628  16.393 -0.0791  0.3553  0.0757
 3788TIP3    H235560   5.438   2.623  16.335 -0.9265 -0.7695 -1.9827
 3789TIP3   OH235561   7.117   4.842  18.559 -0.0640  0.4028  0.2765
 3789TIP3    H135562   7.181   4.837  18.488 -0.4078 -0.7914  0.0220
 3789TIP3    H235563   7.071   4.924  18.544  2.1032  1.8612  1.0983
 3790TIP3   OH235564   5.731   2.592  18.113 -0.8126 -0.3580 -0.1854
 3790TIP3    H135565   5.784   2.523  18.151 -0.7119 -0.0729  0.2017
 3790TIP3    H235566   5.772   2.611  18.029  0.0866  0.2978  0.3842
 3791TIP3   OH235567   3.162   5.643  16.884 -0.0186  0.5432  0.4541
 3791TIP3    H135568   3.214   5.652  16.964  0.8849 -0.1152 -0.0412
 3791TIP3    H235569   3.159   5.731  16.847  2.3033  0.3322 -0.4257
 3792TIP3   OH235570   3.135   6.233  18.339  0.0121  0.4055 -0.1576
 3792TIP3    H135571   3.089   6.258  18.259 -0.4087  0.8453  0.2180
 3792TIP3    H235572   3.225   6.217  18.311 -0.4703 -0.9760 -0.9866
 3793TIP3   OH235573   6.514   3.642  17.580  0.3646 -0.2948  0.5093
 3793TIP3    H135574   6.475   3.575  17.524 -0.3159  0.6742 -0.2001
 3793TIP3    H235575   6.513   3.604  17.668  0.0698 -1.2405  0.1008
 3794TIP3   OH235576   6.572   0.615  16.552  0.5222 -0.4429  0.2131
 3794TIP3    H135577   6.582   0.526  16.518 -0.3954 -0.4521 -0.0578
 3794TIP3    H235578   6.642   0.664  16.510  1.1794 -1.0741  0.5349
 3795TIP3   OH235579   5.982   1.774  18.520  0.0636  0.5433  0.4539
 3795TIP3    H135580   5.906   1.768  18.462 -0.9144  1.6774  1.5446
 3795TIP3    H235581   6.045   1.826  18.471 -1.1105  2.2982  0.6967
 3796TIP3   OH235582   4.901   6.844  18.481  0.1500  0.1168  0.0953
 3796TIP3    H135583   4.960   6.773  18.507  1.6306  1.8836  1.8889
 3796TIP3    H235584   4.854   6.868  18.561  0.9725  2.2537  0.0102
 3797TIP3   OH235585   5.873   1.382  18.106  0.6693 -0.1203  0.2716
 3797TIP3    H135586   5.918   1.307  18.144 -0.9742 -1.4307 -0.2921
 3797TIP3    H235587   5.785   1.351  18.086 -0.2502  2.1210  0.5395
 3798TIP3   OH235588   3.702   4.318  18.178 -0.1136 -0.3233  0.0098
 3798TIP3    H135589   3.783   4.274  18.205 -0.4455 -0.9997 -0.0707
 3798TIP3    H235590   3.731   4.387  18.118  0.4951  0.1708  0.8436
 3799TIP3   OH235591   6.638   5.716  17.557 -0.2559 -0.5882 -0.4503
 3799TIP3    H135592   6.552   5.710  17.599 -0.7424 -1.8285 -1.5504
 3799TIP3    H235593   6.649   5.632  17.513  0.4843  0.4255 -2.3057
 3800TIP3   OH235594   4.645   7.115  18.633  0.0819  0.8166 -0.2186
 3800TIP3    H135595   4.582   7.166  18.583 -0.2637  0.3631 -0.2593
 3800TIP3    H235596   4.713   7.177  18.658  0.5965  0.9382 -1.7873
 3801TIP3   OH235597   7.890   1.773  18.465 -0.1628 -0.0567  0.0294
 3801TIP3    H135598   7.953   1.735  18.405 -0.7418 -0.6622 -0.2196
 3801TIP3    H235599   7.915   1.865  18.473 -0.0703  0.0311 -1.1258
 3802TIP3   OH235600   4.889   3.067  18.869  0.0423 -0.3591  0.2989
 3802TIP3    H135601   4.870   3.150  18.824 -1.4182 -0.7735  0.0986
 3802TIP3    H235602   4.804   3.039  18.904  0.3639 -2.1365 -0.2583
 3803TIP3   OH235603   0.657   3.121  18.045 -0.3416  0.0980  0.1144
 3803TIP3    H135604   0.712   3.169  17.983 -1.2420  1.6002  0.4551
 3803TIP3    H235605   0.712   3.048  18.073  0.8487  0.5867 -0.8489
 3804TIP3   OH235606   1.474   3.700  18.735 -0.2395 -0.0343 -0.0943
 3804TIP3    H135607   1.413   3.724  18.805  0.6711  1.1237  0.3326
 3804TIP3    H235608   1.543   3.767  18.739  1.5347 -1.7495  0.0327
 3805TIP3   OH235609   0.137   5.378  18.679  0.2592  0.1858  0.3910
 3805TIP3    H135610   0.046   5.388  18.649  0.4177  0.6868  0.0581
 3805TIP3    H235611   0.130   5.333  18.763 -0.4235  1.6778  1.1694
 3806TIP3   OH235612   2.998   5.651  17.451  0.2109 -0.2452 -0.2120
 3806TIP3    H135613   2.975   5.708  17.377 -2.5040 -1.7513 -0.6601
 3806TIP3    H235614   2.973   5.701  17.529  1.4886  0.6763 -0.3731
 3807TIP3   OH235615   5.196   1.390  16.741  0.2592 -0.5125  0.4879
 3807TIP3    H135616   5.170   1.480  16.724  1.7502 -0.5125 -2.2819
 3807TIP3    H235617   5.195   1.347  16.656  0.9261 -2.7639  1.5200
 3808TIP3   OH235618   3.951   8.142  18.082  0.0247  0.1739  0.3749
 3808TIP3    H135619   3.879   8.152  18.145 -0.0262 -1.8013  0.7022
 3808TIP3    H235620   3.910   8.105  18.005 -0.0958  3.4986 -1.3453
 3809TIP3   OH235621   3.234   7.873  17.333  0.1018  0.4896 -0.1852
 3809TIP3    H135622   3.183   7.847  17.410  0.4773 -0.1179 -0.1267
 3809TIP3    H235623   3.245   7.967  17.342 -1.2233  0.6723 -0.3395
 3810TIP3   OH235624   2.687   7.927  18.113  0.1315  0.5316 -0.6697
 3810TIP3    H135625   2.646   7.973  18.040 -1.4419  0.5543  0.1840
 3810TIP3    H235626   2.653   7.838  18.107  2.3490 -0.3057 -1.6976
 3811TIP3   OH235627   1.621   0.035  18.114  0.3974 -0.5471 -0.0776
 3811TIP3    H135628   1.667  -0.033  18.065 -0.2270 -1.2509  0.2873
 3811TIP3    H235629   1.690   0.086  18.155  0.9531 -3.4443  3.0701
 3812TIP3   OH235630   6.135   7.376  18.517  0.6502  0.3815 -0.1101
 3812TIP3    H135631   6.105   7.443  18.455 -1.0371 -0.1745  0.0494
 3812TIP3    H235632   6.227   7.363  18.496  0.6132  1.6417 -1.1716
 3813TIP3   OH235633   4.609   6.340  17.576  0.2444  0.2457 -0.7070
 3813TIP3    H135634   4.588   6.246  17.571  0.8403  0.0429  0.2901
 3813TIP3    H235635   4.540   6.376  17.631 -0.0648  0.4292 -1.2062
 3814TIP3   OH235636   5.830   1.110  18.595 -0.8426  0.3906 -0.0076
 3814TIP3    H135637   5.780   1.095  18.515 -1.3012 -0.4572  0.4284
 3814TIP3    H235638   5.766   1.103  18.665 -0.1670 -0.4414  0.5402
 3815TIP3   OH235639   1.788   2.316  17.208  0.7719  0.0115 -0.0809
 3815TIP3    H135640   1.776   2.327  17.302  1.2364  1.7026 -0.1964
 3815TIP3    H235641   1.715   2.260  17.181  0.7195 -0.6160  1.2915
 3816TIP3   OH235642   5.308   8.017  18.736  0.0364 -0.2777  0.4198
 3816TIP3    H135643   5.367   7.970  18.677 -0.9906  0.5550 -1.3174
 3816TIP3    H235644   5.344   8.106  18.740 -0.8873  0.1481 -0.3984
 3817TIP3   OH235645   5.300   1.721  16.669 -0.4636  0.5851 -0.3370
 3817TIP3    H135646   5.303   1.732  16.574  2.4199 -1.4882 -0.6067
 3817TIP3    H235647   5.383   1.756  16.701 -0.0028 -1.4918  0.9895
 3818TIP3   OH235648   0.519   2.999  19.186  0.8006 -1.0360 -0.3177
 3818TIP3    H135649   0.474   2.915  19.186 -0.1706 -0.5475 -1.6241
 3818TIP3    H235650   0.451   3.063  19.206  1.4172 -0.4931  0.0939
 3819TIP3   OH235651   2.461   5.386  18.218  0.3234 -0.2832  0.0675
 3819TIP3    H135652   2.449   5.318  18.151  0.6230 -0.1695 -0.0999
 3819TIP3    H235653   2.461   5.338  18.301  2.1504 -0.6832 -0.1374
 3820TIP3   OH235654   3.256   8.289  18.225  0.1130 -0.6426 -0.4604
 3820TIP3    H135655   3.188   8.343  18.265  2.0038  1.5944 -0.0160
 3820TIP3    H235656   3.215   8.251  18.147 -1.5250  0.8446 -0.3725
 3821TIP3   OH235657   5.927   4.890  17.133 -0.4442 -0.4965 -0.1651
 3821TIP3    H135658   5.940   4.951  17.060 -0.8169  1.1307  1.0786
 3821TIP3    H235659   5.833   4.889  17.148 -0.1709  2.1654  2.6380
 3822TIP3   OH235660   5.578   8.131  18.057  0.6242  0.4185  0.1795
 3822TIP3    H135661   5.526   8.210  18.066 -0.7500 -0.4121 -0.2052
 3822TIP3    H235662   5.541   8.070  18.121  0.2766 -0.6069 -0.9573
 3823TIP3   OH235663   5.957   4.741  18.772 -0.2279  0.6894  0.5670
 3823TIP3    H135664   5.882   4.783  18.731 -0.7473 -0.8075 -0.0877
 3823TIP3    H235665   6.026   4.808  18.770 -1.3974  1.9463  0.8202
 3824TIP3   OH235666   4.243   1.103  18.540 -0.1199  0.7375 -0.2484
 3824TIP3    H135667   4.303   1.169  18.574  0.9930 -0.1532 -0.4550
 3824TIP3    H235668   4.172   1.154  18.500  0.4502  1.8005  0.0658
 3825TIP3   OH235669   5.051   6.629  18.579  0.0265 -0.3502 -0.0174
 3825TIP3    H135670   5.017   6.540  18.568 -0.1745 -0.4205  1.1244
 3825TIP3    H235671   5.126   6.619  18.637  0.9094  0.0473 -1.0541
 3826TIP3   OH235672   5.158   8.247  18.093 -0.4150  0.1506  0.3628
 3826TIP3    H135673   5.129   8.213  18.008  0.3419  3.2248 -1.2927
 3826TIP3    H235674   5.077   8.269  18.139 -0.8289 -1.4177  0.4344
 3827TIP3   OH235675   0.428   3.229  17.947 -0.1057  0.1092  0.0260
 3827TIP3    H135676   0.413   3.202  17.856 -1.0242  0.9621 -0.0874
 3827TIP3    H235677   0.506   3.180  17.973  0.8317  0.6645 -1.5669
 3828TIP3   OH235678   3.278   8.410  16.736  0.2438  0.2402  0.8230
 3828TIP3    H135679   3.186   8.386  16.747  0.0618  0.5287  0.0154
 3828TIP3    H235680   3.305   8.363  16.657  1.2637 -1.1534  1.9536
 3829TIP3   OH235681   1.684   2.270  18.083 -0.6806  0.2902  0.2303
 3829TIP3    H135682   1.608   2.214  18.065  0.5007 -0.8496 -1.5119
 3829TIP3    H235683   1.699   2.318  18.002  1.2716 -0.5561  0.0321
 3830TIP3   OH235684   4.467   7.512  17.310  0.1881  0.2894  0.6855
 3830TIP3    H135685   4.391   7.565  17.336 -0.3598 -0.6740  1.1040
 3830TIP3    H235686   4.536   7.539  17.370 -0.4557 -0.3540  1.7678
 3831TIP3   OH235687   1.472   7.431  17.650  0.4304  0.2051  0.0241
 3831TIP3    H135688   1.526   7.392  17.719 -0.9306  0.4671  1.2859
 3831TIP3    H235689   1.429   7.505  17.693 -0.0244  0.7119 -1.2747
 3832TIP3   OH235690   3.313   5.493  17.264  0.3345 -0.0795 -0.3240
 3832TIP3    H135691   3.233   5.502  17.211  0.0947 -0.5977 -0.0613
 3832TIP3    H235692   3.281   5.490  17.354  0.7003  0.2965 -0.1773
 3833TIP3   OH235693   1.025   7.426  18.544  0.1860  0.0418  0.6106
 3833TIP3    H135694   0.987   7.451  18.628  2.7576  0.0761  1.8576
 3833TIP3    H235695   0.978   7.346  18.519 -0.9856  0.3353  1.7731
 3834TIP3   OH235696   3.837   8.339  16.927  0.2314 -0.3686  0.2038
 3834TIP3    H135697   3.893   8.382  16.863  0.5688 -0.4309  0.4523
 3834TIP3    H235698   3.861   8.247  16.922 -0.9130 -0.6267 -0.7513
 3835TIP3   OH235699   1.076   5.547  18.608  0.2944  0.5928 -0.3405
 3835TIP3    H135700   1.142   5.539  18.539  0.9043  3.2457 -0.1457
 3835TIP3    H235701   1.118   5.508  18.685 -0.1710 -1.8531 -1.2402
 3836TIP3   OH235702   3.171   2.088  17.117  0.5168  0.7686 -0.2222
 3836TIP3    H135703   3.236   2.023  17.090 -1.3975 -2.0155  1.3992
 3836TIP3    H235704   3.142   2.128  17.035  0.2416 -2.0112 -1.6068
 3837TIP3   OH235705   4.395   5.079  17.254  0.2969  0.6763 -0.1518
 3837TIP3    H135706   4.374   4.994  17.293  0.0308  0.0690 -1.5517
 3837TIP3    H235707   4.325   5.138  17.285 -0.1371  0.1135 -0.0444
 3838TIP3   OH235708   6.125   1.392  16.579  0.2155 -0.2905  0.4920
 3838TIP3    H135709   6.202   1.397  16.636  0.1616  4.3659  0.5063
 3838TIP3    H235710   6.160   1.369  16.493  1.4156  0.1092  0.8575
 3839TIP3   OH235711   3.095   1.117  18.675  0.1382  0.2244 -0.3298
 3839TIP3    H135712   3.187   1.117  18.702  0.5891 -0.0789 -1.7659
 3839TIP3    H235713   3.056   1.190  18.722  1.2996  0.8541 -0.3010
 3840TIP3   OH235714   8.069   5.046  17.765  0.1481  0.4671 -0.4986
 3840TIP3    H135715   8.032   4.958  17.774  0.2071  0.6624  2.4338
 3840TIP3    H235716   8.150   5.033  17.716  0.8038 -1.3592  0.9496
 3841TIP3   OH235717   4.864   7.764  17.473  0.2928 -0.5547 -0.3488
 3841TIP3    H135718   4.879   7.670  17.485  0.1478 -0.5393 -0.0370
 3841TIP3    H235719   4.928   7.790  17.407  1.0763 -0.6631  0.3429
 3842TIP3   OH235720   7.827   5.492  17.595  0.0410 -0.1334 -0.2053
 3842TIP3    H135721   7.793   5.456  17.514  0.4424 -0.9575 -0.0165
 3842TIP3    H235722   7.915   5.522  17.572  0.8665 -2.0192  0.3224
 3843TIP3   OH235723   2.864   3.462  18.543 -0.2946 -0.3606  0.7096
 3843TIP3    H135724   2.917   3.383  18.545 -0.2362 -0.3220  2.4870
 3843TIP3    H235725   2.776   3.433  18.565 -0.7294 -0.2003 -0.7085
 3844TIP3   OH235726   6.136   2.856  17.882 -0.2621  0.3571  0.6124
 3844TIP3    H135727   6.096   2.927  17.931 -0.2130 -0.3085  1.6592
 3844TIP3    H235728   6.107   2.776  17.927  3.1433 -0.1603  2.2355
 3845TIP3   OH235729   1.626   5.738  19.021  0.6160  0.1929  0.6346
 3845TIP3    H135730   1.568   5.670  19.057  0.4227  0.4176  0.7506
 3845TIP3    H235731   1.655   5.703  18.937  0.0435  0.2205  0.4182
 3846TIP3   OH235732   5.309   7.900  17.238 -0.4885  0.0552  0.0908
 3846TIP3    H135733   5.371   7.883  17.167 -0.9646  0.3235 -0.3973
 3846TIP3    H235734   5.346   7.975  17.284 -1.0268  0.9667 -0.9120
 3847TIP3   OH235735   6.837   7.336  18.679 -0.0370  0.0296 -0.2663
 3847TIP3    H135736   6.755   7.301  18.644  1.4999 -0.8834 -3.2899
 3847TIP3    H235737   6.888   7.259  18.703  0.9955  0.4286 -1.0999
 3848TIP3   OH235738   1.460   0.757  18.806  0.1951  0.3322 -0.1351
 3848TIP3    H135739   1.519   0.829  18.825  1.1245 -0.5128  0.2411
 3848TIP3    H235740   1.517   0.681  18.794 -0.8654 -1.4020  4.0573
 3849TIP3   OH235741   6.843   3.404  16.662  0.3113 -0.0733 -0.8788
 3849TIP3    H135742   6.796   3.386  16.743  0.3405  0.1262 -0.8183
 3849TIP3    H235743   6.916   3.341  16.661  0.7541  0.4251 -0.3849
 3850TIP3   OH235744   6.314   6.920  16.973 -0.3384  0.0072  0.2405
 3850TIP3    H135745   6.248   6.870  17.019 -0.7690  0.3208 -0.0332
 3850TIP3    H235746   6.304   6.894  16.881  0.8600 -1.0109  0.3683
 3851TIP3   OH235747   6.064   4.309  17.697 -0.5882  0.2205  0.2743
 3851TIP3    H135748   5.983   4.266  17.724  1.3614 -3.5926  0.7313
 3851TIP3    H235749   6.096   4.352  17.777 -1.4378  0.5816  0.4347
 3852TIP3   OH235750   7.281   5.348  17.892  0.4645 -0.3706 -0.5439
 3852TIP3    H135751   7.298   5.347  17.798  0.1107 -1.5544 -0.6067
 3852TIP3    H235752   7.189   5.324  17.900  0.4409 -0.0926  0.0989
 3853TIP3   OH235753   5.793   1.530  17.513 -0.5206 -0.5527 -0.1645
 3853TIP3    H135754   5.806   1.484  17.431 -0.8758 -0.6620 -0.1611
 3853TIP3    H235755   5.790   1.623  17.489  0.6383 -0.4919 -0.1149
 3854TIP3   OH235756   0.755   1.506  17.420 -0.0820  0.0903 -0.2693
 3854TIP3    H135757   0.748   1.599  17.439  0.8167  0.0394  0.3746
 3854TIP3    H235758   0.731   1.498  17.328  0.3330  1.0316 -0.4697
 3855TIP3   OH235759   5.036   6.956  17.318 -0.5394  0.1448  0.0172
 3855TIP3    H135760   4.953   6.980  17.278 -0.8092 -2.2965 -1.1063
 3855TIP3    H235761   5.048   6.864  17.295  1.6711 -0.0557  1.5785
 3856TIP3   OH235762   0.390   7.288  18.399 -0.2063  0.2650  0.2823
 3856TIP3    H135763   0.411   7.378  18.372 -1.8085  0.2463 -1.1982
 3856TIP3    H235764   0.471   7.240  18.384  0.8094  1.5204  1.4865
 3857TIP3   OH235765   3.894   6.804  17.755 -0.1358  0.0254  0.4807
 3857TIP3    H135766   3.950   6.881  17.745 -0.8424  0.5636  0.5931
 3857TIP3    H235767   3.808   6.840  17.778 -0.5750 -0.7804  0.1226
 3858TIP3   OH235768   1.977   3.889  17.789  0.1116 -0.6648  0.3016
 3858TIP3    H135769   2.015   3.830  17.724  0.7392 -0.9311  0.9016
 3858TIP3    H235770   2.009   3.976  17.764  1.4296 -0.9230  0.9922
 3859TIP3   OH235771   5.766   4.869  17.684  0.1432 -0.0438  0.2856
 3859TIP3    H135772   5.763   4.802  17.615  2.1126  0.9799 -0.8800
 3859TIP3    H235773   5.850   4.855  17.727  0.5963  1.6584  0.0109
 3860TIP3   OH235774   3.370   7.484  17.478 -0.2186 -0.0116 -0.3223
 3860TIP3    H135775   3.349   7.417  17.542 -2.4351  1.3337  0.4755
 3860TIP3    H235776   3.408   7.437  17.405 -0.4277 -1.9538  0.7626
 3861TIP3   OH235777   7.847   6.263  17.506 -0.2450  0.6874 -0.1148
 3861TIP3    H135778   7.842   6.305  17.420  0.0577  0.3730 -0.2919
 3861TIP3    H235779   7.940   6.267  17.530 -0.2952  0.5927  0.1020
 3862TIP3   OH235780   2.808   3.897  17.650 -0.6574  0.0472 -0.4532
 3862TIP3    H135781   2.737   3.916  17.711 -0.0437 -0.5592  0.4903
 3862TIP3    H235782   2.858   3.979  17.645 -0.6544  0.0721 -0.0470
 3863TIP3   OH235783   4.794   2.141  17.659  0.0740  0.4820  0.1978
 3863TIP3    H135784   4.719   2.202  17.664 -0.3471 -0.1118  2.1441
 3863TIP3    H235785   4.869   2.198  17.640 -0.4342  1.5162  1.1487
 3864TIP3   OH235786   2.870   6.687  17.783 -0.2678  0.0783  0.3078
 3864TIP3    H135787   2.789   6.682  17.733 -1.2100  1.6782  1.5844
 3864TIP3    H235788   2.845   6.666  17.873  1.0385 -0.8671  0.4867
 3865TIP3   OH235789   6.304   4.365  17.225 -0.0208 -0.7233 -0.0779
 3865TIP3    H135790   6.390   4.344  17.262  0.4852  1.6141  0.2365
 3865TIP3    H235791   6.246   4.371  17.301  0.2817  0.7719  0.0780
 3866TIP3   OH235792   3.033   3.085  17.474 -0.1318 -0.0421 -0.2583
 3866TIP3    H135793   2.946   3.112  17.446 -0.2889 -0.1453  0.1121
 3866TIP3    H235794   3.079   3.059  17.394 -0.4085  0.1149 -0.4640
 3867TIP3   OH235795   8.444   6.786  18.621 -0.2546 -0.0451  0.7818
 3867TIP3    H135796   8.439   6.691  18.617  1.2408 -0.1148 -0.2484
 3867TIP3    H235797   8.454   6.814  18.530 -2.3187  1.2502  0.8714
 3868TIP3   OH235798   3.456   4.645  17.421 -0.1982  0.6015 -1.0939
 3868TIP3    H135799   3.513   4.575  17.390  0.3081  1.2464 -1.6603
 3868TIP3    H235800   3.449   4.630  17.515 -1.4033 -1.1301 -1.4097
 3869TIP3   OH235801   5.337   7.174  18.299  0.3333 -0.9404 -0.1783
 3869TIP3    H135802   5.244   7.190  18.285  0.8913  0.6807 -2.6025
 3869TIP3    H235803   5.364   7.242  18.361  0.2140 -0.4408 -0.6726
 3870TIP3   OH235804   7.816   5.227  18.577 -0.1775  0.0406  0.2561
 3870TIP3    H135805   7.877   5.187  18.514 -1.0697 -0.0689 -0.5559
 3870TIP3    H235806   7.750   5.160  18.593 -0.7488  0.5765  0.1976
 3871TIP3   OH235807   5.977   5.388  18.534 -0.6167  0.0560  0.5314
 3871TIP3    H135808   5.981   5.453  18.605 -1.2537  1.1283 -0.3757
 3871TIP3    H235809   5.902   5.415  18.481  0.1530 -0.4039 -0.8383
 3872TIP3   OH235810   4.161   5.743  17.103  0.1133  0.3845 -0.1556
 3872TIP3    H135811   4.186   5.660  17.143  1.2320 -0.1726 -1.8772
 3872TIP3    H235812   4.223   5.807  17.139  1.7897 -0.3052 -1.6543
 3873TIP3   OH235813   2.231   4.439  18.105 -0.0591 -0.1555 -0.2254
 3873TIP3    H135814   2.250   4.355  18.147  3.0865  0.4122 -0.2300
 3873TIP3    H235815   2.269   4.504  18.165 -0.3107  1.0683 -1.3633
 3874TIP3   OH235816   1.351   2.972  17.294  0.0717 -0.6806 -0.1814
 3874TIP3    H135817   1.341   3.067  17.302  0.4650 -0.7541  1.8072
 3874TIP3    H235818   1.307   2.949  17.213  1.8420  1.4778 -1.8736
 3875TIP3   OH235819   3.195   5.442  17.507  0.2891 -0.0314  0.2586
 3875TIP3    H135820   3.226   5.439  17.598 -1.8098 -0.8026  1.0099
 3875TIP3    H235821   3.132   5.515  17.506  0.5363  0.1760 -0.6700
 3876TIP3   OH235822   7.490   1.572  17.248 -0.3673  0.0181 -0.5360
 3876TIP3    H135823   7.522   1.497  17.198  0.4518 -0.1882  0.2693
 3876TIP3    H235824   7.463   1.635  17.181  0.4772 -0.3494 -1.2458
 3877TIP3   OH235825   5.547   6.544  18.674  0.3577  0.2746  0.5013
 3877TIP3    H135826   5.593   6.466  18.642 -1.8495 -1.5400  1.4511
 3877TIP3    H235827   5.615   6.610  18.685  2.4709 -1.7783  0.4279
 3878TIP3   OH235828   0.477   5.137  16.883  0.3489 -0.1930  0.1701
 3878TIP3    H135829   0.416   5.089  16.827 -0.6823 -0.5354  1.5475
 3878TIP3    H235830   0.535   5.182  16.822 -0.5010 -0.8522 -1.1638
 3879TIP3   OH235831   0.743   5.908  18.886 -0.1358  0.1411  0.0268
 3879TIP3    H135832   0.770   5.992  18.850  0.9265  0.6375  1.8772
 3879TIP3    H235833   0.823   5.857  18.891 -0.6387 -0.7130 -0.3161
 3880TIP3   OH235834   7.192   1.424  18.561 -0.1246 -0.1835  0.1764
 3880TIP3    H135835   7.275   1.400  18.603  1.3733  0.9793 -1.9087
 3880TIP3    H235836   7.159   1.498  18.612  1.2648  0.7321 -0.2102
 3881TIP3   OH235837   4.701   2.189  17.284 -0.2842 -0.2465 -0.9931
 3881TIP3    H135838   4.727   2.130  17.213  2.6797 -0.3819  0.0496
 3881TIP3    H235839   4.775   2.249  17.294 -0.8820  0.2020  1.5028
 3882TIP3   OH235840   5.893   3.165  18.523 -0.8038 -0.6144 -0.1555
 3882TIP3    H135841   5.890   3.253  18.559  0.4523 -0.5267 -0.2298
 3882TIP3    H235842   5.890   3.177  18.428  1.0277 -0.5195 -0.2375
 3883TIP3   OH235843   0.290   3.278  19.105 -0.1680  0.0572  0.4028
 3883TIP3    H135844   0.202   3.252  19.077  0.4403 -3.8462  1.5049
 3883TIP3    H235845   0.338   3.291  19.024 -0.5323 -2.9145 -0.3941
 3884TIP3   OH235846   3.571   2.441  17.225  0.0740 -0.2265  0.1115
 3884TIP3    H135847   3.494   2.400  17.265  0.6052 -0.6950  0.6626
 3884TIP3    H235848   3.593   2.383  17.151 -0.5080  0.2831 -0.4797
 3885TIP3   OH235849   6.901   6.874  18.470  0.0308 -0.0232  0.5312
 3885TIP3    H135850   6.976   6.928  18.446 -0.3864  0.2702 -0.1469
 3885TIP3    H235851   6.895   6.809  18.401 -0.3317 -0.0492  0.5878
 3886TIP3   OH235852   7.756   3.464  18.388  0.8593  0.1065  0.1358
 3886TIP3    H135853   7.668   3.453  18.352  0.7232 -1.0591  0.7679
 3886TIP3    H235854   7.772   3.558  18.384  0.3676  0.1476 -1.7918
 3887TIP3   OH235855   3.477   1.650  17.843  0.2029  0.1484  0.1145
 3887TIP3    H135856   3.441   1.567  17.874  2.0466  0.0803  2.3245
 3887TIP3    H235857   3.456   1.713  17.912 -0.4893  1.3840 -1.1665
 3888TIP3   OH235858   1.417   1.418  18.197 -0.0104 -0.4527  0.0004
 3888TIP3    H135859   1.338   1.459  18.232  0.7166  1.6711 -0.6805
 3888TIP3    H235860   1.449   1.480  18.132  1.4337 -1.9480 -0.7840
 3889TIP3   OH235861   5.995   0.341  18.478 -0.0771 -0.2728 -0.0630
 3889TIP3    H135862   5.961   0.252  18.470  0.5940 -0.4613 -1.0320
 3889TIP3    H235863   5.924   0.398  18.447 -0.1521 -0.5426 -0.3882
 3890TIP3   OH235864   6.063   7.219  17.600 -0.6889 -0.2332  0.2433
 3890TIP3    H135865   5.985   7.212  17.544 -1.4969 -1.0492  1.4172
 3890TIP3    H235866   6.117   7.285  17.557 -0.4362 -2.0509 -2.4619
 3891TIP3   OH235867   3.179   0.394  18.097  0.5380  0.0124  0.4928
 3891TIP3    H135868   3.203   0.474  18.050 -1.7760  0.0663 -0.7112
 3891TIP3    H235869   3.152   0.333  18.029 -1.8688 -0.2897  1.6173
 3892TIP3   OH235870   1.619   0.472  17.224 -0.7196 -0.2683 -0.0326
 3892TIP3    H135871   1.537   0.429  17.246 -1.5900  0.6246 -1.3777
 3892TIP3    H235872   1.621   0.473  17.128 -0.9747  3.0147 -0.1060
 3893TIP3   OH235873   4.064   4.877  17.244 -0.1220 -0.0281  0.0122
 3893TIP3    H135874   3.997   4.896  17.311  1.7062 -0.9574  2.2348
 3893TIP3    H235875   4.054   4.948  17.180 -4.3543 -1.0787 -0.7883
 3894TIP3   OH235876   1.465   3.492  18.366 -0.5641  0.0319  0.3185
 3894TIP3    H135877   1.396   3.504  18.431  0.8498  2.5471  1.4985
 3894TIP3    H235878   1.466   3.575  18.318  0.8204 -0.4279 -0.4943
 3895TIP3   OH235879   3.770   2.371  17.785 -0.6142  0.4914 -0.5211
 3895TIP3    H135880   3.762   2.445  17.724 -2.3345  0.3801 -0.4861
 3895TIP3    H235881   3.695   2.315  17.763  0.8423 -1.4331 -0.7750
 3896TIP3   OH235882   4.463   7.581  17.681 -0.3764  0.2286  0.1752
 3896TIP3    H135883   4.399   7.515  17.655 -0.6997  0.5877  0.0542
 3896TIP3    H235884   4.412   7.647  17.728 -0.3287  1.1730 -1.0500
 3897TIP3   OH235885   0.213   7.182  17.686 -0.4794  0.3468  0.1647
 3897TIP3    H135886   0.196   7.262  17.736  0.1244  0.2763  0.4892
 3897TIP3    H235887   0.298   7.151  17.718  0.3471  0.7861 -1.5079
 3898TIP3   OH235888   6.046   6.308  16.934  0.7211 -1.1554  0.3784
 3898TIP3    H135889   6.100   6.232  16.915  0.5811 -1.5444  1.5056
 3898TIP3    H235890   6.024   6.300  17.026 -1.0593 -0.8722  0.0200
 3899TIP3   OH235891   7.303   2.116  18.003  0.0824 -0.5835  0.2064
 3899TIP3    H135892   7.258   2.041  17.965  0.6831 -1.4533  1.1643
 3899TIP3    H235893   7.391   2.114  17.966 -0.0032 -0.1235 -0.0399
 3900TIP3   OH235894   7.059   2.431  16.883  0.0555 -0.3815  0.0776
 3900TIP3    H135895   7.149   2.409  16.906  0.5938 -0.2884 -1.7822
 3900TIP3    H235896   7.066   2.481  16.802 -1.7237 -1.2023 -0.6427
 3901TIP3   OH235897   5.263   7.782  17.767  0.4434  0.4127 -0.0931
 3901TIP3    H135898   5.278   7.751  17.678  1.1611  3.0849 -1.0042
 3901TIP3    H235899   5.350   7.784  17.807  0.1836 -0.3355  0.5411
 3902TIP3   OH235900   4.238   5.527  17.925  0.1369  0.4017 -0.0332
 3902TIP3    H135901   4.237   5.442  17.881  1.8567  0.3270 -0.0147
 3902TIP3    H235902   4.325   5.531  17.966 -0.9611  0.9370  2.4292
 3903TIP3   OH235903   2.750   3.466  17.073  0.0520 -0.4678 -0.2286
 3903TIP3    H135904   2.833   3.515  17.075  0.3756 -0.9853 -0.6018
 3903TIP3    H235905   2.718   3.477  16.984 -0.1556 -0.4808 -0.1560
 3904TIP3   OH235906   3.039   6.626  17.465  0.4575  0.4392 -0.1274
 3904TIP3    H135907   3.106   6.694  17.470 -0.5563  1.5152 -0.7357
 3904TIP3    H235908   2.968   6.665  17.414 -0.5383 -0.7558  0.2815
 3905TIP3   OH235909   7.526   7.021  19.147 -0.5960  0.3146  0.1376
 3905TIP3    H135910   7.526   6.998  19.240  0.3124 -0.1987  0.0260
 3905TIP3    H235911   7.437   7.006  19.118 -0.7340 -0.1453  0.7765
 3906TIP3   OH235912   5.389   2.945  17.618 -0.3394 -0.5682 -0.1603
 3906TIP3    H135913   5.294   2.953  17.607 -0.3013 -0.4441 -0.3982
 3906TIP3    H235914   5.417   2.890  17.545 -0.1783 -0.2959 -0.3062
 3907TIP3   OH235915   4.624   7.758  17.200 -0.2855 -0.0134  0.2026
 3907TIP3    H135916   4.571   7.832  17.173 -1.8604 -0.8045  0.9802
 3907TIP3    H235917   4.695   7.753  17.135 -1.9847  0.1819 -1.7599
 3908TIP3   OH235918   3.385   2.646  17.416 -0.2720 -0.2636 -0.1590
 3908TIP3    H135919   3.354   2.719  17.469 -2.0278 -2.8241  2.7171
 3908TIP3    H235920   3.304   2.600  17.391  0.7566 -1.1424 -2.0909
 3909TIP3   OH235921   6.986   2.426  17.139 -0.5546 -0.2360 -0.1956
 3909TIP3    H135922   7.036   2.345  17.145  0.0392  0.1539  0.3696
 3909TIP3    H235923   6.983   2.446  17.046 -0.9222 -1.0321 -0.3651
 3910TIP3   OH235924   4.779   8.006  18.243 -0.0238 -0.1553  0.4680
 3910TIP3    H135925   4.840   7.942  18.280  1.9786  1.2559 -0.2000
 3910TIP3    H235926   4.763   7.975  18.154  0.2702 -0.2093  0.4306
 3911TIP3   OH235927   4.471   3.685  17.025 -0.0579 -0.0092 -0.0421
 3911TIP3    H135928   4.521   3.608  16.998 -0.0732  0.5676 -1.8689
 3911TIP3    H235929   4.384   3.651  17.046  0.1960 -0.6140  0.0482
 3912TIP3   OH235930   7.716   7.331  19.055  0.1874  0.0023 -0.5654
 3912TIP3    H135931   7.683   7.377  18.978 -0.7728 -2.0611 -1.4653
 3912TIP3    H235932   7.744   7.401  19.114 -1.0063  1.7159 -1.9019
 3913TIP3   OH235933   5.419   4.352  16.837 -0.3166 -0.0158 -0.3128
 3913TIP3    H135934   5.377   4.412  16.775  1.7261  0.4237 -1.3435
 3913TIP3    H235935   5.480   4.407  16.885 -0.4528 -0.7606  0.7308
 3914TIP3   OH235936   5.937   0.211  17.771 -0.4196 -0.1802 -0.0554
 3914TIP3    H135937   5.877   0.220  17.697 -1.1108 -1.5017  0.3126
 3914TIP3    H235938   5.891   0.254  17.844 -1.3218 -1.8782  0.4199
 3915TIP3   OH235939   8.447   3.531  18.964 -0.3255  0.3157  0.6922
 3915TIP3    H135940   8.458   3.611  19.015 -2.2954  1.4686 -0.5427
 3915TIP3    H235941   8.522   3.530  18.905 -0.0562  1.0179  1.0157
 3916TIP3   OH235942   3.835   6.227  17.234  0.8979 -0.0182 -0.3402
 3916TIP3    H135943   3.844   6.235  17.139 -2.9805  2.8471 -0.7134
 3916TIP3    H235944   3.855   6.314  17.268  1.0659 -0.6797  1.3575
 3917TIP3   OH235945   0.186   5.635  17.955 -0.2397 -0.8654 -0.3924
 3917TIP3    H135946   0.111   5.576  17.960 -1.0669  0.1791 -0.0483
 3917TIP3    H235947   0.165   5.695  17.884  0.8736 -1.3354 -1.1521
 3918TIP3   OH235948   6.736   3.263  16.898  0.4726 -0.3603  0.0317
 3918TIP3    H135949   6.645   3.234  16.910  0.3081 -0.3932 -1.2218
 3918TIP3    H235950   6.787   3.183  16.896  0.5931 -0.3281  1.0916
 3919TIP3   OH235951   2.848   0.703  18.754  0.4717 -0.0436  0.0525
 3919TIP3    H135952   2.895   0.713  18.837  1.0455  0.6095 -0.3399
 3919TIP3    H235953   2.810   0.615  18.759 -0.4278  0.3948  1.4678
 3920TIP3   OH235954   6.043   5.734  16.339  0.2517  0.6055 -0.1299
 3920TIP3    H135955   6.030   5.826  16.361  0.2184  0.7738 -0.8401
 3920TIP3    H235956   5.970   5.712  16.282 -0.3658 -0.1818  0.9335
 3921TIP3   OH235957   1.345   4.191  18.172 -0.5906  0.3220 -0.1122
 3921TIP3    H135958   1.347   4.145  18.256 -1.7453 -0.4763 -0.4974
 3921TIP3    H235959   1.384   4.129  18.110  1.9744  1.6021  0.1080
 3922TIP3   OH235960   0.583   7.687  17.123 -0.2735 -0.1271 -0.9507
 3922TIP3    H135961   0.539   7.607  17.150 -2.7276  0.7674 -2.0124
 3922TIP3    H235962   0.620   7.723  17.204 -1.1186 -1.1713 -0.0850
 3923TIP3   OH235963   5.706   6.717  17.388  0.0301 -0.1161 -0.1503
 3923TIP3    H135964   5.717   6.811  17.372  2.3123 -0.5281 -1.4329
 3923TIP3    H235965   5.754   6.701  17.469 -1.3832 -0.0339  0.7464
 3924TIP3   OH235966   1.814   3.324  17.796  0.5645 -0.5298  0.7053
 3924TIP3    H135967   1.848   3.258  17.736  0.2644  1.0498 -1.2856
 3924TIP3    H235968   1.738   3.282  17.837 -0.2770 -1.1018 -1.3121
 3925TIP3   OH235969   2.377   4.039  18.861 -0.2506 -0.7956  0.1483
 3925TIP3    H135970   2.417   4.074  18.941 -0.0741 -2.8659  1.0137
 3925TIP3    H235971   2.297   4.090  18.850  0.5804  0.6827  0.6575
 3926TIP3   OH235972   5.871   6.034  16.656 -0.5504  0.3278 -0.0136
 3926TIP3    H135973   5.861   5.976  16.732  1.8221 -0.2621 -0.0492
 3926TIP3    H235974   5.849   6.121  16.689  0.1004  0.0352  1.2924
 3927TIP3   OH235975   5.959   6.243  18.307 -0.2217  0.2136 -0.2981
 3927TIP3    H135976   5.986   6.311  18.369 -1.1555  0.1300  0.2187
 3927TIP3    H235977   6.004   6.266  18.225  1.2564  0.1672  0.4617
 3928TIP3   OH235978   3.014   2.023  17.358 -0.1442  0.9389 -0.2390
 3928TIP3    H135979   3.080   2.063  17.302 -0.0031  0.5882 -0.3232
 3928TIP3    H235980   2.939   2.007  17.300 -0.4189  1.6056 -0.0801
 3929TIP3   OH235981   2.299   6.777  17.585 -0.3716 -0.1135  0.1808
 3929TIP3    H135982   2.222   6.833  17.592 -0.7650 -0.5443 -0.5721
 3929TIP3    H235983   2.272   6.694  17.625  1.0542  0.9605  3.8444
 3930TIP3   OH235984   2.403   3.242  18.336 -0.0984  0.0474  0.1114
 3930TIP3    H135985   2.326   3.280  18.293  0.5965  0.9594 -0.3592
 3930TIP3    H235986   2.461   3.218  18.265  1.0160  1.4644  0.4976
 3931TIP3   OH235987   1.545   4.660  17.827  0.0487  0.4332  0.0794
 3931TIP3    H135988   1.516   4.676  17.918 -1.3676  0.5372 -0.3589
 3931TIP3    H235989   1.510   4.573  17.806  0.8338  0.1825 -0.1967
 3932TIP3   OH235990   0.186   7.739  16.661  0.4183 -0.0345 -0.0640
 3932TIP3    H135991   0.147   7.822  16.690  0.2801  0.3687 -1.3422
 3932TIP3    H235992   0.139   7.672  16.711 -2.0453  0.4205 -1.5782
 3933TIP3   OH235993   6.521   3.020  16.693  0.3232  0.1098 -0.0473
 3933TIP3    H135994   6.476   2.950  16.645  0.0567 -0.3330  0.8264
 3933TIP3    H235995   6.454   3.088  16.705 -0.5427 -1.0487  2.3013
 3934TIP3   OH235996   4.532   0.125  18.108  0.2325 -0.4921 -0.4845
 3934TIP3    H135997   4.587   0.051  18.132 -0.6818 -0.5461  1.6487
 3934TIP3    H235998   4.592   0.199  18.105  0.6945 -0.8211  0.2929
 3935TIP3   OH235999   3.931   4.620  17.608  0.0250 -0.2498  0.5502
 3935TIP3    H136000   3.987   4.632  17.532 -0.2375  0.0858  0.4089
 3935TIP3    H236001   3.970   4.546  17.655 -0.5782 -1.3474 -0.6114
 3936TIP3   OH236002   0.413   2.335  18.418  0.0204  0.0217 -0.4464
 3936TIP3    H136003   0.363   2.378  18.348  1.9799  2.9985 -0.2093
 3936TIP3    H236004   0.361   2.347  18.496  0.7449  2.6890 -0.2843
 3937TIP3   OH236005   0.950   5.785  17.342 -0.0754 -0.3400 -0.3062
 3937TIP3    H136006   0.863   5.789  17.381 -0.3982  1.7745 -1.1218
 3937TIP3    H236007   0.963   5.693  17.321 -1.7153 -0.8260  0.6870
 3938TIP3   OH236008   0.904   2.974  18.040  0.1946  0.0011 -0.2180
 3938TIP3    H136009   0.986   3.005  18.078 -0.0137 -1.0360  1.1558
 3938TIP3    H236010   0.872   2.909  18.102 -1.6113  0.2943 -0.7776
 3939TIP3   OH236011   7.628   3.888  18.865  0.1232 -0.2986 -0.6302
 3939TIP3    H136012   7.647   3.796  18.878  1.2943  0.1993  1.4515
 3939TIP3    H236013   7.590   3.918  18.948 -2.1477  0.6802 -1.9037
 3940TIP3   OH236014   7.155   7.629  18.506 -0.5890  0.6807  0.2457
 3940TIP3    H136015   7.071   7.639  18.550 -0.5700  0.7139  0.2750
 3940TIP3    H236016   7.150   7.688  18.430 -0.8822  0.1178 -0.1790
 3941TIP3   OH236017   6.907   1.173  17.812 -0.3706  0.1744  0.1242
 3941TIP3    H136018   6.986   1.197  17.764 -0.0483 -0.2855  0.4116
 3941TIP3    H236019   6.835   1.210  17.761  0.0046  0.2132 -0.3829
 3942TIP3   OH236020   2.236   2.912  16.788 -0.0869 -0.3113  0.5680
 3942TIP3    H136021   2.232   2.857  16.866  1.5297 -0.3727  0.6452
 3942TIP3    H236022   2.288   2.862  16.725  1.0642  0.9221  0.4860
 3943TIP3   OH236023   0.792   3.389  19.244 -0.2521  0.0574 -0.2633
 3943TIP3    H136024   0.739   3.416  19.169  0.2009  0.1543 -0.5489
 3943TIP3    H236025   0.745   3.314  19.280  0.3914 -1.0390 -1.6358
 3944TIP3   OH236026   5.647   6.217  17.042  0.4226 -0.4999 -0.0319
 3944TIP3    H136027   5.676   6.239  17.131  1.0046 -1.3962  0.0106
 3944TIP3    H236028   5.616   6.127  17.048 -0.9436 -0.0807 -0.4279
 3945TIP3   OH236029   1.043   2.542  17.698 -0.2102 -0.0566  0.0078
 3945TIP3    H136030   1.124   2.587  17.674 -0.3597 -0.0036 -0.4030
 3945TIP3    H236031   1.067   2.489  17.774  0.0556  0.4376  0.2757
 3946TIP3   OH236032   1.408   4.839  17.629 -0.1290 -0.1374 -0.3966
 3946TIP3    H136033   1.413   4.918  17.684 -0.0665 -0.9001  0.7177
 3946TIP3    H236034   1.455   4.772  17.679 -0.1864 -0.8894 -1.3279
 3947TIP3   OH236035   7.206   8.053  16.753  0.1190  0.0241 -0.2942
 3947TIP3    H136036   7.258   8.080  16.677  1.6098 -0.6838  0.4320
 3947TIP3    H236037   7.131   8.007  16.716 -0.1428  1.2784 -1.3802
 3948TIP3   OH236038   5.906   1.369  18.874 -0.4041 -0.2360  0.5096
 3948TIP3    H136039   5.973   1.424  18.833 -0.4931 -1.0909 -0.8497
 3948TIP3    H236040   5.832   1.372  18.813  0.1006 -2.9599 -0.4093
 3949TIP3   OH236041   5.449   5.454  17.873 -0.0727 -0.4752  0.1625
 3949TIP3    H136042   5.480   5.373  17.833 -0.1359 -1.3459  1.8079
 3949TIP3    H236043   5.361   5.466  17.837  0.1760 -0.7685 -0.5831
 3950TIP3   OH236044   5.746   0.728  17.458  0.4552 -0.7599 -0.2453
 3950TIP3    H136045   5.756   0.637  17.430  0.3996 -0.1106 -2.5390
 3950TIP3    H236046   5.662   0.755  17.420  1.2518  0.7285 -1.0100
 3951TIP3   OH236047   6.651   2.187  17.155 -0.0381 -0.0294 -0.1714
 3951TIP3    H136048   6.709   2.144  17.091  0.9072 -0.0581  0.6799
 3951TIP3    H236049   6.619   2.115  17.210 -1.4397 -0.1063 -1.0289
 3952TIP3   OH236050   5.718   2.858  18.155 -0.1022 -0.0567 -0.7458
 3952TIP3    H136051   5.796   2.871  18.209 -0.2797  0.2364 -0.5554
 3952TIP3    H236052   5.712   2.764  18.142  0.5333 -0.0512 -1.1292
 3953TIP3   OH236053   7.203   1.208  17.967  0.0628 -0.3120  0.0940
 3953TIP3    H136054   7.270   1.276  17.955 -0.5182 -0.0451 -1.9324
 3953TIP3    H236055   7.128   1.255  18.004  0.6454 -0.4551  1.5464
 3954TIP3   OH236056   4.422   6.913  17.851 -0.3315 -0.3327 -0.0297
 3954TIP3    H136057   4.392   6.957  17.930  0.6205 -0.7170  0.5541
 3954TIP3    H236058   4.491   6.970  17.816  0.1017 -0.7804  0.0920
 3955TIP3   OH236059   1.279   5.513  18.411  0.0187 -0.4331  0.2353
 3955TIP3    H136060   1.368   5.519  18.446 -0.3772  0.0506  1.2111
 3955TIP3    H236061   1.282   5.439  18.350  1.2887  0.1024 -0.3911
 3956TIP3   OH236062   0.373   4.204  17.493 -0.3106 -0.2077  0.4411
 3956TIP3    H136063   0.326   4.279  17.457 -0.0579  0.4149  1.3586
 3956TIP3    H236064   0.466   4.227  17.485 -0.0333 -1.8997 -2.3724
 3957TIP3   OH236065   1.796   6.536  17.565 -0.1112 -0.1414 -0.0843
 3957TIP3    H136066   1.858   6.585  17.510  2.4427  0.2348  2.8772
 3957TIP3    H236067   1.772   6.598  17.634 -0.1737 -1.7509  1.3869
 3958TIP3   OH236068   0.539   5.488  17.020  0.5872  0.2452 -0.2185
 3958TIP3    H136069   0.457   5.458  17.061  1.9929 -0.3956  2.3390
 3958TIP3    H236070   0.594   5.410  17.017  2.2870  1.3191  1.2749
 3959TIP3   OH236071   3.773   4.224  17.833  0.2163  0.6387  0.2596
 3959TIP3    H136072   3.756   4.297  17.892 -0.6569  1.1226 -0.5693
 3959TIP3    H236073   3.825   4.162  17.886  0.4777  1.5858  1.1459
 3960TIP3   OH236074   4.064   3.745  17.724 -0.0231  0.4216  0.1241
 3960TIP3    H136075   4.156   3.770  17.718  0.8254 -2.0333  1.3813
 3960TIP3    H236076   4.017   3.816  17.681  2.6285  0.3653 -3.3508
 3961TIP3   OH236077   5.220   2.495  18.439 -0.1533  0.8067 -0.0451
 3961TIP3    H136078   5.298   2.549  18.427 -1.1047  2.0310 -0.9315
 3961TIP3    H236079   5.171   2.538  18.509 -0.4865  0.5760 -0.1334
 3962TIP3   OH236080   6.610   7.320  17.582 -0.0933 -0.0604  0.4242
 3962TIP3    H136081   6.620   7.354  17.671 -1.8177  1.1653  0.2119
 3962TIP3    H236082   6.591   7.397  17.530 -1.0215 -0.9893 -0.6607
 3963TIP3   OH236083   6.477   5.001  18.672  0.1471 -0.0896  1.1059
 3963TIP3    H136084   6.465   4.908  18.691 -1.3216 -0.5215 -1.4079
 3963TIP3    H236085   6.391   5.040  18.687 -0.6362 -0.1605 -2.3272
 3964TIP3   OH236086   0.052   4.678  19.312  0.2697  0.3224  0.4384
 3964TIP3    H136087   0.081   4.701  19.401  1.1222 -0.3572  0.3470
 3964TIP3    H236088   0.133   4.658  19.265 -0.1085  1.4133 -0.7169
 3965TIP3   OH236089   8.264   4.535  19.326 -0.3765 -0.0267 -0.2423
 3965TIP3    H136090   8.315   4.467  19.280 -0.2601  0.3704 -0.7013
 3965TIP3    H236091   8.326   4.606  19.339 -0.6737  0.2446 -0.3147
 3966TIP3   OH236092   0.010   5.798  19.096  0.4160 -0.0275 -0.6183
 3966TIP3    H136093  -0.018   5.833  19.012  1.8343  0.5236 -0.8889
 3966TIP3    H236094  -0.051   5.727  19.114 -0.8396  0.8255 -1.3752
 3967TIP3   OH236095   1.980   4.848  18.627  0.1644  0.6738  0.0311
 3967TIP3    H136096   2.043   4.778  18.612 -0.3834  0.4649 -1.3980
 3967TIP3    H236097   1.894   4.805  18.625 -0.1466  1.2988 -0.3281
 3968TIP3   OH236098   2.897   7.794  18.372  0.3611 -0.1509  0.4658
 3968TIP3    H136099   2.932   7.804  18.460  0.0755  2.9737  0.3289
 3968TIP3    H236100   2.819   7.851  18.370  1.4904  1.5258 -2.3077
 3969TIP3   OH236101   1.006   0.128  17.342 -0.3043 -0.1606 -0.3144
 3969TIP3    H136102   1.008   0.216  17.304 -0.6684 -0.1029 -0.1959
 3969TIP3    H236103   0.956   0.138  17.423  0.4846 -0.2778  0.1979
 3970TIP3   OH236104   3.535   3.214  17.789 -0.2697  0.3109 -0.1212
 3970TIP3    H136105   3.474   3.179  17.853 -0.6145 -0.5426 -0.8753
 3970TIP3    H236106   3.494   3.194  17.704  1.2557 -0.7634 -0.6674
 3971TIP3   OH236107   4.599   5.757  17.207 -0.7285 -0.5221  0.2373
 3971TIP3    H136108   4.664   5.816  17.245 -2.4243  0.7583  1.3306
 3971TIP3    H236109   4.515   5.794  17.235 -2.1278 -0.1230 -3.8434
 3972TIP3   OH236110   4.031   6.977  16.837 -0.3030 -0.7246  0.4069
 3972TIP3    H136111   3.973   7.015  16.771 -0.5712  1.7691  1.9425
 3972TIP3    H236112   4.113   7.026  16.826  0.1700 -1.3939  0.8919
 3973TIP3   OH236113   0.177   8.014  18.610 -0.1221 -0.3224  0.4598
 3973TIP3    H136114   0.182   8.109  18.604  0.6098 -0.4425 -1.8564
 3973TIP3    H236115   0.259   7.988  18.652 -0.2870  0.0576  1.0202
 3974TIP3   OH236116   4.542   3.837  18.658  0.4750 -0.5889 -0.4847
 3974TIP3    H136117   4.586   3.912  18.700 -0.4877 -0.2873  0.0138
 3974TIP3    H236118   4.454   3.837  18.696  0.1091 -1.3066 -1.3132
 3975TIP3   OH236119   0.014   3.155  17.639  0.7386  0.2336 -0.0938
 3975TIP3    H136120  -0.070   3.114  17.619 -0.0511  1.4481  0.5286
 3975TIP3    H236121   0.014   3.236  17.587  1.2618  0.5219  0.3393
 3976TIP3   OH236122   8.199   6.698  18.342  0.0903 -0.3323  0.0124
 3976TIP3    H136123   8.294   6.701  18.342  0.1397 -1.0247 -1.2862
 3976TIP3    H236124   8.172   6.787  18.366  1.0404 -0.1953  0.6392
 3977TIP3   OH236125   8.427   0.542  18.290  0.0179 -0.5482 -0.0835
 3977TIP3    H136126   8.478   0.556  18.370  0.3583  0.1250 -0.4141
 3977TIP3    H236127   8.412   0.629  18.256 -2.2469 -0.6367  0.5406
 3978TIP3   OH236128   6.185   7.502  18.074  0.2688 -0.2910  0.5049
 3978TIP3    H136129   6.270   7.540  18.097 -0.2394  1.1991  0.0108
 3978TIP3    H236130   6.159   7.547  17.994 -0.3466 -1.7603 -0.1718
 3979TIP3   OH236131   3.793   4.915  17.659 -0.3681 -0.2075  0.2050
 3979TIP3    H136132   3.822   4.885  17.745 -0.4138 -3.9628 -0.8685
 3979TIP3    H236133   3.697   4.916  17.665 -0.4041 -1.2265  0.0514
 3980TIP3   OH236134   8.250   0.198  16.754 -0.3228  0.8925  0.3358
 3980TIP3    H136135   8.294   0.157  16.828  1.4047 -0.6724 -1.4481
 3980TIP3    H236136   8.173   0.143  16.739  0.2985  0.1319 -0.1215
 3981TIP3   OH236137   7.518   6.426  16.957  0.2193 -0.2630 -0.0046
 3981TIP3    H136138   7.475   6.447  16.874  0.3098 -0.8326 -0.1983
 3981TIP3    H236139   7.611   6.424  16.935  0.2446 -0.3831  0.1157
 3982TIP3   OH236140   1.436   6.060  18.045  0.0137 -0.1687  0.1857
 3982TIP3    H136141   1.520   6.076  18.002  0.3407 -0.6979  0.6303
 3982TIP3    H236142   1.375   6.045  17.973 -0.2938  2.7500 -0.3161
 3983TIP3   OH236143   7.470   6.327  17.434 -0.0493 -0.2462  0.5882
 3983TIP3    H136144   7.407   6.266  17.474 -1.0089 -0.0342 -0.5353
 3983TIP3    H236145   7.430   6.413  17.447  1.1994  0.1560  1.9844
 3984TIP3   OH236146   2.987   2.420  17.678  0.5588 -0.0994  0.5284
 3984TIP3    H136147   3.079   2.410  17.703  0.8852  0.9968 -0.1784
 3984TIP3    H236148   2.990   2.465  17.594 -0.5819 -1.5844 -0.3573
 3985TIP3   OH236149   4.946   3.876  19.163 -0.5529 -0.0222 -0.1217
 3985TIP3    H136150   4.940   3.951  19.222  0.6749 -0.3615  0.4585
 3985TIP3    H236151   4.898   3.903  19.084 -2.7068  0.2404  1.1902
 3986TIP3   OH236152   3.002   3.775  18.903  0.1046 -0.4462  0.0498
 3986TIP3    H136153   3.039   3.747  18.819  3.5552 -1.0967  1.5954
 3986TIP3    H236154   2.966   3.862  18.886  2.4827  0.2891 -1.7373
 3987TIP3   OH236155   4.765   5.922  17.294  0.1440 -0.4137  0.1762
 3987TIP3    H136156   4.841   5.864  17.284  0.5365  0.4491 -3.0524
 3987TIP3    H236157   4.786   5.975  17.371  0.6223 -3.2079  2.1129
 3988TIP3   OH236158   7.057   7.152  17.054  0.2516  0.3536 -0.4184
 3988TIP3    H136159   6.972   7.111  17.069  0.0321  0.8701 -0.2075
 3988TIP3    H236160   7.051   7.189  16.966 -1.1652  3.6773  0.9226
 3989TIP3   OH236161   0.400   1.348  18.020  0.3538  0.1151  0.0799
 3989TIP3    H136162   0.463   1.407  17.977  2.8694 -1.4179  1.3988
 3989TIP3    H236163   0.425   1.351  18.112 -0.4451 -1.8382  0.4007
 3990TIP3   OH236164   5.919   0.112  16.429 -0.2081 -0.0018 -0.1860
 3990TIP3    H136165   5.892   0.187  16.376 -1.5467 -1.0408 -1.0201
 3990TIP3    H236166   5.868   0.039  16.396  1.1899 -1.3461  0.4927
 3991TIP3   OH236167   6.851   4.725  16.608 -0.3860 -0.3219 -0.0521
 3991TIP3    H136168   6.918   4.706  16.542  0.1886 -1.7191  0.8837
 3991TIP3    H236169   6.772   4.681  16.576 -0.6610  0.6273 -0.7377
 3992TIP3   OH236170   7.659   6.295  17.705  0.5532  0.0818 -0.2495
 3992TIP3    H136171   7.718   6.308  17.630  0.7315 -0.2971 -0.1753
 3992TIP3    H236172   7.591   6.362  17.694  1.9063  1.6879  0.5627
 3993TIP3   OH236173   0.629   2.314  17.877 -0.3628  0.4288 -0.1544
 3993TIP3    H136174   0.665   2.403  17.870 -0.6483  0.5478 -0.1266
 3993TIP3    H236175   0.601   2.292  17.788  0.7091 -0.0652 -0.3832
 3994TIP3   OH236176   8.172   5.998  18.539  0.1767  0.2503 -0.3926
 3994TIP3    H136177   8.222   6.035  18.466  0.3297  1.8146  0.4657
 3994TIP3    H236178   8.118   5.930  18.499 -0.7772  1.9897 -2.2176
 3995TIP3   OH236179   0.911   6.109  18.847 -0.1638 -0.7538  0.0308
 3995TIP3    H136180   0.985   6.062  18.885  1.3985  1.2334 -0.3866
 3995TIP3    H236181   0.947   6.193  18.818 -2.1057 -0.5495 -2.1822
 3996TIP3   OH236182   2.275   7.728  18.136 -1.0696  0.3037 -0.0056
 3996TIP3    H136183   2.226   7.770  18.066  1.2540  2.1087 -0.6815
 3996TIP3    H236184   2.342   7.676  18.090  1.7943  3.0938  0.6552
 3997TIP3   OH236185   0.607   6.623  17.186 -0.1956 -0.2901  0.0477
 3997TIP3    H136186   0.565   6.705  17.212  1.1121  0.1079  1.0346
 3997TIP3    H236187   0.563   6.597  17.105 -0.9673  1.1151 -0.0068
 3998TIP3   OH236188   6.144   5.910  18.820  0.5104 -0.0465 -0.0973
 3998TIP3    H136189   6.182   5.936  18.737  2.2931 -0.1829  0.6287
 3998TIP3    H236190   6.157   5.985  18.878 -1.3230  0.3064 -0.1072
 3999TIP3   OH236191   6.798   8.152  18.119  0.3287 -0.2852 -0.8850
 3999TIP3    H136192   6.877   8.101  18.105  0.5388  0.1226 -1.2135
 3999TIP3    H236193   6.819   8.239  18.085 -0.2126 -0.1345 -0.8506
 4000TIP3   OH236194   5.577   2.796  17.076  0.1624  0.2791  0.4477
 4000TIP3    H136195   5.604   2.856  17.007  0.0720  2.3021  2.0546
 4000TIP3    H236196   5.658   2.773  17.121  0.4184 -2.1927 -1.1033
 4001TIP3   OH236197   1.126   6.449  17.792 -0.0703  0.1743  0.3579
 4001TIP3    H136198   1.072   6.372  17.809  0.7486 -0.4283  0.2519
 4001TIP3    H236199   1.180   6.459  17.871 -0.8071  1.1941  0.7618
 4002TIP3   OH236200   0.875   4.872  19.121 -0.3409 -0.1362  0.0386
 4002TIP3    H136201   0.818   4.834  19.054 -0.9732 -0.0131  0.4910
 4002TIP3    H236202   0.849   4.964  19.125  1.5733  0.5189 -1.4581
 4003TIP3   OH236203   0.727   4.285  18.394 -0.3617 -0.4176 -0.3553
 4003TIP3    H136204   0.662   4.350  18.369  0.9773  1.6748  1.2712
 4003TIP3    H236205   0.691   4.243  18.472  0.3055  1.0064  0.7725
 4004TIP3   OH236206   7.815   7.198  16.605 -0.1816 -0.0414 -0.5949
 4004TIP3    H136207   7.841   7.122  16.554  0.0784  0.2772 -0.9460
 4004TIP3    H236208   7.753   7.164  16.670  0.5531 -0.6966 -0.2125
 4005TIP3   OH236209   2.339   2.020  17.313 -0.5460  0.4790  0.0733
 4005TIP3    H136210   2.430   2.038  17.288  0.0966 -0.5042  1.5807
 4005TIP3    H236211   2.288   2.088  17.268  1.1364  2.2798  0.7310
 4006TIP3   OH236212   1.625   6.451  18.438 -0.1603 -0.6635  0.1906
 4006TIP3    H136213   1.683   6.525  18.419  0.3835 -1.1904 -0.2422
 4006TIP3    H236214   1.683   6.375  18.440 -1.1080 -1.5813 -2.6918
 4007TIP3   OH236215   3.327   2.267  18.510  0.5775 -0.2219  0.2521
 4007TIP3    H136216   3.415   2.303  18.525  0.2609  0.7765 -0.2382
 4007TIP3    H236217   3.268   2.338  18.533 -0.0795 -0.5515 -0.3927
 4008TIP3   OH236218   4.368   5.445  18.967 -0.3010  0.3043  0.7217
 4008TIP3    H136219   4.276   5.451  18.995 -0.0404 -0.4612  1.7914
 4008TIP3    H236220   4.385   5.530  18.926 -2.1106 -0.3067 -1.4963
 4009TIP3   OH236221   4.256   5.491  18.661  0.3524 -0.0841  0.1746
 4009TIP3    H136222   4.253   5.579  18.699 -0.1133  0.0734 -0.2208
 4009TIP3    H236223   4.168   5.476  18.627  0.2331 -0.9630  0.8178
 4010TIP3   OH236224   2.994   7.805  18.602 -0.1363  0.4157  0.3440
 4010TIP3    H136225   2.950   7.882  18.638 -1.3915 -0.1108 -0.0090
 4010TIP3    H236226   2.997   7.742  18.674  0.7156  0.7209  0.5781
 4011TIP3   OH236227   4.329   2.838  17.661  0.2550 -0.0459  0.6042
 4011TIP3    H136228   4.362   2.908  17.605  1.0106 -0.2754  0.7563
 4011TIP3    H236229   4.405   2.783  17.679 -0.1415 -0.4117  1.2165
 4012TIP3   OH236230   3.330   3.925  17.107 -0.1477 -0.0611  0.0702
 4012TIP3    H136231   3.299   3.835  17.108  1.1746 -0.6019  2.8926
 4012TIP3    H236232   3.277   3.970  17.172  0.5793  0.6611  0.1867
 4013TIP3   OH236233   2.269   6.021  17.757  0.4866  0.5054 -0.1085
 4013TIP3    H136234   2.281   5.982  17.844  0.2445 -0.6363 -0.5580
 4013TIP3    H236235   2.346   5.992  17.708 -0.5015 -0.8205 -0.9297
 4014TIP3   OH236236   3.330   2.325  18.903 -0.0026  0.5178 -0.1420
 4014TIP3    H136237   3.284   2.251  18.865 -0.8330  0.7505  0.3684
 4014TIP3    H236238   3.420   2.318  18.871 -0.7740  1.0780 -2.6792
 4015TIP3   OH236239   0.127   4.136  18.401 -0.7235  0.7125 -0.9913
 4015TIP3    H136240   0.067   4.208  18.381  0.8271  1.5954 -2.8027
 4015TIP3    H236241   0.186   4.132  18.326 -0.2030 -1.9194 -0.5481
 4016TIP3   OH236242   3.555   2.272  18.748  0.3785  0.4300 -0.5228
 4016TIP3    H136243   3.604   2.190  18.735  3.2503  1.6979  1.3373
 4016TIP3    H236244   3.587   2.330  18.679  4.1689  2.2696  2.4564
 4017TIP3   OH236245   6.740   5.472  16.373 -0.4364  0.7851 -0.2708
 4017TIP3    H136246   6.811   5.511  16.323 -1.7677  0.4264 -2.5979
 4017TIP3    H236247   6.710   5.399  16.319 -0.1281 -1.5145  2.4380
 4018TIP3   OH236248   7.824   4.497  19.093 -0.5403 -0.4745  0.2322
 4018TIP3    H136249   7.802   4.509  19.185  0.7389  1.4333  0.3547
 4018TIP3    H236250   7.919   4.509  19.089 -0.1875 -3.0711 -1.0094
 4019TIP3   OH236251   1.928   4.463  18.477 -0.2571 -0.4306  0.1398
 4019TIP3    H136252   1.845   4.509  18.465 -1.1261 -1.9061  0.2746
 4019TIP3    H236253   1.925   4.391  18.414  0.8731 -0.6048  0.2559
 4020TIP3   OH236254   1.856   8.153  18.820  0.2695 -0.3571 -0.1704
 4020TIP3    H136255   1.889   8.238  18.791  2.9759 -0.9144  0.9544
 4020TIP3    H236256   1.814   8.171  18.904 -0.6056  0.0951 -0.6987
 4021TIP3   OH236257   0.039   6.585  18.355 -0.8862  0.4214 -0.6173
 4021TIP3    H136258   0.099   6.612  18.285  0.1225  3.2228  1.1754
 4021TIP3    H236259   0.091   6.590  18.435 -2.2452 -1.8334  0.4878
 4022TIP3   OH236260   7.127   0.300  18.905  0.0738  0.1769  0.2815
 4022TIP3    H136261   7.156   0.388  18.882 -1.2686  0.6390  0.2380
 4022TIP3    H236262   7.189   0.270  18.971  1.3918  0.5741 -0.7433
 4023TIP3   OH236263   4.985   1.357  18.172  0.4551  0.1152 -0.7290
 4023TIP3    H136264   4.891   1.353  18.184  0.6332  0.4594  1.0892
 4023TIP3    H236265   4.997   1.390  18.083 -1.2005  3.7948  0.2391
 4024TIP3   OH236266   3.659   3.760  18.147  0.1454 -0.4249  0.6029
 4024TIP3    H136267   3.620   3.842  18.118 -0.7355 -1.2246 -0.5893
 4024TIP3    H236268   3.594   3.693  18.125  0.5449 -1.3887  2.1585
 4025TIP3   OH236269   1.252   7.194  16.857 -0.5582  0.3740 -0.4015
 4025TIP3    H136270   1.176   7.247  16.883  0.1531  2.8830 -2.9535
 4025TIP3    H236271   1.262   7.211  16.763  2.3240 -0.9857 -0.4442
 4026TIP3   OH236272   8.255   4.895  16.932 -0.3300 -0.6732 -0.4109
 4026TIP3    H136273   8.263   4.986  16.903  0.3581 -0.0831  1.4858
 4026TIP3    H236274   8.337   4.854  16.905  1.0029  0.2814  1.9317
 4027TIP3   OH236275   4.255   2.701  17.953 -0.0144 -0.7612 -0.0114
 4027TIP3    H136276   4.178   2.652  17.922 -0.2014 -0.1707 -0.5013
 4027TIP3    H236277   4.288   2.745  17.875  0.2568 -0.2437  0.3914
 4028TIP3   OH236278   0.531   4.919  19.312 -0.1274  0.4413 -0.9357
 4028TIP3    H136279   0.602   4.981  19.296  2.4260 -2.2185 -0.9593
 4028TIP3    H236280   0.574   4.833  19.310 -3.0194 -1.2386  1.2527
 4029TIP3   OH236281   2.368   7.018  18.000  0.2728 -0.0991  0.2079
 4029TIP3    H136282   2.294   7.043  17.945 -0.0393 -2.5116 -0.6268
 4029TIP3    H236283   2.329   6.994  18.084 -0.0792 -1.9414 -0.4131
 4030TIP3   OH236284   3.940   1.767  18.816  0.6706 -0.2281  0.4731
 4030TIP3    H136285   4.029   1.776  18.781  1.3475 -0.2158  2.0902
 4030TIP3    H236286   3.912   1.857  18.833 -0.8101  0.0180 -2.5736
 4031TIP3   OH236287   3.840   4.979  17.391  0.4038 -0.1693  0.1970
 4031TIP3    H136288   3.886   5.062  17.387  0.4860 -0.2571 -0.8751
 4031TIP3    H236289   3.811   4.972  17.482  1.5543  0.3914  0.6226
 4032TIP3   OH236290   2.367   3.450  17.977 -0.1790  0.1315  0.0954
 4032TIP3    H136291   2.328   3.437  18.063  0.7450 -1.1742  0.3496
 4032TIP3    H236292   2.431   3.520  17.989 -0.8117  0.6881  0.2141
 4033TIP3   OH236293   5.135   0.090  17.754 -0.3610 -0.0395 -0.6586
 4033TIP3    H136294   5.133   0.159  17.688  0.0284 -1.2685 -1.9963
 4033TIP3    H236295   5.203   0.029  17.724  0.9116  0.0840  1.6424
 4034TIP3   OH236296   0.574   4.169  18.592  0.0899  0.5387  0.0355
 4034TIP3    H136297   0.536   4.082  18.588 -0.2383  0.7451 -1.9183
 4034TIP3    H236298   0.503   4.225  18.623 -0.1748  0.3688 -0.2593
 4035TIP3   OH236299   4.051   6.076  18.476 -0.1754 -0.4584 -0.4450
 4035TIP3    H136300   3.980   6.138  18.487  2.2712  2.1711  2.6065
 4035TIP3    H236301   4.090   6.098  18.391 -0.4656  0.9697 -0.2177
 4036TIP3   OH236302   0.372   7.908  18.169 -0.3559  0.4008  0.6881
 4036TIP3    H136303   0.337   7.889  18.256 -0.0364 -1.4611  0.4518
 4036TIP3    H236304   0.462   7.875  18.172 -0.7365 -0.8729 -0.7153
 4037TIP3   OH236305   2.151   5.702  17.778  0.0855 -0.1127  0.3821
 4037TIP3    H136306   2.242   5.677  17.762 -0.0715 -0.7854  0.4984
 4037TIP3    H236307   2.143   5.789  17.739  0.3778 -0.6790 -1.0182
 4038TIP3   OH236308   5.817   7.616  18.626 -0.2090 -0.5451 -0.1536
 4038TIP3    H136309   5.828   7.673  18.550  1.0077 -0.9604 -0.3220
 4038TIP3    H236310   5.873   7.656  18.693 -1.3170 -0.1493  0.5516
 4039TIP3   OH236311   6.440   2.020  18.321  0.8176 -0.2672  0.0982
 4039TIP3    H136312   6.415   2.022  18.414  0.5609  0.0945  0.0211
 4039TIP3    H236313   6.499   1.945  18.315  1.3834  0.1161  0.6951
 4040TIP3   OH236314   4.909   1.646  18.824 -0.2432 -0.0185  0.0060
 4040TIP3    H136315   4.870   1.599  18.898 -2.3302  1.4942 -0.0318
 4040TIP3    H236316   4.997   1.668  18.854 -0.9351  0.3312  1.9647
 4041TIP3   OH236317   0.361   0.113  16.721 -0.0531 -0.7032 -0.3938
 4041TIP3    H136318   0.350   0.199  16.762  2.0292 -0.2707 -0.6466
 4041TIP3    H236319   0.314   0.053  16.779 -2.5148  0.6901 -0.8060
 4042TIP3   OH236320   8.317   5.652  17.264 -0.3509  0.6050 -0.5907
 4042TIP3    H136321   8.291   5.601  17.187  0.7537  2.0998 -2.0070
 4042TIP3    H236322   8.293   5.596  17.338  3.6431 -3.5455 -1.9718
 4043TIP3   OH236323   0.548   5.736  18.992  0.0405  0.5317 -0.1991
 4043TIP3    H136324   0.462   5.769  19.016 -0.4714 -0.5404 -0.4991
 4043TIP3    H236325   0.593   5.812  18.955 -1.1485  0.8772 -0.9990
 4044TIP3   OH236326   2.141   6.195  18.002  0.1638  0.1614  0.0708
 4044TIP3    H136327   2.172   6.109  18.033  1.0967  0.6198  0.4731
 4044TIP3    H236328   2.101   6.235  18.079 -0.2188  0.1109 -0.1018
 4045TIP3   OH236329   5.805   8.290  18.056 -0.3343 -0.2646 -0.2135
 4045TIP3    H136330   5.725   8.238  18.065  1.2375 -2.9042 -0.4600
 4045TIP3    H236331   5.804   8.320  17.965 -0.4284 -1.4305 -0.6167
 4046TIP3   OH236332   4.457   4.591  19.034 -0.4573  0.7040 -0.1185
 4046TIP3    H136333   4.421   4.623  19.116 -0.4421 -0.3496  0.3083
 4046TIP3    H236334   4.383   4.594  18.973 -1.0043 -0.4375  0.4745
 4047TIP3   OH236335   6.510   6.181  17.335 -0.8887 -0.2030  0.1280
 4047TIP3    H136336   6.605   6.168  17.334 -0.8274 -0.6592  3.3319
 4047TIP3    H236337   6.499   6.276  17.331 -0.3880 -0.1759 -1.2059
 4048TIP3   OH236338   0.321   4.151  17.779 -0.1901  0.1883 -0.4089
 4048TIP3    H136339   0.346   4.129  17.689 -1.8561  0.7070 -1.0321
 4048TIP3    H236340   0.292   4.068  17.817 -0.0705  0.0797 -0.5551
 4049TIP3   OH236341   6.711   6.508  18.282 -0.0395 -0.0167 -0.0899
 4049TIP3    H136342   6.718   6.491  18.188  0.1722 -0.2174 -0.0381
 4049TIP3    H236343   6.631   6.560  18.290  0.2450  0.4773 -0.4363
 4050TIP3   OH236344   7.258   5.679  17.168 -0.6246  0.2044  0.2039
 4050TIP3    H136345   7.274   5.589  17.193 -0.2207  0.1361 -0.2791
 4050TIP3    H236346   7.270   5.730  17.248  4.3384  0.4699 -0.4003
 4051TIP3   OH236347   1.184   6.682  18.321 -0.6885  0.6273  0.2381
 4051TIP3    H136348   1.123   6.674  18.394 -0.0979 -2.4664  0.5428
 4051TIP3    H236349   1.145   6.630  18.250 -0.0434  1.4708 -0.7682
 4052TIP3   OH236350   5.427   5.194  17.785 -0.0729  0.3623  0.1324
 4052TIP3    H136351   5.454   5.154  17.868 -0.5365 -1.3880 -0.5167
 4052TIP3    H236352   5.332   5.187  17.785 -0.0061 -0.9489 -1.1250
 4053TIP3   OH236353   8.431   7.474  18.135  0.1961 -0.5191 -0.2626
 4053TIP3    H136354   8.399   7.486  18.224 -0.0048 -4.1056  0.2927
 4053TIP3    H236355   8.522   7.501  18.138  0.1355 -0.3950  0.9490
 4054TIP3   OH236356   5.450   4.867  18.707 -0.1150  0.1978 -0.2516
 4054TIP3    H136357   5.498   4.815  18.643  0.9418 -0.8276  1.2957
 4054TIP3    H236358   5.436   4.951  18.664 -1.8389 -1.2714 -2.8284
 4055TIP3   OH236359   0.353   6.608  18.782  0.4649 -0.8026 -0.2279
 4055TIP3    H136360   0.313   6.595  18.868  0.0795 -1.0979 -0.4453
 4055TIP3    H236361   0.440   6.643  18.800  0.0273  0.0666  0.2602
 4056TIP3   OH236362   4.605   4.994  18.254 -0.5336 -0.0553 -0.0407
 4056TIP3    H136363   4.517   4.997  18.292 -1.0906 -1.0256 -1.1727
 4056TIP3    H236364   4.591   4.962  18.165  1.1504 -2.4693  0.4673
 4057TIP3   OH236365   7.370   8.303  18.298 -0.0535 -0.5618  0.2161
 4057TIP3    H136366   7.370   8.213  18.332  0.7346 -0.4321  0.5854
 4057TIP3    H236367   7.316   8.299  18.219 -1.4913 -0.9933  1.1794
 4058TIP3   OH236368   5.640   5.560  16.381  0.0221 -0.2431  0.0581
 4058TIP3    H136369   5.660   5.611  16.459  0.7658  0.2298 -0.4275
 4058TIP3    H236370   5.655   5.621  16.308 -0.3246 -0.7767 -0.4692
 4059TIP3   OH236371   2.398   0.232  17.058 -0.0578 -0.3454 -0.0755
 4059TIP3    H136372   2.352   0.309  17.025 -1.1396 -1.0948 -0.3747
 4059TIP3    H236373   2.484   0.235  17.017 -0.1277  0.6331 -0.1681
 4060TIP3   OH236374   2.292   5.048  17.485  0.1906 -0.0963 -0.0679
 4060TIP3    H136375   2.368   5.002  17.522  0.8973  1.7058  0.8556
 4060TIP3    H236376   2.312   5.141  17.499 -1.1612  0.5152 -1.8740
 4061TIP3   OH236377   4.082   6.813  18.858 -0.5727  0.4081 -0.3115
 4061TIP3    H136378   4.008   6.873  18.856 -0.2963  0.7999  0.7923
 4061TIP3    H236379   4.112   6.814  18.949  0.3670 -0.2566 -0.5978
 4062TIP3   OH236380   7.439   0.830  18.417  0.0213 -0.5931 -0.1779
 4062TIP3    H136381   7.502   0.883  18.367 -1.5051  0.9843 -0.5303
 4062TIP3    H236382   7.419   0.884  18.493  0.1355 -1.7138  0.6695
 4063TIP3   OH236383   1.327   0.580  18.129 -0.0356  0.0961 -0.4061
 4063TIP3    H136384   1.247   0.535  18.102 -0.0337  0.6221 -1.3387
 4063TIP3    H236385   1.370   0.519  18.188 -1.0377 -0.2676 -0.0320
 4064TIP3   OH236386   4.746   3.508  16.476  0.1244 -0.0657  0.1366
 4064TIP3    H136387   4.747   3.602  16.489  1.7070 -0.3590  2.7512
 4064TIP3    H236388   4.825   3.490  16.424  0.1011  0.0064  0.0771
 4065TIP3   OH236389   0.782   0.649  18.094 -0.5336  0.6992 -0.4654
 4065TIP3    H136390   0.773   0.676  18.003  3.4299  2.1972 -0.6422
 4065TIP3    H236391   0.865   0.601  18.097 -0.6333  0.5130  2.3185
 4066TIP3   OH236392   5.105   5.609  19.119  0.3265 -0.2017 -0.0643
 4066TIP3    H136393   5.027   5.580  19.072 -1.0870  1.1750  1.2804
 4066TIP3    H236394   5.168   5.537  19.108 -1.3556 -1.6710 -0.6421
 4067TIP3   OH236395   2.532   7.041  16.776  0.3692 -0.0440 -0.2499
 4067TIP3    H136396   2.573   7.094  16.844 -1.1305  1.6735 -0.6298
 4067TIP3    H236397   2.565   7.076  16.694  1.9692 -1.9417 -0.4928
 4068TIP3   OH236398   5.869   6.647  16.570 -0.2591 -0.3424  0.7078
 4068TIP3    H136399   5.913   6.602  16.643 -2.3055 -1.2344  1.4866
 4068TIP3    H236400   5.782   6.607  16.567  0.0505 -1.0627 -2.9093
 4069TIP3   OH236401   7.298   1.984  18.295 -0.3738  0.8135  0.0490
 4069TIP3    H136402   7.300   2.061  18.237  0.2181  1.1378  0.4856
 4069TIP3    H236403   7.323   2.019  18.381 -1.6217  0.4058  0.5896
 4070TIP3   OH236404   0.728   8.047  16.884  0.2861 -0.1922 -0.4691
 4070TIP3    H136405   0.817   8.077  16.902  1.1203 -1.1355 -2.6884
 4070TIP3    H236406   0.729   8.022  16.792 -2.2050 -0.5495 -0.4644
 4071TIP3   OH236407   3.078   1.078  17.247 -0.1032 -0.4804  0.3955
 4071TIP3    H136408   3.071   1.062  17.341 -0.5260  0.7017  0.5815
 4071TIP3    H236409   2.988   1.090  17.218  0.1441  1.5379  0.3109
 4072TIP3   OH236410   5.006   5.585  18.423 -0.3731 -0.4089  0.2492
 4072TIP3    H136411   4.927   5.546  18.462 -0.3022  0.4070  1.2477
 4072TIP3    H236412   5.076   5.522  18.443 -0.4387 -0.2598  0.9879
 4073TIP3   OH236413   0.302   2.353  17.584 -0.2083 -0.2931  0.1861
 4073TIP3    H136414   0.380   2.394  17.547 -0.2857 -0.5257 -0.2334
 4073TIP3    H236415   0.246   2.334  17.509 -0.2456 -1.0174  0.3889
 4074TIP3   OH236416   7.775   4.584  18.145 -0.3664 -0.1724 -0.2215
 4074TIP3    H136417   7.791   4.678  18.152 -0.5914 -0.1204 -0.3693
 4074TIP3    H236418   7.721   4.563  18.222  1.0330 -0.5001  0.7201
 4075TIP3   OH236419   1.347   3.903  17.047 -0.3789 -0.6652 -0.0393
 4075TIP3    H136420   1.424   3.855  17.017 -0.8157 -0.0614 -2.2920
 4075TIP3    H236421   1.373   3.995  17.044 -1.1159 -0.4661 -0.6329
 4076TIP3   OH236422   4.261   8.230  18.463 -0.0744 -0.2581  0.0745
 4076TIP3    H136423   4.264   8.191  18.376  1.1669 -0.1232  0.0510
 4076TIP3    H236424   4.215   8.313  18.451 -2.6174 -1.5603  0.0961
 4077TIP3   OH236425   7.483   6.551  18.058 -0.1403 -0.8299 -0.2529
 4077TIP3    H136426   7.453   6.612  17.990 -1.1887 -1.0492 -0.0060
 4077TIP3    H236427   7.457   6.465  18.025 -0.6621 -0.9358  0.4243
 4078TIP3   OH236428   1.773   1.936  18.067 -0.2933 -0.2203  0.5849
 4078TIP3    H136429   1.853   1.884  18.063 -0.1935 -0.1009  0.9528
 4078TIP3    H236430   1.721   1.907  17.992  0.0183 -0.4220  0.4457
 4079TIP3   OH236431   6.063   1.010  17.751  0.0679 -0.0031 -0.1722
 4079TIP3    H136432   6.068   0.914  17.753 -0.6146 -0.1816 -2.8820
 4079TIP3    H236433   6.149   1.038  17.722 -0.0789  0.1131 -0.5030
 4080TIP3   OH236434   2.649   2.518  18.577 -0.4763 -0.5135 -0.6597
 4080TIP3    H136435   2.658   2.594  18.635 -2.5819  0.4526 -1.4961
 4080TIP3    H236436   2.567   2.476  18.604 -1.1856 -0.3978 -2.4637
 4081TIP3   OH236437   8.331   7.063  16.696 -0.2535 -0.2573 -0.5590
 4081TIP3    H136438   8.366   7.013  16.770  2.9518  1.6129 -0.6037
 4081TIP3    H236439   8.308   6.997  16.631  0.4177 -1.8169  0.7137
 4082TIP3   OH236440   3.301   6.682  18.223 -0.1563 -0.0790 -0.7639
 4082TIP3    H136441   3.271   6.762  18.265  1.8096  0.0365  0.4997
 4082TIP3    H236442   3.348   6.711  18.145 -0.1886 -0.0599 -0.7755
 4083TIP3   OH236443   0.457   4.633  18.698  0.6967 -0.0991 -0.6819
 4083TIP3    H136444   0.415   4.548  18.710  1.4331 -0.2346  1.3866
 4083TIP3    H236445   0.548   4.613  18.679  0.4404  0.2407 -2.4664
 4084TIP3   OH236446   7.498   0.672  16.790 -0.0943 -0.0803  1.3479
 4084TIP3    H136447   7.456   0.652  16.874 -3.0183 -2.3576 -0.4269
 4084TIP3    H236448   7.449   0.748  16.757  0.3090  0.1191  1.2026
 4085TIP3   OH236449   2.073   3.732  18.293 -0.3152 -0.3776 -0.4933
 4085TIP3    H136450   2.078   3.827  18.304 -0.9619 -0.4009  0.0809
 4085TIP3    H236451   1.982   3.716  18.265 -0.0102 -0.7650 -1.3066
 4086TIP3   OH236452   1.272   2.685  17.803 -0.2780  0.0102 -0.2162
 4086TIP3    H136453   1.275   2.780  17.808  1.8263 -0.0590  1.5111
 4086TIP3    H236454   1.264   2.657  17.895 -3.0161 -1.5052 -0.8206
 4087TIP3   OH236455   5.745   7.303  17.199 -0.0483  0.2286 -0.2111
 4087TIP3    H136456   5.714   7.303  17.108  0.5668  2.3406 -0.4746
 4087TIP3    H236457   5.711   7.385  17.236  2.3757  1.0183  0.4738
 4088TIP3   OH236458   5.656   7.720  18.123 -0.7712 -0.3363 -0.2009
 4088TIP3    H136459   5.641   7.675  18.206 -0.1982  1.7884  1.1270
 4088TIP3    H236460   5.720   7.664  18.077 -1.3570 -1.7172  0.6036
 4089TIP3   OH236461   4.546   3.444  18.343 -0.0039 -0.7681 -0.6116
 4089TIP3    H136462   4.496   3.402  18.274  1.7703  0.8578 -3.0322
 4089TIP3    H236463   4.555   3.535  18.315  0.9312 -0.0518  1.7080
 4090TIP3   OH236464   0.810   1.472  18.672  0.1824 -0.3561 -0.2098
 4090TIP3    H136465   0.877   1.408  18.645 -0.2473 -0.4955 -0.9609
 4090TIP3    H236466   0.730   1.421  18.681 -0.1406  0.0508 -0.7081
 4091TIP3   OH236467   2.839   4.827  18.317 -0.7457 -0.1458 -0.2696
 4091TIP3    H136468   2.753   4.857  18.347  0.3367  1.1661  1.7452
 4091TIP3    H236469   2.888   4.810  18.397  1.6242  1.4178 -1.2763
 4092TIP3   OH236470   7.011   1.097  18.967 -0.0719 -0.9539 -0.2849
 4092TIP3    H136471   6.973   1.184  18.951 -1.4321 -1.5356 -0.4280
 4092TIP3    H236472   7.097   1.115  19.005  0.4867  0.4593 -2.0323
 4093TIP3   OH236473   0.189   4.856  17.636  0.0101 -0.1720  0.4476
 4093TIP3    H136474   0.194   4.935  17.690 -0.5088 -0.5728  1.0963
 4093TIP3    H236475   0.190   4.889  17.546  0.2513  0.5422  0.6984
 4094TIP3   OH236476   8.154   5.737  18.927  0.3322  0.1783 -0.1028
 4094TIP3    H136477   8.073   5.722  18.878 -0.1529 -1.4635  1.1431
 4094TIP3    H236478   8.153   5.672  18.997  0.7226  2.7630  2.4906
 4095TIP3   OH236479   6.752   3.774  17.563 -0.4274 -0.1571 -0.1156
 4095TIP3    H136480   6.804   3.725  17.499  1.0871  0.2531  0.7511
 4095TIP3    H236481   6.667   3.731  17.562  0.1654 -1.3765 -1.0032
 4096TIP3   OH236482   6.445   0.750  17.810 -0.0334 -0.3225  0.2082
 4096TIP3    H136483   6.356   0.724  17.786  0.7004 -2.0537 -0.8695
 4096TIP3    H236484   6.496   0.738  17.729  1.4407 -0.8010  1.1632
 4097TIP3   OH236485   2.706   6.980  17.540  0.3164 -0.5518  0.2826
 4097TIP3    H136486   2.790   6.998  17.582  0.3074 -0.0927  0.1033
 4097TIP3    H236487   2.654   6.935  17.607  0.1876  0.4533  0.8671
 4098TIP3   OH236488   3.911   6.901  17.097 -0.3136 -0.2780  0.8959
 4098TIP3    H136489   3.840   6.958  17.128  0.4564  0.1113  1.9974
 4098TIP3    H236490   3.950   6.950  17.025 -0.9499 -0.3515  0.4867
 4099TIP3   OH236491   5.946   8.135  16.437 -0.2526 -0.8160  0.1442
 4099TIP3    H136492   5.886   8.196  16.395  0.9382  0.7878  0.6751
 4099TIP3    H236493   5.982   8.183  16.512  0.7731 -2.1510  0.5623
 4100TIP3   OH236494   5.572   0.972  18.464  0.3662 -0.5553 -0.3630
 4100TIP3    H136495   5.527   1.019  18.534  0.2775  0.4964 -1.1018
 4100TIP3    H236496   5.503   0.951  18.401  0.5160 -1.0923 -0.3492
 4101TIP3   OH236497   7.514   7.810  18.651  0.4579 -0.0122 -0.0015
 4101TIP3    H136498   7.588   7.870  18.656  1.2446 -0.8901 -0.7158
 4101TIP3    H236499   7.438   7.865  18.669  1.2849  0.8846  0.8916
 4102TIP3   OH236500   1.817   4.563  17.916 -0.0692 -0.4149 -0.2273
 4102TIP3    H136501   1.776   4.488  17.958  0.5130 -0.0493  1.0325
 4102TIP3    H236502   1.837   4.533  17.827 -0.8264 -1.3811 -0.0905
 4103TIP3   OH236503   5.888   7.507  17.738 -0.3760 -0.6667  0.2604
 4103TIP3    H136504   5.979   7.479  17.742 -0.6355 -1.8267 -0.9913
 4103TIP3    H236505   5.838   7.425  17.730 -1.4261 -0.0047 -0.3173
 4104TIP3   OH236506   6.515   0.451  18.780 -0.2816 -0.4013  0.0545
 4104TIP3    H136507   6.557   0.500  18.851  0.9850 -0.6438 -0.4947
 4104TIP3    H236508   6.427   0.432  18.813  0.2061 -0.3349  1.4864
 4105TIP3   OH236509   5.244   7.164  16.970 -0.0994  0.1124 -0.5892
 4105TIP3    H136510   5.268   7.246  16.927  0.1135 -0.1077 -0.8976
 4105TIP3    H236511   5.168   7.132  16.920  2.1098 -1.8470 -3.0578
 4106TIP3   OH236512   3.883   2.096  18.826 -0.0523  0.1125 -0.3018
 4106TIP3    H136513   3.905   2.130  18.912  2.6003 -0.7149 -0.5313
 4106TIP3    H236514   3.963   2.108  18.775 -0.9127 -1.1659 -2.0648
 4107TIP3   OH236515   6.569   6.168  18.869 -0.6946  0.1062 -0.0501
 4107TIP3    H136516   6.508   6.211  18.809 -1.4742  0.8575  1.2486
 4107TIP3    H236517   6.521   6.093  18.902 -0.6952  0.3561  0.5183
 4108TIP3   OH236518   4.276   4.718  18.065  0.1571 -0.1879  0.6431
 4108TIP3    H136519   4.234   4.651  18.012  0.2021  1.2953 -1.3727
 4108TIP3    H236520   4.348   4.672  18.108  0.1268 -1.4777 -0.5997
 4109TIP3   OH236521   7.782   8.131  17.574 -0.5100  0.5895 -0.0626
 4109TIP3    H136522   7.805   8.048  17.616  1.6476  1.2069  0.0975
 4109TIP3    H236523   7.766   8.191  17.647  3.5187  1.7395  0.0936
 4110TIP3   OH236524   2.311   4.653  18.252  0.5005 -1.0311  0.1717
 4110TIP3    H136525   2.226   4.684  18.284  0.9907 -0.0263  0.5660
 4110TIP3    H236526   2.345   4.599  18.323 -0.0705 -1.9601 -0.2452
 4111TIP3   OH236527   2.410   0.271  18.359 -0.3512 -0.2112  0.0244
 4111TIP3    H136528   2.484   0.250  18.416 -0.8523  0.0526  0.7806
 4111TIP3    H236529   2.441   0.345  18.307 -0.5152  0.7551  1.2504
 4112TIP3   OH236530   8.239   3.876  18.595  0.1562  0.1433 -0.2490
 4112TIP3    H136531   8.301   3.862  18.666  1.2054 -0.1902 -1.1994
 4112TIP3    H236532   8.186   3.951  18.623  0.7281  0.1889  0.7476
 4113TIP3   OH236533   4.997   5.653  18.127  0.3746  0.6803  0.2437
 4113TIP3    H136534   4.927   5.711  18.155  0.7094  0.5452  1.4085
 4113TIP3    H236535   5.024   5.607  18.206  1.1515  0.0487 -0.3623
 4114TIP3   OH236536   1.313   8.407  17.624  0.2011 -0.3296  0.2577
 4114TIP3    H136537   1.362   8.428  17.546  1.1994 -1.6969  0.4771
 4114TIP3    H236538   1.370   8.431  17.697 -1.2656  2.2525  0.6652
 4115TIP3   OH236539   7.579   1.023  18.280  0.0928 -0.4548 -0.1830
 4115TIP3    H136540   7.519   1.064  18.218  1.1182  0.7910 -0.4086
 4115TIP3    H236541   7.666   1.040  18.243  0.6873 -0.2229  1.2727
 4116TIP3   OH236542   6.145   0.062  16.858 -0.0062  0.1182 -0.2944
 4116TIP3    H136543   6.154  -0.032  16.842  1.9903  0.4379 -1.3455
 4116TIP3    H236544   6.212   0.102  16.803  0.6302  2.0292  1.7323
 4117TIP3   OH236545   0.437   7.554  18.283 -0.4986 -0.3354 -0.0461
 4117TIP3    H136546   0.521   7.601  18.286 -1.4637  1.5277 -0.4819
 4117TIP3    H236547   0.371   7.623  18.280 -2.0958 -1.7467  0.7052
 4118TIP3   OH236548   2.161   1.242  17.541 -0.5285  0.5237 -0.5143
 4118TIP3    H136549   2.130   1.306  17.605 -0.1941  1.1338 -0.9596
 4118TIP3    H236550   2.084   1.188  17.522 -0.7857  0.7252 -0.0600
 4119TIP3   OH236551   5.896   7.173  17.384 -0.3115  0.1997  0.4196
 4119TIP3    H136552   5.966   7.142  17.328 -1.0407 -0.7130 -0.0215
 4119TIP3    H236553   5.831   7.209  17.324 -0.9820 -0.5492  0.6729
 4120TIP3   OH236554   4.886   1.737  18.196 -0.3196  0.1025  0.0033
 4120TIP3    H136555   4.887   1.817  18.249 -0.5289  0.1165 -0.0155
 4120TIP3    H236556   4.954   1.683  18.235  1.5419  1.2584 -1.4754
 4121TIP3   OH236557   2.754   7.353  17.988 -0.5389 -0.2768  0.0467
 4121TIP3    H136558   2.754   7.358  17.893 -0.7233 -0.7221  0.0160
 4121TIP3    H236559   2.705   7.272  18.007 -2.3409  0.8743  0.5750
 4122TIP3   OH236560   5.834   7.331  18.426  0.0454 -0.0916 -0.2314
 4122TIP3    H136561   5.798   7.284  18.501  1.6910 -1.7885 -0.4131
 4122TIP3    H236562   5.923   7.354  18.452 -0.0914  1.2464 -0.8835
 4123TIP3   OH236563   7.595   3.229  17.586  0.2107  0.4541  0.2765
 4123TIP3    H136564   7.501   3.219  17.579  0.2776 -1.1775  1.2376
 4123TIP3    H236565   7.623   3.254  17.498 -0.9307 -0.8324 -0.4961
 4124TIP3   OH236566   4.179   6.652  18.452  0.1544 -0.6803 -0.0489
 4124TIP3    H136567   4.210   6.737  18.485 -1.0796  0.1911 -1.0323
 4124TIP3    H236568   4.110   6.626  18.512  0.4657 -0.9590  0.1953
 4125TIP3   OH236569   7.562   7.908  17.056 -0.1049 -0.3678 -0.7375
 4125TIP3    H136570   7.530   7.872  17.138  0.8970  1.8590  0.7224
 4125TIP3    H236571   7.645   7.862  17.041  0.3496  0.1158  0.2130
 4126TIP3   OH236572   8.066   5.196  17.332 -0.6587 -0.4688 -0.0163
 4126TIP3    H136573   8.000   5.258  17.363  0.9134  0.8553  0.8643
 4126TIP3    H236574   8.028   5.110  17.348 -2.3214  0.2517  0.0590
 4127TIP3   OH236575   0.738   3.992  19.308 -0.3391  0.5831  0.0296
 4127TIP3    H136576   0.733   4.086  19.328 -2.9681  0.5203  0.0199
 4127TIP3    H236577   0.816   3.984  19.254 -0.7947  3.0614 -1.1822
 4128TIP3   OH236578   0.483   6.960  18.099 -0.1627 -0.2710  0.5378
 4128TIP3    H136579   0.511   6.897  18.164 -0.3689  0.9573  1.8779
 4128TIP3    H236580   0.551   7.028  18.100 -1.2049  0.8113  1.0409
 4129TIP3   OH236581   7.863   2.951  18.605 -0.1617 -0.3575 -0.2794
 4129TIP3    H136582   7.812   3.023  18.567  0.6061  0.1185 -0.4211
 4129TIP3    H236583   7.824   2.872  18.566  0.4735  0.0961 -1.9399
 4130TIP3   OH236584   1.278   1.267  17.999 -0.3571 -0.2556  0.1794
 4130TIP3    H136585   1.325   1.306  18.072  1.1190 -1.8551  0.1468
 4130TIP3    H236586   1.289   1.329  17.927 -2.8000  1.9066  1.5161
 4131TIP3   OH236587   4.166   2.979  18.418 -0.1008 -0.2549  0.0854
 4131TIP3    H136588   4.215   3.061  18.411  1.2486 -1.0889 -0.8553
 4131TIP3    H236589   4.218   2.916  18.368 -0.6373 -1.9001  1.4941
 4132TIP3   OH236590   3.918   1.360  17.392  0.2229  0.1451 -0.3185
 4132TIP3    H136591   3.833   1.354  17.348  0.7647 -0.8389 -1.2916
 4132TIP3    H236592   3.898   1.340  17.484 -0.7522  1.0455 -0.3173
 4133TIP3   OH236593   5.247   7.437  16.895  0.3308  0.1853 -0.3437
 4133TIP3    H136594   5.189   7.454  16.820 -2.8022 -0.0713  1.8299
 4133TIP3    H236595   5.243   7.517  16.947  0.6665 -0.4390  0.6651
 4134TIP3   OH236596   6.168   8.049  18.653  0.1407 -0.0260 -0.0797
 4134TIP3    H136597   6.163   8.128  18.706  0.8553 -0.5476  0.7991
 4134TIP3    H236598   6.248   8.059  18.601  0.2886 -0.2081  0.1090
 4135TIP3   OH236599   1.117   3.952  18.686 -0.0634  0.5383 -0.4865
 4135TIP3    H136600   1.026   3.944  18.656 -0.1047 -0.1479 -0.1974
 4135TIP3    H236601   1.167   3.969  18.607 -0.0955 -1.7746 -1.0744
 4136TIP3   OH236602   3.730   5.001  18.198  0.3757  0.0803 -0.1760
 4136TIP3    H136603   3.750   4.937  18.130 -1.2874  0.2019 -0.8307
 4136TIP3    H236604   3.773   4.967  18.276 -0.3344 -1.7967 -0.5295
 4137TIP3   OH236605   4.753   6.628  18.025  0.1460  0.3369  0.0419
 4137TIP3    H136606   4.789   6.658  18.108 -0.3139 -2.5825  1.4453
 4137TIP3    H236607   4.659   6.620  18.041 -0.2484  1.5619 -1.4389
 4138TIP3   OH236608   2.666   0.019  18.036  0.6864 -0.1835  0.4917
 4138TIP3    H136609   2.739   0.008  18.097  0.6686  0.3386  0.6156
 4138TIP3    H236610   2.606  -0.052  18.056 -0.0005  0.8019  2.0731
 4139TIP3   OH236611   3.737   4.539  18.808  0.4895  0.5840 -0.0193
 4139TIP3    H136612   3.770   4.622  18.773  0.8670 -0.5604 -2.6469
 4139TIP3    H236613   3.806   4.508  18.867  1.3003  1.1675 -0.6368
 4140TIP3   OH236614   3.746   0.015  17.154  0.0825 -0.0400  0.0801
 4140TIP3    H136615   3.768  -0.018  17.067  0.1740 -0.6037  0.3128
 4140TIP3    H236616   3.689   0.091  17.138  1.3131  0.7967 -0.5045
 4141TIP3   OH236617   7.213   7.368  18.448  0.2513 -0.0934 -0.3394
 4141TIP3    H136618   7.175   7.450  18.481 -1.4158 -0.7105 -0.6081
 4141TIP3    H236619   7.191   7.303  18.514  1.3898 -0.3926 -0.2314
 4142TIP3   OH236620   1.841   6.703  17.166 -0.0942 -0.2847  0.3636
 4142TIP3    H136621   1.872   6.779  17.117 -1.2354  0.9797  1.5178
 4142TIP3    H236622   1.920   6.669  17.208  0.4551  0.2014 -0.2454
 4143TIP3   OH236623   1.457   0.665  16.973 -0.2519 -0.0804  0.2459
 4143TIP3    H136624   1.536   0.677  17.025  0.5792 -1.1091 -0.7257
 4143TIP3    H236625   1.481   0.695  16.885 -0.5416 -1.4829 -0.3377
 4144TIP3   OH236626   1.825   5.875  18.112  0.4745 -0.3091 -0.0336
 4144TIP3    H136627   1.807   5.841  18.024 -0.6192 -1.0805  0.4540
 4144TIP3    H236628   1.739   5.875  18.155  0.6774  1.7939  0.4643
 4145TIP3   OH236629   3.544   2.553  18.095  0.4832 -0.2375 -0.3512
 4145TIP3    H136630   3.637   2.531  18.109  0.7452  0.0466 -1.5090
 4145TIP3    H236631   3.503   2.470  18.075  0.1357 -0.6239  1.7456
 4146TIP3   OH236632   2.058   2.887  18.087  0.0486 -0.2942  0.0060
 4146TIP3    H136633   2.058   2.792  18.071  0.2533 -0.1410 -0.9804
 4146TIP3    H236634   2.068   2.895  18.182 -1.1462 -1.2691  0.2425
 4147TIP3   OH236635   3.627   7.517  17.685 -0.7358  0.3951 -0.0299
 4147TIP3    H136636   3.636   7.437  17.737 -0.8667  0.3767 -0.0342
 4147TIP3    H236637   3.716   7.544  17.666 -0.6894  0.3475  0.1239
 4148TIP3   OH236638   0.044   6.806  17.627 -0.3148 -0.4838 -0.0749
 4148TIP3    H136639   0.134   6.834  17.647 -0.0431  0.5292 -2.3883
 4148TIP3    H236640  -0.008   6.886  17.634 -0.4261 -0.3619 -1.8103
 4149TIP3   OH236641   8.085   2.794  18.297  0.0353  0.2789  0.5317
 4149TIP3    H136642   8.161   2.771  18.350  0.0534  0.5515  0.6269
 4149TIP3    H236643   8.010   2.762  18.347  0.1540 -1.5220 -0.3502
 4150TIP3   OH236644   5.841   0.109  18.447  0.4073  0.5069 -0.1681
 4150TIP3    H136645   5.845   0.016  18.466 -0.8020  0.4760  0.0147
 4150TIP3    H236646   5.860   0.115  18.353  0.5209  0.0717 -0.1729
 4151TIP3   OH236647   7.402   7.367  19.193  0.0313  0.0072 -0.0602
 4151TIP3    H136648   7.385   7.359  19.099  1.0454  0.9125 -0.3323
 4151TIP3    H236649   7.478   7.310  19.209  0.0168  0.0515  0.1674
 4152TIP3   OH236650   2.178   5.042  18.725 -0.1383  0.1114 -0.3398
 4152TIP3    H136651   2.088   5.047  18.693 -0.3895 -1.3307  0.0538
 4152TIP3    H236652   2.192   4.948  18.741  1.2076  0.3937  0.2380
 4153TIP3   OH236653   8.043   1.871  17.826 -0.1206 -0.6817  0.3596
 4153TIP3    H136654   8.048   1.856  17.732 -0.0877  0.7455  0.1122
 4153TIP3    H236655   8.120   1.826  17.861  0.9735  0.4271 -0.5437
 4154TIP3   OH236656   5.928   4.536  17.657  0.2897  0.2756  0.1997
 4154TIP3    H136657   5.986   4.461  17.642  0.8862  0.9555 -1.0344
 4154TIP3    H236658   5.985   4.612  17.653 -0.4485  0.8660  0.5879
 4155TIP3   OH236659   2.155   8.075  18.721 -0.5963 -0.0841 -0.2673
 4155TIP3    H136660   2.061   8.072  18.735 -0.2438  0.0716  2.6987
 4155TIP3    H236661   2.182   7.983  18.720 -0.7669 -0.1468 -1.5277
 4156TIP3   OH236662   2.488   6.825  16.968 -0.3183  0.2466  0.4438
 4156TIP3    H136663   2.564   6.769  16.984 -0.2567  0.6066  1.5331
 4156TIP3    H236664   2.513   6.879  16.893  0.4462  0.2505  0.6952
 4157TIP3   OH236665   8.007   5.371  18.770  0.2301  0.2335 -0.8627
 4157TIP3    H136666   8.067   5.310  18.814  1.2751  2.3684  0.8539
 4157TIP3    H236667   7.930   5.318  18.749  1.4720 -1.8883 -0.3645
 4158TIP3   OH236668   1.815   5.929  19.052 -0.0697  0.3591  0.3285
 4158TIP3    H136669   1.751   5.999  19.039 -0.9476  0.0521  2.5625
 4158TIP3    H236670   1.763   5.848  19.051  0.4776 -0.0061  0.7477
 4159TIP3   OH236671   1.968   0.434  17.804  0.2574  0.5190  0.2702
 4159TIP3    H136672   1.885   0.402  17.838  0.4408  1.5449  1.7419
 4159TIP3    H236673   1.964   0.416  17.710 -1.5614  0.4545  0.3365
 4160TIP3   OH236674   6.813   5.650  16.803  0.4934 -0.4198  0.6100
 4160TIP3    H136675   6.822   5.669  16.709  2.1146  0.6384  0.9448
 4160TIP3    H236676   6.845   5.728  16.847 -0.1108 -0.9579  2.0778
 4161TIP3   OH236677   5.083   6.923  18.230 -0.4879 -0.1390 -0.1342
 4161TIP3    H136678   5.096   7.010  18.193 -0.0183 -0.3419 -0.4692
 4161TIP3    H236679   5.139   6.921  18.308  0.4279 -0.5289 -0.7808
 4162TIP3   OH236680   5.312   6.025  16.980  0.0567 -0.3157 -0.8106
 4162TIP3    H136681   5.275   6.051  16.896  0.9395 -0.5001 -1.2766
 4162TIP3    H236682   5.395   5.982  16.957  1.1844  1.2024  0.2363
 4163TIP3   OH236683   8.404   1.258  17.858  0.0088 -0.3442  0.3323
 4163TIP3    H136684   8.323   1.208  17.871 -0.2287 -0.0095  0.1715
 4163TIP3    H236685   8.453   1.247  17.940 -1.2163  1.2911  1.3536
 4164TIP3   OH236686   0.300   5.556  18.979  0.0371 -0.5999  0.2654
 4164TIP3    H136687   0.287   5.650  18.971 -0.2993 -0.7223 -0.7108
 4164TIP3    H236688   0.385   5.540  18.939  0.4148 -0.6364  1.0501
 4165TIP3   OH236689   6.964   0.233  17.152 -0.2927 -0.1673 -0.4245
 4165TIP3    H136690   6.897   0.285  17.107 -0.4841  1.3532  1.4963
 4165TIP3    H236691   6.940   0.236  17.244  2.5179  0.6390  0.3929
 4166TIP3   OH236692   4.154   7.925  17.873  0.0766 -0.5413 -0.3394
 4166TIP3    H136693   4.093   7.977  17.821  0.0850  1.3734  1.4460
 4166TIP3    H236694   4.237   7.972  17.867 -0.0795  0.1283  1.8520
 4167TIP3   OH236695   4.409   3.290  18.144  0.1881  0.2912  0.7241
 4167TIP3    H136696   4.454   3.313  18.063  0.3768 -1.8976  0.1667
 4167TIP3    H236697   4.316   3.290  18.121  0.2971 -1.3429  0.2004
 4168TIP3   OH236698   0.262   2.845  17.958  0.2577  0.3171  0.1216
 4168TIP3    H136699   0.242   2.931  17.922 -1.8019 -0.6593 -1.2349
 4168TIP3    H236700   0.185   2.792  17.940  1.0797 -1.5930  1.7524
 4169TIP3   OH236701   8.122   6.274  17.451  0.0834  0.0008 -0.0275
 4169TIP3    H136702   8.078   6.339  17.396  0.0105 -0.5342 -0.6123
 4169TIP3    H236703   8.215   6.286  17.432  0.1857  0.8483  0.8975
 4170TIP3   OH236704   2.069   6.813  17.952  0.0969 -0.0733 -0.0911
 4170TIP3    H136705   2.137   6.798  17.885  0.5022  0.1984  0.2538
 4170TIP3    H236706   2.043   6.904  17.939 -0.3086 -0.2182 -0.3142
 4171TIP3   OH236707   5.803   5.614  16.739 -0.8634 -0.2860  0.2408
 4171TIP3    H136708   5.739   5.679  16.707  0.5639  1.1512  0.1826
 4171TIP3    H236709   5.847   5.583  16.660  0.2877  0.7006  0.4598
 4172TIP3   OH236710   4.410   3.094  18.634  0.4800  0.0428  0.2705
 4172TIP3    H136711   4.460   3.096  18.552  1.0380  0.2214  0.6111
 4172TIP3    H236712   4.321   3.070  18.607  0.2649  1.6505 -0.5814
 4173TIP3   OH236713   5.157   1.702  17.265  0.4338  0.2055 -0.3119
 4173TIP3    H136714   5.064   1.707  17.289  0.4620  0.5058 -0.2520
 4173TIP3    H236715   5.176   1.609  17.261  0.2600  0.1424  0.2000
 4174TIP3   OH236716   7.378   3.681  17.560 -0.3717 -0.0764 -0.2344
 4174TIP3    H136717   7.455   3.650  17.512 -1.9597 -1.2413 -2.1908
 4174TIP3    H236718   7.313   3.697  17.492 -1.9742  0.5732  1.3805
 4175TIP3   OH236719   0.761   6.924  16.679  0.1889  0.1951  0.4965
 4175TIP3    H136720   0.825   6.978  16.726  0.3275  0.9211 -0.4802
 4175TIP3    H236721   0.677   6.966  16.695  0.3013  0.7503 -0.2933
 4176TIP3   OH236722   7.685   6.469  17.283  0.0975  0.1113 -0.6460
 4176TIP3    H136723   7.635   6.438  17.358  1.9508 -0.0530  0.5941
 4176TIP3    H236724   7.660   6.561  17.273  0.2680  0.3037  0.5814
 4177TIP3   OH236725   0.978   5.774  18.777  0.4758  0.3093  0.7627
 4177TIP3    H136726   0.954   5.721  18.701 -1.6424  1.9220  0.2268
 4177TIP3    H236727   1.040   5.838  18.743 -0.2808  0.8719  0.4045
 4178TIP3   OH236728   0.545   1.564  17.852  0.3563 -0.2251 -0.0168
 4178TIP3    H136729   0.519   1.650  17.818 -1.0726 -0.9376 -0.8338
 4178TIP3    H236730   0.612   1.583  17.918  2.3446  1.3178 -2.2928
 4179TIP3   OH236731   2.162   2.706  18.763  0.3456  0.2326 -0.4039
 4179TIP3    H136732   2.200   2.714  18.675  1.4882 -0.6181 -0.0224
 4179TIP3    H236733   2.157   2.611  18.778 -1.0141  0.3507 -0.0289
 4180TIP3   OH236734   6.686   6.247  17.792 -0.1744 -0.3438  0.0834
 4180TIP3    H136735   6.621   6.177  17.779 -2.2011  1.2555  1.0137
 4180TIP3    H236736   6.693   6.290  17.707 -2.2596  0.9583  0.4849
 4181TIP3   OH236737   5.605   0.514  17.854 -0.7436  0.5228 -0.0454
 4181TIP3    H136738   5.609   0.593  17.799 -3.3504  0.1932 -0.8589
 4181TIP3    H236739   5.537   0.534  17.918  0.5027 -0.0693  1.5159
 4182TIP3   OH236740   0.505   6.853  18.558  0.3463  0.0880 -0.1895
 4182TIP3    H136741   0.555   6.930  18.584  0.3305  0.8252 -2.2006
 4182TIP3    H236742   0.415   6.872  18.585  0.4675  0.4540 -0.0456
 4183TIP3   OH236743   5.807   0.513  17.126 -0.5056 -0.1787 -0.4365
 4183TIP3    H136744   5.725   0.559  17.109  0.1230  1.7591  1.4997
 4183TIP3    H236745   5.870   0.552  17.065  0.3498  2.6463  2.0793
 4184TIP3   OH236746   7.542   2.912  17.428 -0.2966  0.1281 -0.0805
 4184TIP3    H136747   7.461   2.944  17.467  0.1811  0.2836  0.8060
 4184TIP3    H236748   7.547   2.820  17.456 -0.0488  0.1846  0.0587
 4185TIP3   OH236749   5.461   2.893  16.531  0.3252  0.2257 -0.2121
 4185TIP3    H136750   5.493   2.950  16.461  5.2091 -0.9997  0.6536
 4185TIP3    H236751   5.453   2.807  16.490 -1.8963  0.4186 -0.3074
 4186TIP3   OH236752   7.030   4.451  19.391  0.0666  0.8962 -0.0462
 4186TIP3    H136753   7.099   4.513  19.372  1.1596 -0.4826 -0.7498
 4186TIP3    H236754   6.949   4.497  19.367  0.9367  1.5459 -1.9235
 4187TIP3   OH236755   0.228   2.458  19.093  0.2531  0.5771 -0.1912
 4187TIP3    H136756   0.233   2.476  19.187  0.3179  0.5205 -0.1837
 4187TIP3    H236757   0.320   2.457  19.064  0.3229 -0.8267  0.0108
 4188TIP3   OH236758   4.510   7.827  18.260  0.3096  0.2418  0.0103
 4188TIP3    H136759   4.465   7.912  18.261 -1.0381 -0.3914 -1.7793
 4188TIP3    H236760   4.528   7.811  18.167  1.8658 -0.7721  0.4600
 4189TIP3   OH236761   6.101   5.959  17.623  0.1869 -0.4091 -0.4911
 4189TIP3    H136762   6.124   6.009  17.545 -0.7454 -2.0522 -1.8695
 4189TIP3    H236763   6.007   5.972  17.633  0.3442  0.0450  0.5880
 4190TIP3   OH236764   3.876   5.946  18.195 -0.0078  0.8381  0.2316
 4190TIP3    H136765   3.887   5.990  18.111  0.9119  1.3239  0.5949
 4190TIP3    H236766   3.793   5.981  18.229  0.2937  1.6674  0.1392
 4191TIP3   OH236767   3.714   2.772  16.696  0.1137  0.1257  0.1280
 4191TIP3    H136768   3.630   2.790  16.738 -0.3090  0.8996 -1.0132
 4191TIP3    H236769   3.721   2.676  16.697 -1.6685 -0.0716 -1.3959
 4192TIP3   OH236770   8.361   5.069  17.883 -0.3329 -0.0777  0.1664
 4192TIP3    H136771   8.303   5.002  17.921 -0.2474  0.1394  0.6830
 4192TIP3    H236772   8.442   5.061  17.932 -0.6585  1.0891  0.9221
 4193TIP3   OH236773   6.057   6.872  16.704 -0.4920  0.5423 -0.5492
 4193TIP3    H136774   6.093   6.956  16.676  1.3378 -0.1377 -0.3766
 4193TIP3    H236775   6.096   6.808  16.643 -0.2778 -0.3957  0.5343
 4194TIP3   OH236776   3.638   2.684  18.648 -0.1669 -0.7494 -0.0525
 4194TIP3    H136777   3.622   2.719  18.560  0.6866  0.7636  0.3558
 4194TIP3    H236778   3.569   2.724  18.702 -1.5812 -2.7815 -0.2310
 4195TIP3   OH236779   2.154   7.099  16.969 -0.2339  0.1963  0.0742
 4195TIP3    H136780   2.124   7.188  16.951 -0.3818 -0.2916 -2.5011
 4195TIP3    H236781   2.229   7.110  17.027 -1.9942  1.7679  2.2007
 4196TIP3   OH236782   8.352   6.588  17.543 -0.0632  0.0005 -0.4503
 4196TIP3    H136783   8.321   6.523  17.606  2.6448 -2.4855 -1.4691
 4196TIP3    H236784   8.418   6.638  17.591  0.9277 -0.9103 -0.8202
 4197TIP3   OH236785   6.827   3.527  17.794 -0.3386 -0.3347  0.2258
 4197TIP3    H136786   6.893   3.466  17.761 -1.6337 -0.7948 -1.6836
 4197TIP3    H236787   6.874   3.609  17.806  0.8638 -1.0002  0.1859
 4198TIP3   OH236788   1.065   4.355  18.068  0.1651 -0.1052 -0.2073
 4198TIP3    H136789   1.134   4.312  18.119 -1.3056 -0.5600  1.4760
 4198TIP3    H236790   1.102   4.440  18.045  1.9508 -1.0201 -0.9184
 4199TIP3   OH236791   3.874   3.517  17.866 -0.2021 -0.0293 -0.2695
 4199TIP3    H136792   3.841   3.567  17.940 -0.1925 -0.4117 -0.0002
 4199TIP3    H236793   3.917   3.581  17.810  0.4033  0.1714  0.4057
 4200TIP3   OH236794   8.021   5.039  18.722 -0.3893 -0.4965 -0.3561
 4200TIP3    H136795   7.973   4.959  18.701  0.7237 -1.7208  1.4263
 4200TIP3    H236796   8.042   5.078  18.637 -2.8083 -0.9120 -1.2293
 4201TIP3   OH236797   8.083   5.632  17.604 -0.3291 -0.1626  0.1192
 4201TIP3    H136798   8.070   5.689  17.528  1.1047  0.4875  0.3481
 4201TIP3    H236799   8.136   5.683  17.665 -0.5748 -1.0638  1.1259
 4202TIP3   OH236800   6.906   7.730  17.685  0.0328 -0.0077 -0.6706
 4202TIP3    H136801   6.958   7.796  17.637 -0.3945  2.0493  1.5031
 4202TIP3    H236802   6.925   7.748  17.777 -1.3010 -2.0057  0.0425
 4203TIP3   OH236803   1.386   7.132  17.899 -0.3229 -0.0054 -0.4877
 4203TIP3    H136804   1.467   7.177  17.874  1.0611 -1.6192  0.8559
 4203TIP3    H236805   1.385   7.053  17.845 -0.6469 -0.3265 -0.0211
 4204TIP3   OH236806   5.981   3.805  18.897 -0.0830 -0.4431  0.0045
 4204TIP3    H136807   5.939   3.889  18.881 -0.1161 -0.6760 -1.1724
 4204TIP3    H236808   5.911   3.750  18.933 -0.0884 -0.0182  0.6605
 4205TIP3   OH236809   1.191   0.264  18.561  0.5082 -0.0451  0.4726
 4205TIP3    H136810   1.233   0.281  18.476  0.8088  0.7692  0.7809
 4205TIP3    H236811   1.098   0.257  18.541  0.6192 -0.3049  0.0151
 4206TIP3   OH236812   0.835   0.120  17.626  0.2808  0.1007 -0.5116
 4206TIP3    H136813   0.914   0.069  17.646  0.6765  0.6966 -0.5306
 4206TIP3    H236814   0.763   0.062  17.650  0.7208  0.2035  1.2064
 4207TIP3   OH236815   5.053   6.677  17.283 -0.3296  0.1116 -0.4006
 4207TIP3    H136816   4.964   6.653  17.259  0.8178 -2.5838 -2.5021
 4207TIP3    H236817   5.077   6.615  17.351  0.7407 -0.9237 -1.6747
 4208TIP3   OH236818   0.969   4.471  18.419  0.6120 -0.4388  0.6816
 4208TIP3    H136819   1.015   4.401  18.465  0.5354  0.5582  2.3559
 4208TIP3    H236820   0.876   4.454  18.438  0.4221 -1.0636 -0.6793
 4209TIP3   OH236821   2.024   3.701  17.603 -0.3570  0.1981 -0.4350
 4209TIP3    H136822   2.086   3.656  17.546  0.0930  1.3897 -0.9277
 4209TIP3    H236823   1.952   3.639  17.614 -0.6952  0.1061 -2.7157
 4210TIP3   OH236824   8.254   5.379  16.197 -0.4024  0.8940  0.0524
 4210TIP3    H136825   8.241   5.462  16.244 -1.9216 -0.2610  1.8294
 4210TIP3    H236826   8.165   5.349  16.178  0.1154 -0.5074 -0.2086
 4211TIP3   OH236827   1.916   0.562  16.918 -0.1369 -0.2910  0.6441
 4211TIP3    H136828   1.983   0.610  16.967  0.0980 -1.9196  2.0029
 4211TIP3    H236829   1.946   0.567  16.827 -0.7944  3.1451  0.4902
 4212TIP3   OH236830   3.926   8.276  17.274  0.4576 -0.0787  0.0422
 4212TIP3    H136831   3.865   8.341  17.238  0.5829  1.2368  2.0722
 4212TIP3    H236832   3.870   8.202  17.297 -0.0269  0.1986 -0.2256
 4213TIP3   OH236833   4.591   1.907  17.084 -0.1908  0.1950 -0.7183
 4213TIP3    H136834   4.539   1.929  17.162  2.1545 -1.0230  1.3346
 4213TIP3    H236835   4.559   1.821  17.058 -0.1281  0.0375 -0.2901
 4214TIP3   OH236836   7.114   4.016  16.998  0.7571  0.1734  0.0436
 4214TIP3    H136837   7.076   4.098  17.028 -0.0834  0.9107 -2.8099
 4214TIP3    H236838   7.041   3.954  16.998  0.8042  0.1190 -0.2897
 4215TIP3   OH236839   8.366   1.404  18.578  0.2951 -0.5738  0.5609
 4215TIP3    H136840   8.367   1.378  18.486  1.7764  1.4487 -0.0582
 4215TIP3    H236841   8.342   1.324  18.625 -1.6980 -1.3723 -1.6258
 4216TIP3   OH236842   0.676   7.247  18.342  0.0812 -0.4032  0.0247
 4216TIP3    H136843   0.710   7.329  18.307 -0.2429  0.5497  1.8363
 4216TIP3    H236844   0.742   7.182  18.319  2.6838  1.1748  2.4350
 4217TIP3   OH236845   6.211   0.607  18.660  0.6354  0.3483  0.1408
 4217TIP3    H136846   6.235   0.615  18.568  0.1511  0.6161  0.0341
 4217TIP3    H236847   6.210   0.697  18.693  1.2528  0.2223  0.5300
 4218TIP3   OH236848   8.334   2.924  18.022 -0.2236 -0.1651  0.5648
 4218TIP3    H136849   8.295   2.846  17.981  0.1015  0.9188 -1.9887
 4218TIP3    H236850   8.427   2.902  18.030  0.1816  0.4985 -1.7175
 4219TIP3   OH236851   7.708   4.779  19.345  0.2168 -0.2733 -0.3509
 4219TIP3    H136852   7.691   4.826  19.426 -0.4418  0.0252 -0.6591
 4219TIP3    H236853   7.652   4.821  19.280  1.6208  0.2908 -1.2400
 4220TIP3   OH236854   7.685   7.741  18.053 -1.4505  0.2425  0.3954
 4220TIP3    H136855   7.734   7.811  18.096  0.0464 -1.2423  1.2284
 4220TIP3    H236856   7.750   7.696  17.998 -2.4022 -0.4265 -0.2157
 4221TIP3   OH236857   7.820   3.239  18.510  0.3760  0.4262  0.5001
 4221TIP3    H136858   7.860   3.196  18.434  0.3689 -1.5287  1.5408
 4221TIP3    H236859   7.787   3.322  18.476  0.5393 -0.3087 -1.5839
 4222TIP3   OH236860   0.304   5.824  18.640  0.2515  0.3150  0.4123
 4222TIP3    H136861   0.237   5.765  18.675  1.2862 -0.3381  1.3836
 4222TIP3    H236862   0.322   5.886  18.712  1.0010  0.1894  0.3470
 4223TIP3   OH236863   0.745   1.310  18.008  0.0025 -0.3276 -0.3106
 4223TIP3    H136864   0.784   1.222  18.003  0.4554 -0.0795 -1.9880
 4223TIP3    H236865   0.731   1.334  17.916 -0.1610  1.3384  0.1234
 4224TIP3   OH236866   0.816   7.738  16.903  0.2505  0.1826 -0.0145
 4224TIP3    H136867   0.882   7.695  16.958  1.3334 -0.0282 -1.4459
 4224TIP3    H236868   0.854   7.823  16.881 -0.5224  0.5926  0.1828
 4225TIP3   OH236869   8.141   1.875  18.603 -0.1395  0.0519 -0.6990
 4225TIP3    H136870   8.162   1.898  18.512  1.1795 -1.3852 -0.8208
 4225TIP3    H236871   8.159   1.781  18.607  1.7536  0.4252  1.5179
 4226TIP3   OH236872   5.142   6.174  17.697  0.5734  0.0715 -0.3919
 4226TIP3    H136873   5.196   6.128  17.760 -0.2186 -0.2173  0.0863
 4226TIP3    H236874   5.193   6.172  17.616  0.6744 -1.4165 -0.3213
 4227TIP3   OH236875   6.126   6.508  17.404  0.0461 -0.4929  0.0476
 4227TIP3    H136876   6.144   6.571  17.474 -1.1325  0.3073 -0.3433
 4227TIP3    H236877   6.207   6.458  17.396  1.4215  1.6748 -0.3615
 4228TIP3   OH236878   3.021   7.930  17.877 -0.5741 -0.2784 -0.2983
 4228TIP3    H136879   2.985   7.979  17.951 -1.6578 -0.2259 -0.8370
 4228TIP3    H236880   3.115   7.944  17.882 -0.8804  2.9209 -1.1325
 4229TIP3   OH236881   7.805   0.368  17.001 -0.0178 -0.0340  0.0519
 4229TIP3    H136882   7.718   0.329  16.991  0.5561 -0.8836 -2.2122
 4229TIP3    H236883   7.796   0.456  16.965  0.2211 -0.3995 -0.9296
 4230TIP3   OH236884   1.061   7.723  17.522  0.3891  0.8307  0.2126
 4230TIP3    H136885   1.013   7.678  17.592  0.6362  0.3917  0.1003
 4230TIP3    H236886   0.998   7.730  17.451  0.4851  0.2503  0.0643
 4231TIP3   OH236887   1.681   6.057  18.726  0.9050  0.5599  0.1375
 4231TIP3    H136888   1.661   6.116  18.799  0.3762  0.9806 -0.3408
 4231TIP3    H236889   1.770   6.082  18.700  0.9981  0.5850  0.4655
 4232TIP3   OH236890   5.557   5.681  18.149 -0.3217  0.1498  0.0627
 4232TIP3    H136891   5.527   5.637  18.228 -0.7522 -0.6387 -0.5319
 4232TIP3    H236892   5.560   5.774  18.173  2.0338 -0.2733  1.7914
 4233TIP3   OH236893   0.554   0.302  17.841 -0.0722 -1.0408  0.2029
 4233TIP3    H136894   0.580   0.297  17.933  0.4940  1.6725  0.2854
 4233TIP3    H236895   0.634   0.329  17.795 -0.8757 -0.1636 -0.7200
 4234TIP3   OH236896   6.184   3.220  17.837  0.2175  0.1305  0.5619
 4234TIP3    H136897   6.235   3.242  17.915  0.4860  1.5382  0.0182
 4234TIP3    H236898   6.114   3.163  17.869  1.2279 -0.5775  1.5619
 4235TIP3   OH236899   4.925   0.837  17.940  0.1852 -0.0495  0.3071
 4235TIP3    H136900   4.899   0.791  18.020  3.4866 -1.5789  0.6533
 4235TIP3    H236901   4.969   0.916  17.971  1.9918 -0.9347  0.1019
 4236TIP3   OH236902   7.072   4.468  17.167 -0.2242  0.1222 -0.1985
 4236TIP3    H136903   7.022   4.535  17.213  0.6919 -1.1611  3.0300
 4236TIP3    H236904   7.163   4.488  17.189  0.0858 -1.9219  0.6626
 4237TIP3   OH236905   7.019   0.901  18.096  0.2504  0.2350  0.5970
 4237TIP3    H136906   7.033   0.931  18.186 -2.6257  0.2551  1.1250
 4237TIP3    H236907   6.995   0.979  18.048 -0.9551 -0.1782  0.4949
 4238TIP3   OH236908   1.900   7.535  18.227  0.1579  0.2635  0.7311
 4238TIP3    H136909   1.858   7.600  18.171 -1.0630 -1.9230 -1.0362
 4238TIP3    H236910   1.829   7.479  18.258  1.2769 -0.8839  1.3309
 4239TIP3   OH236911   2.314   5.426  17.324  0.1670 -0.5658 -0.2208
 4239TIP3    H136912   2.327   5.392  17.412  0.9930  0.6901  0.1702
 4239TIP3    H236913   2.220   5.418  17.309  0.2637 -2.5780 -0.0022
 4240TIP3   OH236914   5.429   4.294  19.133 -0.8832 -0.4584  0.3034
 4240TIP3    H136915   5.419   4.360  19.065 -0.8529 -0.3110  0.4398
 4240TIP3    H236916   5.413   4.210  19.089 -0.8503 -0.3642  0.1131
 4241TIP3   OH236917   3.004   8.271  16.711  0.1848 -0.1457  0.3902
 4241TIP3    H136918   3.026   8.208  16.780 -1.2360 -1.8806 -0.6578
 4241TIP3    H236919   2.910   8.258  16.696 -0.2959  2.6271  0.4661
 4242TIP3   OH236920   2.221   4.839  16.839  0.1012  0.0393  0.2987
 4242TIP3    H136921   2.260   4.758  16.807  0.4247  0.1700  0.3557
 4242TIP3    H236922   2.252   4.906  16.779 -0.8400  0.0023 -0.2404
 4243TIP3   OH236923   4.354   7.506  18.463  0.9019 -0.7320  0.1221
 4243TIP3    H136924   4.290   7.575  18.445 -1.1232 -2.4333  0.5134
 4243TIP3    H236925   4.425   7.552  18.509  0.0340  1.2157 -0.3512
 4244TIP3   OH236926   2.050   4.109  18.040  0.0378 -0.6294 -0.0924
 4244TIP3    H136927   2.007   4.080  17.960  1.1929 -1.4787 -0.4281
 4244TIP3    H236928   2.136   4.139  18.012 -0.1096  0.5361  0.6397
 4245TIP3   OH236929   6.856   7.903  18.306 -0.2977  0.0464  0.5573
 4245TIP3    H136930   6.829   7.895  18.397 -0.7198 -2.0980  0.3046
 4245TIP3    H236931   6.780   7.939  18.261 -1.6395 -2.6417  0.4469
 4246TIP3   OH236932   4.743   0.135  17.714  0.5575  0.3390  0.3884
 4246TIP3    H136933   4.678   0.066  17.706 -0.3979  1.3491 -1.0680
 4246TIP3    H236934   4.797   0.109  17.789 -1.8986 -0.2146  2.0918
 4247TIP3   OH236935   5.748   1.808  17.464  0.4306  0.1760  0.1530
 4247TIP3    H136936   5.720   1.896  17.436  1.1746  0.9438  1.7062
 4247TIP3    H236937   5.751   1.813  17.559 -0.1134 -1.7513  0.3038
 4248TIP3   OH236938   8.163   7.866  18.624  0.8197 -0.4099  0.6019
 4248TIP3    H136939   8.182   7.783  18.667 -0.8713 -1.1061  0.0953
 4248TIP3    H236940   8.221   7.868  18.548  0.6765 -1.2724  0.4659
 4249TIP3   OH236941   0.913   0.203  18.578 -0.2505 -0.3086 -0.2856
 4249TIP3    H136942   0.871   0.117  18.583 -1.9247  0.5278  1.2355
 4249TIP3    H236943   0.874   0.253  18.650 -0.0255  2.0226 -1.6729
 4250TIP3   OH236944   7.338   1.551  18.886  0.6820  0.4205  0.5261
 4250TIP3    H136945   7.379   1.634  18.861 -1.9451  1.0540 -2.2755
 4250TIP3    H236946   7.390   1.484  18.843  0.4221  0.9683 -0.6644
 4251TIP3   OH236947   7.129   1.873  16.863  0.0117 -0.4339  0.3389
 4251TIP3    H136948   7.113   1.793  16.914 -0.1578 -0.2111  0.6406
 4251TIP3    H236949   7.206   1.912  16.903  0.4036 -0.7143 -0.1402
 4252TIP3   OH236950   3.054   8.121  17.321  0.1078  0.5806  0.6262
 4252TIP3    H136951   2.991   8.187  17.350  1.2969  1.3280  1.6194
 4252TIP3    H236952   3.019   8.089  17.238 -0.1108  3.0545 -0.3262
 4253TIP3   OH236953   1.300   6.206  18.236 -0.5917  0.1711  0.0306
 4253TIP3    H136954   1.356   6.284  18.246  1.3626 -1.3265  1.6001
 4253TIP3    H236955   1.340   6.158  18.164 -0.2384 -0.5775  0.7147
 4254TIP3   OH236956   6.089   2.585  18.913 -0.1524 -0.0326 -0.3952
 4254TIP3    H136957   6.099   2.674  18.948  0.9624 -0.5581  0.6971
 4254TIP3    H236958   5.995   2.571  18.911 -0.3819  1.4170 -1.2379
 4255TIP3   OH236959   1.872   1.596  18.290 -0.3445  0.2232  0.2577
 4255TIP3    H136960   1.941   1.662  18.283 -0.0500 -0.2257 -1.3875
 4255TIP3    H236961   1.916   1.512  18.278 -1.2922 -0.0128 -2.2480
 4256TIP3   OH236962   7.336   6.440  16.738  0.4637  0.1895 -0.2723
 4256TIP3    H136963   7.263   6.385  16.765 -0.7592  1.4208 -0.9596
 4256TIP3    H236964   7.345   6.422  16.644  1.9149 -0.9005  0.0354
 4257TIP3   OH236965   1.716   8.261  19.024 -0.2871 -0.8656  0.3384
 4257TIP3    H136966   1.721   8.354  19.043  0.3706 -0.8549  0.1192
 4257TIP3    H236967   1.627   8.249  18.989 -0.4801 -0.3806  0.6511
 4258TIP3   OH236968   7.092   2.026  18.847  0.1945 -0.2655 -0.1716
 4258TIP3    H136969   7.107   2.022  18.752  0.6964  0.0610 -0.1092
 4258TIP3    H236970   7.179   2.031  18.885  0.0451 -1.6103  0.3852
 4259TIP3   OH236971   5.850   5.927  18.026 -0.4112  0.1335  0.0165
 4259TIP3    H136972   5.860   5.887  18.113 -0.7016  0.6862  0.3139
 4259TIP3    H236973   5.909   5.878  17.970  0.9934  0.7991  0.8616
 4260TIP3   OH236974   6.999   2.857  17.505  0.0873  0.1318  0.4587
 4260TIP3    H136975   6.918   2.814  17.531 -1.2132  2.0224 -0.2721
 4260TIP3    H236976   7.031   2.807  17.431 -1.8641  0.8446 -0.9383
 4261TIP3   OH236977   2.050   7.627  17.701 -0.3001 -0.5616 -0.0289
 4261TIP3    H136978   2.002   7.697  17.656 -0.4830 -0.9188 -0.3978
 4261TIP3    H236979   1.984   7.584  17.756  0.2063  0.7205  1.6419
 4262TIP3   OH236980   8.423   4.742  19.061 -0.6303  0.0130  0.1268
 4262TIP3    H136981   8.499   4.691  19.032  0.8650  1.3500  1.5117
 4262TIP3    H236982   8.430   4.743  19.156 -2.0809  0.6721  0.2565
 4263TIP3   OH236983   1.930   6.600  17.835  0.1949 -0.1394 -0.0357
 4263TIP3    H136984   1.971   6.668  17.888 -0.4620 -1.3108  2.1192
 4263TIP3    H236985   1.872   6.647  17.775  2.2250  1.3361 -0.9585
 4264TIP3   OH236986   4.556   8.356  17.602  0.2229  1.1828 -0.0175
 4264TIP3    H136987   4.471   8.388  17.634  0.4801  0.6520  1.2393
 4264TIP3    H236988   4.537   8.324  17.514 -0.6215  2.1944 -0.2313
 4265TIP3   OH236989   1.976   1.834  17.115 -0.5469  0.0677  0.1557
 4265TIP3    H136990   1.913   1.904  17.099  0.2771  1.0041  0.8736
 4265TIP3    H236991   1.959   1.807  17.205  0.1734  0.4411  0.4118
 4266TIP3   OH236992   1.774   6.223  17.629  0.4693  0.6755 -0.2020
 4266TIP3    H136993   1.773   6.318  17.612  0.1356  0.8348  0.6836
 4266TIP3    H236994   1.822   6.214  17.711 -0.3302  0.1556  0.2113
 4267TIP3   OH236995   1.035   5.831  19.147  0.2792  0.3959  0.0121
 4267TIP3    H136996   1.091   5.820  19.224  1.8376  2.2242 -0.7887
 4267TIP3    H236997   1.081   5.895  19.093 -0.7583 -0.8322 -2.4654
 4268TIP3   OH236998   4.914   2.235  18.349  0.4649  0.9828  0.4734
 4268TIP3    H136999   4.974   2.282  18.407  1.7452 -0.8289  0.6963
 4268TIP3    H237000   4.871   2.171  18.406 -0.6889  1.3375  0.0308
 4269TIP3   OH237001   5.293   0.530  16.836  0.0640  0.0693 -0.4262
 4269TIP3    H137002   5.274   0.532  16.742  0.9897  1.7103 -0.6028
 4269TIP3    H237003   5.386   0.507  16.841  0.1719  0.6061  0.0632
 4270TIP3   OH237004   0.763   1.893  17.789  0.0901 -0.3538  0.1267
 4270TIP3    H137005   0.812   1.914  17.710 -0.4046 -0.4064 -0.2023
 4270TIP3    H237006   0.673   1.882  17.759 -0.5420  1.8442  1.0146
 4271TIP3   OH237007   8.081   1.556  17.124  0.6667 -0.2634  0.3157
 4271TIP3    H137008   8.143   1.485  17.107  1.6948  0.9701 -1.3603
 4271TIP3    H237009   7.996   1.521  17.098  1.1041 -0.9848 -0.1663
 4272TIP3   OH237010   4.471   4.154  17.056 -0.1932  0.1503 -0.4089
 4272TIP3    H137011   4.484   4.207  17.135 -1.7013 -0.3930  0.2334
 4272TIP3    H237012   4.392   4.190  17.016 -0.0521 -0.2831 -1.0871
 4273TIP3   OH237013   4.159   7.698  18.328 -0.8248 -0.0938 -0.1127
 4273TIP3    H137014   4.110   7.740  18.257 -1.0512 -0.0766  0.0526
 4273TIP3    H237015   4.160   7.764  18.398 -1.4773 -0.4787  0.2766
 4274TIP3   OH237016   0.277   4.387  19.010  0.1143  0.3917 -0.3240
 4274TIP3    H137017   0.276   4.477  19.042 -1.6835 -0.0995  1.1381
 4274TIP3    H237018   0.363   4.377  18.969  1.2725  2.0434  1.5526
 4275TIP3   OH237019   1.725   4.204  17.488  0.0099 -0.1660 -0.6701
 4275TIP3    H137020   1.814   4.185  17.458  0.8551 -1.4195  2.2295
 4275TIP3    H237021   1.670   4.141  17.442  0.8912 -0.6342 -1.1233
 4276TIP3   OH237022   5.747   2.785  19.230  0.1864 -0.0620  0.1587
 4276TIP3    H137023   5.826   2.748  19.268  0.1648 -0.8120 -0.5054
 4276TIP3    H237024   5.687   2.711  19.221 -0.6364  0.5191  0.7571
 4277TIP3   OH237025   1.829   1.520  17.063 -0.2333  0.3016 -0.1762
 4277TIP3    H137026   1.870   1.581  17.124  2.2199 -0.0405 -1.3483
 4277TIP3    H237027   1.889   1.516  16.989 -2.6978  0.1129 -2.3175
 4278TIP3   OH237028   2.462   1.523  17.983 -0.2246  0.0488 -0.1411
 4278TIP3    H137029   2.434   1.596  18.039  1.3713 -0.2437  1.1097
 4278TIP3    H237030   2.417   1.447  18.019 -1.1008  0.2311 -0.8151
 4279TIP3   OH237031   1.886   6.034  17.421  0.1782 -0.4435 -0.3342
 4279TIP3    H137032   1.850   6.083  17.496 -1.3739 -0.1213 -1.2385
 4279TIP3    H237033   1.917   6.102  17.361  0.0182 -0.6369 -0.6365
 4280TIP3   OH237034   7.007   3.736  17.773 -0.0935  0.1824 -0.1031
 4280TIP3    H137035   7.022   3.704  17.684  0.6109  2.0707 -0.7036
 4280TIP3    H237036   7.093   3.733  17.814 -0.1676  0.5386  0.0833
 4281TIP3   OH237037   2.815   4.672  18.073 -0.2872  0.1300 -0.4792
 4281TIP3    H137038   2.903   4.651  18.041 -0.5737 -0.7640 -0.7275
 4281TIP3    H237039   2.828   4.742  18.136  0.4794  0.7836 -1.3299
 4282TIP3   OH237040   2.237   0.197  18.642  0.2905  0.1916  0.4317
 4282TIP3    H137041   2.284   0.272  18.679  2.9144 -0.6850 -0.8560
 4282TIP3    H237042   2.195   0.231  18.564 -1.1688  0.9445  1.4880
 4283TIP3   OH237043   2.740   5.059  18.627  0.3677 -0.3266  0.2738
 4283TIP3    H137044   2.794   5.070  18.705  0.4224 -0.8986  0.3207
 4283TIP3    H237045   2.783   5.111  18.559 -0.0831  0.7892  0.8063
 4284TIP3   OH237046   5.353   2.228  17.681  0.0568  0.0350  0.1236
 4284TIP3    H137047   5.276   2.173  17.665 -1.1764  1.1753  1.8296
 4284TIP3    H237048   5.426   2.166  17.683 -1.1285 -1.4181  0.8799
 4285TIP3   OH237049   8.002   5.275  16.285  0.2168  0.4231  0.1093
 4285TIP3    H137050   8.033   5.188  16.262  0.8981  1.0689 -1.5030
 4285TIP3    H237051   7.924   5.259  16.338  1.5914 -1.1853  1.7757
 4286TIP3   OH237052   5.768   7.278  17.737  0.1434 -0.5028  0.0031
 4286TIP3    H137053   5.771   7.191  17.778  1.3918 -0.5677 -0.1864
 4286TIP3    H237054   5.752   7.260  17.644  3.0490 -0.7496 -0.5312
 4287TIP3   OH237055   0.004   6.966  17.368  0.4480  0.5684 -0.4059
 4287TIP3    H137056  -0.010   7.036  17.431  1.0614 -0.2825  0.7135
 4287TIP3    H237057   0.009   7.010  17.284 -0.8950  1.6874  0.0581
 4288TIP3   OH237058   4.780   6.454  18.452  0.5660 -0.1883 -0.2551
 4288TIP3    H137059   4.767   6.442  18.358  0.4978 -0.4762 -0.2106
 4288TIP3    H237060   4.695   6.483  18.484  0.6567  0.1478 -0.3206
 4289TIP3   OH237061   0.804   4.088  17.904  0.3803  0.0614 -0.3151
 4289TIP3    H137062   0.852   4.035  17.968 -0.2992  0.0992  0.2309
 4289TIP3    H237063   0.749   4.026  17.858  1.7997 -0.1804 -1.7794
 4290TIP3   OH237064   6.108   4.720  18.020  0.2243 -0.2602 -0.1177
 4290TIP3    H137065   6.016   4.707  18.045  0.1594 -1.0491 -0.7105
 4290TIP3    H237066   6.153   4.736  18.102 -0.2166 -1.3677  0.3616
 4291TIP3   OH237067   4.072   0.887  17.930 -0.1139  0.0213  0.0223
 4291TIP3    H137068   3.978   0.906  17.936 -0.3424 -1.1000  0.2553
 4291TIP3    H237069   4.083   0.805  17.977  0.9355 -0.0496 -0.3153
 4292TIP3   OH237070   2.082   3.792  18.930 -0.0981  0.2308  0.7534
 4292TIP3    H137071   2.169   3.829  18.915 -0.1389  0.6415  1.4985
 4292TIP3    H237072   2.073   3.789  19.025 -0.4427 -0.8992  0.7020
 4293TIP3   OH237073   6.992   2.099  17.319 -0.2238  0.9579 -0.5976
 4293TIP3    H137074   6.913   2.149  17.336  0.8773  2.9283 -0.9690
 4293TIP3    H237075   6.961   2.020  17.275 -1.9676  1.7452 -0.8820
 4294TIP3   OH237076   2.056   0.550  18.218  0.1459 -0.4952 -0.0597
 4294TIP3    H137077   2.112   0.621  18.187  0.3996 -1.1590 -1.1759
 4294TIP3    H237078   1.972   0.592  18.237  0.0132 -0.0200 -1.5593
 4295TIP3   OH237079   6.852   0.210  16.597  0.0478  0.0845  0.1008
 4295TIP3    H137080   6.923   0.256  16.642 -0.3678  1.5972 -0.7122
 4295TIP3    H237081   6.777   0.270  16.603 -0.7633 -0.8653 -0.2627
 4296TIP3   OH237082   8.233   3.992  17.058 -0.2168  0.9889  0.3517
 4296TIP3    H137083   8.296   4.063  17.046  1.2757 -0.2419  0.5536
 4296TIP3    H237084   8.148   4.035  17.056  0.5915  2.6585 -0.4335
 4297TIP3   OH237085   7.166   2.709  18.468 -0.7345 -0.6994  0.3302
 4297TIP3    H137086   7.075   2.686  18.448 -0.4390 -2.1652  0.5173
 4297TIP3    H237087   7.165   2.803  18.482 -2.2522 -0.7154  0.4658
 4298TIP3   OH237088   2.584   6.413  17.804  0.3439 -0.0960  0.2446
 4298TIP3    H137089   2.488   6.404  17.804  0.3979 -0.7058  0.9831
 4298TIP3    H237090   2.602   6.469  17.728 -0.4971 -1.0025 -0.6492
 4299TIP3   OH237091   6.220   0.089  18.314  0.1302 -0.5811 -0.1549
 4299TIP3    H137092   6.181   0.165  18.272 -1.8654 -1.4802 -0.0436
 4299TIP3    H237093   6.232   0.115  18.405 -1.7753 -0.7665  0.1987
 4300TIP3   OH237094   5.203   0.068  18.143 -0.2764 -0.1789  0.5731
 4300TIP3    H137095   5.185  -0.021  18.114 -0.0440  0.0244 -0.2273
 4300TIP3    H237096   5.128   0.091  18.197 -0.1432 -1.0011  1.1209
 4301TIP3   OH237097   8.248   0.835  17.671  0.5527 -0.0723 -0.3106
 4301TIP3    H137098   8.294   0.752  17.673  1.1996  0.2894  0.1290
 4301TIP3    H237099   8.217   0.843  17.581 -1.4223 -1.8017  0.1345
 4302TIP3   OH237100   4.188   6.726  16.571 -0.1468  0.7908  0.0505
 4302TIP3    H137101   4.247   6.729  16.646  0.0305 -1.9287  0.1111
 4302TIP3    H237102   4.230   6.782  16.505  2.0547 -0.3144  0.4257
 4303TIP3   OH237103   6.728   5.745  18.920  0.0885  0.2172 -0.2634
 4303TIP3    H137104   6.764   5.831  18.942  0.7574 -0.2661  0.5768
 4303TIP3    H237105   6.641   5.745  18.959  0.5865  0.0347  0.8809
 4304TIP3   OH237106   3.003   7.677  17.769 -0.3543 -0.7208  0.0143
 4304TIP3    H137107   3.007   7.636  17.855  0.3270 -0.7916 -0.0408
 4304TIP3    H237108   2.994   7.771  17.787 -0.0053 -0.7147  0.1672
 4305TIP3   OH237109   5.994   2.008  17.305 -0.3284  0.1167  0.5220
 4305TIP3    H137110   5.939   1.962  17.368 -0.1327 -1.2315 -0.2597
 4305TIP3    H237111   6.048   1.940  17.266 -0.4265  0.9114 -1.0802
 4306TIP3   OH237112   6.156   5.857  17.299 -0.1423  0.0017  0.1820
 4306TIP3    H137113   6.149   5.915  17.223 -0.3518  0.9433  0.8993
 4306TIP3    H237114   6.196   5.777  17.265  0.0016  0.5037 -0.8638
 4307TIP3   OH237115   3.435   4.072  16.897  0.5578 -0.4290  0.2493
 4307TIP3    H137116   3.390   4.009  16.953  2.7178  0.0081  2.6929
 4307TIP3    H237117   3.397   4.157  16.922 -0.2412 -0.4444 -0.8509
 4308TIP3   OH237118   0.705   1.665  18.085 -0.1781  0.1999 -0.3101
 4308TIP3    H137119   0.727   1.757  18.102  1.9537 -0.4420  0.7243
 4308TIP3    H237120   0.786   1.617  18.099 -1.2286 -1.8827 -0.8301
 4309TIP3   OH237121   0.817   3.301  17.909 -0.0598  0.0102  0.0704
 4309TIP3    H137122   0.891   3.359  17.930  0.5800 -0.8054  0.0867
 4309TIP3    H237123   0.754   3.359  17.866  0.6024  0.7110  0.0120
 4310TIP3   OH237124   3.432   0.028  18.348  0.1229  0.3239  0.0871
 4310TIP3    H137125   3.415   0.119  18.372  0.0506  0.2149  0.4564
 4310TIP3    H237126   3.353   0.002  18.300 -0.3366  0.1304  0.9192
 4311TIP3   OH237127   7.597   6.076  18.057 -0.5142 -0.3000 -0.3919
 4311TIP3    H137128   7.687   6.064  18.087 -0.3159 -1.6921 -1.4585
 4311TIP3    H237129   7.546   6.014  18.109 -0.4434 -1.3714 -1.5443
 4312TIP3   OH237130   1.834   2.631  17.947 -0.0759  0.1202  0.0821
 4312TIP3    H137131   1.778   2.641  18.024 -0.8548  0.4621 -0.5254
 4312TIP3    H237132   1.808   2.702  17.889  0.0949 -0.4937 -0.7554
 4313TIP3   OH237133   4.129   5.859  18.293 -0.1335 -0.0458  0.0145
 4313TIP3    H137134   4.036   5.862  18.273 -0.2366 -0.7934  0.3691
 4313TIP3    H237135   4.159   5.949  18.281 -0.2581 -0.3121 -3.0417
 4314TIP3   OH237136   3.462   5.609  17.496  0.3455 -0.0408  0.0295
 4314TIP3    H137137   3.473   5.699  17.468  0.0555 -0.1656 -0.4909
 4314TIP3    H237138   3.546   5.567  17.475  0.9445  0.3976  1.4349
 4315TIP3   OH237139   1.265   3.747  17.776 -0.4993  0.2608 -0.1005
 4315TIP3    H137140   1.208   3.675  17.748  0.2303 -0.7751  0.9988
 4315TIP3    H237141   1.261   3.745  17.871  3.3298 -1.5765  0.2252
 4316TIP3   OH237142   6.116   5.988  18.162  0.2695  0.5116 -0.3599
 4316TIP3    H137143   6.197   5.955  18.200 -0.3114 -1.0495 -0.4066
 4316TIP3    H237144   6.047   5.938  18.205 -0.5473  0.3008 -1.8350
 4317TIP3   OH237145   1.332   0.487  19.016  0.5121 -0.6340  0.7010
 4317TIP3    H137146   1.317   0.473  18.922  2.6470 -1.0588  0.3850
 4317TIP3    H237147   1.399   0.555  19.020  0.2966 -0.4751  1.9259
 4318TIP3   OH237148   4.399   2.224  16.506 -0.2741 -0.2750 -0.2762
 4318TIP3    H137149   4.451   2.222  16.426 -0.1474 -1.4806 -0.1780
 4318TIP3    H237150   4.401   2.134  16.538  0.7037  0.4249  1.7558
 4319TIP3   OH237151   2.592   4.281  18.290  0.4597 -0.3835 -0.8489
 4319TIP3    H137152   2.611   4.223  18.364 -0.8303 -0.2071 -0.3517
 4319TIP3    H237153   2.609   4.228  18.212  2.0075 -0.5177 -0.4543
 4320TIP3   OH237154   7.593   0.411  18.983 -0.2087 -0.2817  0.1656
 4320TIP3    H137155   7.632   0.362  18.910  0.1169 -1.4750  1.1030
 4320TIP3    H237156   7.555   0.343  19.039 -3.3559  0.7571 -0.4899
 4321TIP3   OH237157   3.588   4.837  18.908  0.0441 -0.1103 -0.2170
 4321TIP3    H137158   3.553   4.763  18.957 -0.3180 -0.6130 -1.2089
 4321TIP3    H237159   3.603   4.803  18.820 -0.5611  1.1068 -0.8185
 4322TIP3   OH237160   2.922   4.975  18.073 -0.0988  0.7110  0.5061
 4322TIP3    H137161   2.988   4.930  18.021  0.1366  0.8055  0.7256
 4322TIP3    H237162   2.930   4.938  18.161  2.2887  3.3744  1.5733
 4323TIP3   OH237163   1.678   6.795  18.679  0.0621  0.3642  0.1676
 4323TIP3    H137164   1.599   6.752  18.648 -0.4904  0.0210  1.9513
 4323TIP3    H237165   1.750   6.738  18.651 -0.4529 -0.2088  0.0009
 4324TIP3   OH237166   2.817   5.808  17.937  0.2314 -0.4151 -0.5153
 4324TIP3    H137167   2.800   5.748  18.010  1.5269  0.3500  0.4766
 4324TIP3    H237168   2.912   5.803  17.924  0.1503  0.2220 -1.4757
 4325TIP3   OH237169   5.366   1.301  18.584 -0.1623 -0.4834 -0.6170
 4325TIP3    H137170   5.394   1.389  18.609 -0.9532 -0.7938  1.5111
 4325TIP3    H237171   5.285   1.315  18.535 -0.0067 -0.0053 -0.7478
 4326TIP3   OH237172   7.738   0.864  18.000  0.3978 -0.1627 -0.0016
 4326TIP3    H137173   7.796   0.857  17.924  1.9160  0.8007  1.0050
 4326TIP3    H237174   7.665   0.918  17.969  1.0874  0.3792 -0.7481
 4327TIP3   OH237175   3.963   4.139  18.002  0.0328 -0.0150  0.0239
 4327TIP3    H137176   4.035   4.202  17.999 -1.0952  1.4608  1.9088
 4327TIP3    H237177   3.999   4.062  18.046  1.0430 -0.2149 -1.0993
 4328TIP3   OH237178   1.652   2.399  18.505 -0.0514 -0.5038 -0.2343
 4328TIP3    H137179   1.634   2.402  18.411 -0.5201 -0.5677 -0.1490
 4328TIP3    H237180   1.617   2.315  18.533 -1.3486  0.1747  0.2742
 4329TIP3   OH237181   2.501   7.791  17.912 -0.0657  0.6113  0.8160
 4329TIP3    H137182   2.549   7.714  17.940  2.1946  1.7684  0.3455
 4329TIP3    H237183   2.443   7.760  17.842  2.0948 -0.3809 -0.6339
 4330TIP3   OH237184   3.934   5.459  18.039  0.2949  0.5347 -0.4229
 4330TIP3    H137185   4.018   5.498  18.066  1.4570  0.0243 -2.9647
 4330TIP3    H237186   3.881   5.533  18.011  1.4135  0.6373 -2.4759
 4331TIP3   OH237187   6.036   0.220  18.089 -0.1011 -0.1597 -0.5043
 4331TIP3    H137188   5.983   0.172  18.153 -0.2768 -0.9075 -1.1897
 4331TIP3    H237189   5.974   0.254  18.026  0.0872  0.4469 -0.3690
 4332TIP3   OH237190   5.657   4.508  17.738  0.1699 -0.0061  0.2605
 4332TIP3    H137191   5.641   4.579  17.676  0.4088  1.0090  1.3276
 4332TIP3    H237192   5.751   4.510  17.754  0.3755 -1.3428 -0.5707
 4333TIP3   OH237193   4.260   6.443  17.810  0.4758  0.6256 -0.0230
 4333TIP3    H137194   4.277   6.363  17.761 -0.5754  0.2854  0.1546
 4333TIP3    H237195   4.165   6.455  17.806  0.5377  1.4524  0.5912
 4334TIP3   OH237196   4.897   4.801  17.234 -0.0092  0.2583 -0.2222
 4334TIP3    H137197   4.939   4.739  17.292 -0.2898 -0.5203 -0.8388
 4334TIP3    H237198   4.962   4.819  17.166  0.0998  0.7011 -0.0043
 4335TIP3   OH237199   7.624   5.390  18.772  0.4694  0.5061  0.6671
 4335TIP3    H137200   7.658   5.366  18.686 -0.8997  0.0086  0.2334
 4335TIP3    H237201   7.570   5.467  18.755  1.4934  1.4217  1.3754
 4336TIP3   OH237202   1.190   1.672  18.301 -0.1672  0.1433  0.0560
 4336TIP3    H137203   1.170   1.581  18.321 -0.4577 -0.1447 -1.4704
 4336TIP3    H237204   1.202   1.713  18.387 -0.5580 -1.2004  0.7777
 4337TIP3   OH237205   4.534   2.615  17.745 -0.2080  0.2487  0.2361
 4337TIP3    H137206   4.464   2.551  17.739 -0.5314  0.6026  0.1427
 4337TIP3    H237207   4.606   2.578  17.694 -0.8077  0.4891 -0.8142
 4338TIP3   OH237208   6.443   7.021  18.488  0.3787 -0.2983 -0.7249
 4338TIP3    H137209   6.400   7.106  18.490 -0.7500 -0.8530 -0.4989
 4338TIP3    H237210   6.427   6.988  18.399 -0.4297 -0.8800 -0.3722
 4339TIP3   OH237211   7.984   4.384  18.277  0.0734  0.0445  0.1544
 4339TIP3    H137212   7.971   4.415  18.367  1.6530 -0.4792  0.5886
 4339TIP3    H237213   7.936   4.447  18.223 -0.8561  0.3925  1.3486
 4340TIP3   OH237214   2.942   5.505  16.857 -0.4906  0.0794  0.6915
 4340TIP3    H137215   3.016   5.566  16.852 -0.2880 -0.2231 -0.0381
 4340TIP3    H237216   2.867   5.557  16.831 -0.3303  0.0425  0.1506
 4341TIP3   OH237217   0.610   0.774  18.379 -0.4589  0.1591  0.3563
 4341TIP3    H137218   0.649   0.858  18.353 -1.0329  0.8434  1.5945
 4341TIP3    H237219   0.516   0.788  18.373 -0.5536 -0.7316 -0.3832
 4342TIP3   OH237220   0.894   5.393  18.407 -0.6200  0.2512 -0.5853
 4342TIP3    H137221   0.982   5.406  18.443 -0.8620  0.1194  0.0788
 4342TIP3    H237222   0.851   5.334  18.470 -0.4732 -1.4791 -2.0265
 4343TIP3   OH237223   8.181   1.596  18.658  0.5514 -0.3605  0.5649
 4343TIP3    H137224   8.094   1.569  18.629  0.8687 -0.1257 -0.6791
 4343TIP3    H237225   8.236   1.519  18.644  0.4681 -0.6480  1.7603
 4344TIP3   OH237226   2.212   3.425  18.211  0.5004  0.1795 -0.0044
 4344TIP3    H137227   2.225   3.445  18.304  0.4086 -1.9979  0.5428
 4344TIP3    H237228   2.118   3.439  18.197  0.4676  0.2738  0.2942
 4345TIP3   OH237229   4.802   5.814  18.302 -0.3394 -0.0797  0.1811
 4345TIP3    H137230   4.822   5.751  18.371 -2.8961 -1.4425 -0.1875
 4345TIP3    H237231   4.715   5.848  18.325 -0.8790  0.0751 -1.8383
 4346TIP3   OH237232   0.979   3.917  19.153 -0.3619 -0.1802  0.8421
 4346TIP3    H137233   1.020   3.976  19.090 -2.4287  0.4405  0.0163
 4346TIP3    H237234   1.015   3.831  19.131  1.0458  0.4315  0.6508
 4347TIP3   OH237235   3.682   3.237  18.060  0.3358 -0.0700 -0.1981
 4347TIP3    H137236   3.720   3.204  17.979 -0.9708  1.0752 -1.3306
 4347TIP3    H237237   3.634   3.163  18.097  0.6835 -0.5160 -0.6390
 4348TIP3   OH237238   3.248   3.602  18.524  0.4345  0.0896  0.4669
 4348TIP3    H137239   3.219   3.512  18.509 -0.7397  0.6539 -0.8494
 4348TIP3    H237240   3.300   3.623  18.446 -1.1559  1.2570 -0.3419
 4349TIP3   OH237241   2.226   3.547  18.469 -0.0611  0.7333 -0.1162
 4349TIP3    H137242   2.140   3.586  18.450 -0.9081 -1.3024 -0.7450
 4349TIP3    H237243   2.228   3.538  18.564  0.1996  2.3171  0.0585
 4350TIP3   OH237244   7.160   4.788  17.694 -0.2592 -0.1364  0.4222
 4350TIP3    H137245   7.157   4.796  17.789 -2.2833  1.6068  0.2936
 4350TIP3    H237246   7.110   4.709  17.675  0.3155 -0.5962  0.8052
 4351TIP3   OH237247   6.726   7.082  18.543 -0.3361 -0.1203 -0.9404
 4351TIP3    H137248   6.639   7.043  18.537 -0.3127 -1.5921  3.8958
 4351TIP3    H237249   6.786   7.007  18.548  0.7747  0.7471 -0.6423
 4352TIP3   OH237250   4.597   2.000  18.132 -0.7162  0.1222 -0.1717
 4352TIP3    H137251   4.659   2.029  18.065 -0.2777  1.4600  0.7570
 4352TIP3    H237252   4.512   2.002  18.088 -0.4013  0.7073 -0.7835
 4353TIP3   OH237253   5.741   6.335  18.630 -0.1049 -1.1761 -0.3890
 4353TIP3    H137254   5.711   6.284  18.555 -1.1305 -0.8287 -0.2374
 4353TIP3    H237255   5.822   6.292  18.658  0.0716 -1.5533 -1.4304
 4354TIP3   OH237256   1.514   4.390  17.484 -0.5295 -0.2827 -0.3684
 4354TIP3    H137257   1.542   4.458  17.423  1.8150  1.0820  2.0104
 4354TIP3    H237258   1.581   4.322  17.477  0.5398  0.5147  1.5659
 4355TIP3   OH237259   4.205   3.052  18.028  0.3297  0.1680  0.6500
 4355TIP3    H137260   4.157   3.130  18.058  0.5623  0.8629 -0.7393
 4355TIP3    H237261   4.237   3.012  18.109  1.0487  2.0618  1.3588
 4356TIP3   OH237262   7.721   0.029  17.189 -0.0763  0.2686 -0.0216
 4356TIP3    H137263   7.675   0.074  17.117 -0.6364 -0.4732 -0.1380
 4356TIP3    H237264   7.658   0.028  17.261 -0.1174 -0.4193 -0.0579
 4357TIP3   OH237265   3.798   2.843  17.640 -0.0720 -0.2663 -0.0903
 4357TIP3    H137266   3.832   2.754  17.635 -0.4460 -0.4102 -0.1718
 4357TIP3    H237267   3.738   2.849  17.565 -0.0150  0.0643 -0.1065
 4358TIP3   OH237268   1.159   0.736  18.379 -0.0763  0.0662 -0.1305
 4358TIP3    H137269   1.190   0.823  18.405 -0.2069  0.2970 -0.7158
 4358TIP3    H237270   1.071   0.752  18.344 -0.2610 -0.3626  0.1339
 4359TIP3   OH237271   7.982   4.000  17.363 -0.0979 -0.2501 -0.2822
 4359TIP3    H137272   7.934   3.919  17.381  0.6239 -0.6133  0.0309
 4359TIP3    H237273   7.913   4.064  17.341 -0.6020 -1.2997 -1.9512
 4360TIP3   OH237274   5.994   2.198  18.301  0.1711  0.8778 -0.5172
 4360TIP3    H137275   5.916   2.147  18.279  0.3611 -0.1550  1.0512
 4360TIP3    H237276   5.967   2.253  18.374  1.2783 -0.7349  1.2286
 4361TIP3   OH237277   1.029   7.992  17.310  0.3173  0.2770 -0.1860
 4361TIP3    H137278   1.097   7.972  17.375  1.0637  0.1139 -0.9943
 4361TIP3    H237279   1.051   7.938  17.234 -0.3916  0.6439 -0.6688
 4362TIP3   OH237280   8.067   7.559  17.511 -0.3816  0.2745  0.5065
 4362TIP3    H137281   8.046   7.470  17.481  1.0406 -0.4854  1.6018
 4362TIP3    H237282   8.154   7.576  17.476 -0.7290  1.3454  0.1356
 4363TIP3   OH237283   6.068   6.719  18.560 -0.0729  0.5427  0.2352
 4363TIP3    H137284   6.154   6.679  18.571 -0.2755  0.2398  0.7876
 4363TIP3    H237285   6.081   6.812  18.578 -0.1374  0.2717  1.9056
 4364TIP3   OH237286   0.205   0.513  16.546  0.2010  0.0240  0.1064
 4364TIP3    H137287   0.132   0.451  16.550 -0.7107  1.1158  1.5177
 4364TIP3    H237288   0.283   0.459  16.557 -0.4875 -0.9982  0.1217
 4365TIP3   OH237289   3.177   6.921  18.335 -0.1789  0.3302 -0.1948
 4365TIP3    H137290   3.119   6.996  18.328 -1.7337 -0.5829  2.1006
 4365TIP3    H237291   3.120   6.847  18.357  1.3630 -1.4742 -1.7896
 4366TIP3   OH237292   0.959   4.383  18.713 -0.1278 -0.4297 -0.4654
 4366TIP3    H137293   1.039   4.365  18.664 -0.4225  1.9305 -1.9853
 4366TIP3    H237294   0.913   4.299  18.714  1.9455 -1.6346 -0.2665
 4367TIP3   OH237295   0.322   0.275  17.442  0.1768 -0.0699 -0.0729
 4367TIP3    H137296   0.240   0.323  17.446  0.2196  0.0825 -0.8564
 4367TIP3    H237297   0.314   0.219  17.365  0.5389 -0.5626  0.2313
 4368TIP3   OH237298   6.380   7.402  16.655  0.0863 -0.1026 -0.0667
 4368TIP3    H137299   6.473   7.420  16.668 -0.2603  2.2247 -0.2557
 4368TIP3    H237300   6.336   7.457  16.719 -1.2087  1.8675 -2.4387
 4369TIP3   OH237301   7.938   6.099  17.146 -0.3277  0.5929 -0.4389
 4369TIP3    H137302   7.973   6.161  17.082 -1.2852 -0.4212 -2.0197
 4369TIP3    H237303   8.015   6.058  17.186  0.2914  1.2676 -0.9191
 4370TIP3   OH237304   7.592   4.582  18.359 -0.0907 -0.3387 -0.5902
 4370TIP3    H137305   7.617   4.499  18.400  0.6452  0.0902 -0.1503
 4370TIP3    H237306   7.542   4.556  18.281  0.2267 -1.1906 -0.5221
 4371TIP3   OH237307   5.156   3.607  18.366 -0.4442 -0.0453  0.3930
 4371TIP3    H137308   5.146   3.522  18.409 -0.3356 -1.7308 -2.5814
 4371TIP3    H237309   5.190   3.585  18.279 -0.5659  3.0691 -0.5514
 4372TIP3   OH237310   1.082   7.008  16.723 -0.1563  0.0648 -0.1263
 4372TIP3    H137311   1.146   7.064  16.679 -0.5986  0.2118 -0.5968
 4372TIP3    H237312   1.043   7.064  16.790  1.6467 -0.6111  1.5915
 4373TIP3   OH237313   6.574   6.902  17.275 -0.1248  0.5459  0.2706
 4373TIP3    H137314   6.663   6.875  17.300 -0.2688  1.1027  1.4340
 4373TIP3    H237315   6.558   6.981  17.325 -1.1848  0.6114 -0.1500
 4374TIP3   OH237316   1.785   6.678  18.382 -0.5693  0.2427 -0.3957
 4374TIP3    H137317   1.766   6.772  18.378 -1.0754  0.1599 -0.0343
 4374TIP3    H237318   1.815   6.656  18.294 -1.4459  0.5315 -0.7782
 4375TIP3   OH237319   4.689   1.564  18.667  0.0883 -0.5285 -0.7241
 4375TIP3    H137320   4.746   1.619  18.721 -1.8084  0.2721  0.5680
 4375TIP3    H237321   4.747   1.528  18.600  1.8104  1.3753 -0.3467
 4376TIP3   OH237322   2.267   5.980  16.513 -0.1193 -0.7867 -0.2820
 4376TIP3    H137323   2.350   5.936  16.529  0.0124 -0.1763  0.8587
 4376TIP3    H237324   2.201   5.910  16.517 -0.1576 -0.7366  3.6000
 4377TIP3   OH237325   5.756   0.081  18.160 -0.6464  0.0920  0.0399
 4377TIP3    H137326   5.685   0.100  18.098 -0.2743 -1.6705 -0.9784
 4377TIP3    H237327   5.785  -0.007  18.138 -0.5696 -0.6659  2.8337
 4378TIP3   OH237328   4.704   8.401  18.009 -0.4547  0.2617 -0.0269
 4378TIP3    H137329   4.649   8.345  17.954  0.3286 -0.6351  0.0752
 4378TIP3    H237330   4.778   8.424  17.953 -0.3238  0.4436  0.2213
 4379TIP3   OH237331   0.099   5.746  17.700  0.2304  0.1109  0.4295
 4379TIP3    H137332   0.009   5.776  17.687  0.7834  1.5350 -0.3429
 4379TIP3    H237333   0.149   5.787  17.630  1.4799 -0.7480  0.7678
 4380TIP3   OH237334   5.568   0.140  17.975 -0.3289 -0.2712  0.9826
 4380TIP3    H137335   5.495   0.202  17.975 -0.4398 -0.4012  1.1424
 4380TIP3    H237336   5.541   0.070  17.915 -1.1617 -1.2806  2.4643
 4381TIP3   OH237337   6.459   5.206  16.688  0.3035  0.5380  0.0466
 4381TIP3    H137338   6.407   5.215  16.608 -0.6219  0.0750  0.5795
 4381TIP3    H237339   6.406   5.151  16.745  2.2404 -1.7130 -0.1225
 4382TIP3   OH237340   2.224   6.082  17.049 -0.1221 -0.3834 -0.4064
 4382TIP3    H137341   2.230   6.067  16.955 -0.1733 -1.4284 -0.2496
 4382TIP3    H237342   2.143   6.131  17.061  0.2300  0.3532 -0.9655
 4383TIP3   OH237343   5.163   4.191  18.346 -0.0519 -0.2111 -0.1947
 4383TIP3    H137344   5.112   4.243  18.284 -0.1271 -1.0561 -0.8546
 4383TIP3    H237345   5.239   4.245  18.366 -0.5564  0.5153 -0.2012
 4384TIP3   OH237346   1.154   7.870  18.643 -0.2511  0.4034  0.0338
 4384TIP3    H137347   1.228   7.878  18.703 -0.3825 -0.5999  0.3455
 4384TIP3    H237348   1.190   7.827  18.566 -0.3660  0.4955 -0.0712
 4385TIP3   OH237349   4.849   3.911  18.408 -0.0543  0.3401  0.3519
 4385TIP3    H137350   4.867   3.880  18.319 -1.1503  1.1783 -0.1907
 4385TIP3    H237351   4.835   4.005  18.398  0.3774  0.5377  1.5107
 4386TIP3   OH237352   7.121   2.538  18.066 -0.1641 -0.0468 -0.2680
 4386TIP3    H137353   7.062   2.480  18.018  0.7006 -1.3453  0.1664
 4386TIP3    H237354   7.064   2.601  18.109 -1.1412 -0.5456 -0.8057
 4387TIP3   OH237355   8.254   0.416  17.459 -0.7058  0.0372 -0.1145
 4387TIP3    H137356   8.246   0.326  17.426  1.5998 -0.2865  0.0492
 4387TIP3    H237357   8.227   0.471  17.386 -2.0773 -0.7537 -0.2468
 4388TIP3   OH237358   1.085   3.657  18.642  0.5474  0.0471 -0.0246
 4388TIP3    H137359   1.059   3.606  18.719 -0.4456  0.8907  0.2164
 4388TIP3    H237360   1.140   3.726  18.677  0.1089  0.4220 -0.0705
 4389TIP3   OH237361   0.539   6.769  18.297  0.2326  0.0132 -0.5739
 4389TIP3    H137362   0.540   6.800  18.387  0.7414 -0.3133 -0.4608
 4389TIP3    H237363   0.484   6.691  18.299 -0.9961  0.8407 -0.8472
 4390TIP3   OH237364   5.800   1.673  18.282 -0.5135  0.4502 -0.2473
 4390TIP3    H137365   5.843   1.754  18.256 -0.8881  0.2981 -1.4366
 4390TIP3    H237366   5.871   1.611  18.296 -0.2314  0.9555  0.5746
 4391TIP3   OH237367   0.882   8.354  16.849 -0.2107  0.1474 -0.0705
 4391TIP3    H137368   0.973   8.327  16.858 -0.8902 -2.3050 -0.0818
 4391TIP3    H237369   0.882   8.446  16.878  1.8840 -0.3884  1.8895
 4392TIP3   OH237370   5.724   3.664  18.282  0.5669  0.4812 -0.5087
 4392TIP3    H137371   5.733   3.667  18.378  1.6846 -1.2359 -0.5232
 4392TIP3    H237372   5.630   3.676  18.267  0.2515 -0.0639  0.8506
 4393TIP3   OH237373   3.545   4.362  18.397  0.2267  0.3458 -0.1408
 4393TIP3    H137374   3.590   4.329  18.320  2.1490  0.5412  0.8257
 4393TIP3    H237375   3.603   4.431  18.431 -0.4777  0.1654  1.5369
 4394TIP3   OH237376   5.469   0.794  18.258  0.0749  0.0877 -0.5761
 4394TIP3    H137377   5.556   0.805  18.219  0.8679  0.9832  1.3207
 4394TIP3    H237378   5.482   0.732  18.330 -1.0013 -0.2505 -0.6503
 4395TIP3   OH237379   2.645   2.667  17.689  0.1688 -0.4290  0.1616
 4395TIP3    H137380   2.550   2.667  17.699 -0.0217  0.4362 -1.2888
 4395TIP3    H237381   2.675   2.595  17.744 -1.1803  0.1455  1.7439
 4396TIP3   OH237382   7.702   4.763  17.808 -0.0390 -0.5093  0.6196
 4396TIP3    H137383   7.746   4.759  17.893  0.0345 -0.5445  0.5795
 4396TIP3    H237384   7.614   4.795  17.829 -0.2055 -1.0662  0.7772
 4397TIP3   OH237385   6.010   7.039  17.185 -0.0536 -0.1265 -0.1241
 4397TIP3    H137386   6.017   7.105  17.116  1.2285 -0.9172 -0.7859
 4397TIP3    H237387   5.938   6.983  17.157  0.4947 -0.4751 -0.8809
 4398TIP3   OH237388   0.462   2.433  18.050 -0.3333  0.1970 -0.8003
 4398TIP3    H137389   0.518   2.382  17.991 -0.1361 -0.3807 -0.1231
 4398TIP3    H237390   0.477   2.524  18.024  1.7300  0.1545  0.0187
 4399TIP3   OH237391   3.864   7.806  17.334 -0.6818 -0.5623  0.3090
 4399TIP3    H137392   3.771   7.811  17.312 -0.3462 -0.8444 -1.3162
 4399TIP3    H237393   3.907   7.787  17.251  1.1764  2.7774  0.3420
 4400TIP3   OH237394   3.259   0.335  17.228  0.3959 -0.7346  0.1925
 4400TIP3    H137395   3.330   0.393  17.200 -0.2474  0.3491  0.6903
 4400TIP3    H237396   3.183   0.365  17.179 -0.2263 -0.3125  1.3649
 4401TIP3   OH237397   6.517   0.168  16.264  0.3275 -0.8303 -0.3431
 4401TIP3    H137398   6.471   0.142  16.184  0.7192  0.7918 -1.1321
 4401TIP3    H237399   6.610   0.156  16.244  0.4815  0.5125 -0.5124
 4402TIP3   OH237400   8.099   4.299  17.542 -0.7346  0.4824  0.0891
 4402TIP3    H137401   8.036   4.323  17.473 -1.9889  0.1932  1.0895
 4402TIP3    H237402   8.164   4.246  17.497 -2.0613 -0.5353 -0.7319
 4403TIP3   OH237403   5.903   0.082  18.889  0.2529  0.3066 -0.5460
 4403TIP3    H137404   5.956   0.149  18.846 -1.3279  0.9362 -1.6104
 4403TIP3    H237405   5.824   0.076  18.835 -1.4686  0.5364  1.8144
 4404TIP3   OH237406   7.543   4.585  19.095 -0.1237 -0.0048 -0.3174
 4404TIP3    H137407   7.602   4.514  19.121 -1.1157 -0.5324  0.5859
 4404TIP3    H237408   7.550   4.588  19.000 -1.1057 -2.2795 -0.5152
 4405TIP3   OH237409   8.391   1.656  18.317 -0.5843 -0.0409 -0.2054
 4405TIP3    H137410   8.478   1.627  18.346 -1.1739 -0.3060  1.4478
 4405TIP3    H237411   8.404   1.687  18.228  1.2160 -0.0468  0.0172
 4406TIP3   OH237412   3.118   5.877  18.258 -0.0972 -0.0662  0.2752
 4406TIP3    H137413   3.140   5.784  18.260 -2.3505 -0.6592 -0.2594
 4406TIP3    H237414   3.199   5.921  18.286  0.6006 -2.2263  1.9135
 4407TIP3   OH237415   0.226   4.811  17.135 -0.6441  0.0260 -0.3414
 4407TIP3    H137416   0.181   4.766  17.064 -2.2026 -1.2801  1.3660
 4407TIP3    H237417   0.187   4.898  17.138 -1.7760 -0.4728 -0.0748
 4408TIP3   OH237418   8.214   2.446  19.035 -0.2526  0.5815  0.0643
 4408TIP3    H137419   8.264   2.442  19.117 -1.3951  1.1864  0.8247
 4408TIP3    H237420   8.188   2.538  19.028  1.5327  1.0111 -2.0650
 4409TIP3   OH237421   2.050   5.379  18.176 -0.1807  0.4755 -0.2542
 4409TIP3    H137422   2.069   5.286  18.176 -0.5921  0.3728 -1.2936
 4409TIP3    H237423   2.115   5.417  18.117  0.3532  0.9414  0.6141
 4410TIP3   OH237424   7.125   7.594  16.735  0.1932 -0.2662  0.6257
 4410TIP3    H137425   7.171   7.628  16.812 -0.0710  0.4401  0.4776
 4410TIP3    H237426   7.115   7.501  16.752 -1.3645  0.1487  2.2222
 4411TIP3   OH237427   7.289   6.284  18.555  0.1573 -0.0800  0.0154
 4411TIP3    H137428   7.302   6.325  18.640  0.0671  0.7732 -0.3786
 4411TIP3    H237429   7.363   6.313  18.502  0.7906 -1.4545  0.1025
 4412TIP3   OH237430   2.735   6.450  17.245  0.3029  0.2032  0.3411
 4412TIP3    H137431   2.824   6.464  17.214  1.6100  0.5176  3.8465
 4412TIP3    H237432   2.685   6.524  17.210  1.8577  1.0746 -0.1070
 4413TIP3   OH237433   1.112   3.529  17.694 -0.2347  0.3968 -0.2237
 4413TIP3    H137434   1.066   3.459  17.649  0.4220  0.5064 -1.1151
 4413TIP3    H237435   1.127   3.496  17.782  1.5174 -1.3254 -1.0642
 4414TIP3   OH237436   4.441   1.937  17.306 -0.4348 -0.1654  0.2489
 4414TIP3    H137437   4.390   1.940  17.387 -1.3015 -1.3706 -0.2120
 4414TIP3    H237438   4.531   1.954  17.333 -0.9421  1.1106  1.2190
 4415TIP3   OH237439   0.278   4.685  18.485  0.4602  0.2843 -0.5653
 4415TIP3    H137440   0.324   4.647  18.560 -0.9121 -0.6543 -0.1631
 4415TIP3    H237441   0.238   4.764  18.519 -2.2335 -1.3812  0.4660
 4416TIP3   OH237442   8.191   6.681  18.898  0.0064  0.3275 -0.0659
 4416TIP3    H137443   8.139   6.612  18.855 -0.5641  0.2167  0.7789
 4416TIP3    H237444   8.154   6.763  18.865 -1.5193  0.2814  1.3791
 4417TIP3   OH237445   6.875   3.080  17.619 -0.1851 -0.1667 -0.5139
 4417TIP3    H137446   6.895   3.094  17.711  2.0782  1.0572 -1.1098
 4417TIP3    H237447   6.915   2.996  17.597 -0.7620 -0.4793 -0.3810
 4418TIP3   OH237448   2.172   8.084  17.244  0.2978 -0.2808 -0.2165
 4418TIP3    H137449   2.260   8.080  17.205  0.6020  1.7263  0.1435
 4418TIP3    H237450   2.183   8.141  17.320 -1.8717  2.7181 -1.9320
 4419TIP3   OH237451   5.152   3.119  17.400  0.0518  0.0069  0.6154
 4419TIP3    H137452   5.213   3.087  17.334 -1.1431 -1.9672  0.3844
 4419TIP3    H237453   5.136   3.211  17.376  0.0782 -0.4985 -1.4983
 4420TIP3   OH237454   6.476   0.902  18.819 -0.3511  0.4407  0.2587
 4420TIP3    H137455   6.443   0.978  18.866  0.3988  0.8406  0.1521
 4420TIP3    H237456   6.456   0.920  18.727 -4.0408 -1.4246  0.4948
 4421TIP3   OH237457   3.126   2.806  17.454 -0.0717 -0.6038 -0.3116
 4421TIP3    H137458   3.140   2.861  17.377  1.3385 -0.0078  0.3206
 4421TIP3    H237459   3.058   2.852  17.504  0.7649  0.3764 -0.0183
 4422TIP3   OH237460   3.210   0.935  18.465 -0.2918 -0.0204  0.3309
 4422TIP3    H137461   3.147   0.935  18.393 -0.4323 -0.4250  0.4555
 4422TIP3    H237462   3.182   1.007  18.522 -2.5717 -2.1422  2.0856
 4423TIP3   OH237463   1.902   2.284  17.673  0.1945  0.2167  1.1674
 4423TIP3    H137464   1.975   2.299  17.734 -0.6060 -0.0755  2.2305
 4423TIP3    H237465   1.824   2.283  17.729 -0.7364  1.4056 -0.0381
 4424TIP3   OH237466   3.991   4.051  18.551 -0.2741 -0.0012  0.4812
 4424TIP3    H137467   3.974   4.132  18.502  0.1232  0.5310  1.2014
 4424TIP3    H237468   3.905   4.013  18.567 -0.3725 -1.7963 -3.1993
 4425TIP3   OH237469   7.942   7.186  18.398 -0.3772 -0.3403 -0.3174
 4425TIP3    H137470   7.864   7.205  18.346 -2.2678 -1.7325  1.8646
 4425TIP3    H237471   7.916   7.202  18.488  1.5874 -1.7096  0.5718
 4426TIP3   OH237472   3.394   5.065  18.948  0.3347 -0.1581  0.5125
 4426TIP3    H137473   3.357   5.049  18.861  1.0965 -0.0459  0.1607
 4426TIP3    H237474   3.459   4.997  18.960 -0.0155 -0.3916  1.1556
 4427TIP3   OH237475   1.189   4.649  17.670  0.5394 -0.1132  0.1935
 4427TIP3    H137476   1.196   4.583  17.601  0.2088  0.4271 -0.3532
 4427TIP3    H237477   1.266   4.704  17.658  0.4609  0.0054  0.2410
 4428TIP3   OH237478   3.861   5.723  18.444 -0.0489 -0.2699 -0.4595
 4428TIP3    H137479   3.771   5.693  18.432  0.0574 -0.3194 -1.1480
 4428TIP3    H237480   3.872   5.794  18.381 -0.0485  0.7229  0.6167
 4429TIP3   OH237481   8.284   1.465  18.024 -0.3379 -0.1914 -0.3133
 4429TIP3    H137482   8.365   1.473  18.074 -0.6564  1.8964 -0.0055
 4429TIP3    H237483   8.313   1.443  17.935  0.6789  1.4408 -0.4308
 4430TIP3   OH237484   2.265   6.169  16.785  1.5013 -0.1284 -0.6023
 4430TIP3    H137485   2.274   6.122  16.702 -0.5512 -1.0201 -0.4008
 4430TIP3    H237486   2.265   6.262  16.760  1.2938 -0.3740 -1.5646
 4431TIP3   OH237487   6.298   3.289  18.303  0.2445  0.2173  0.1973
 4431TIP3    H137488   6.313   3.247  18.387  0.4149 -0.0671  0.0249
 4431TIP3    H237489   6.356   3.365  18.304 -0.9961  1.1905  1.0350
 4432TIP3   OH237490   3.733   3.998  17.400 -0.1537  0.0308  0.7912
 4432TIP3    H137491   3.737   4.080  17.352  1.4064 -0.4032  0.0855
 4432TIP3    H237492   3.692   3.937  17.339  0.7968 -0.2444  0.3987
 4433TIP3   OH237493   4.796   2.819  17.930 -0.0220  0.7968 -0.1021
 4433TIP3    H137494   4.756   2.886  17.874  0.1304 -0.7038 -2.0934
 4433TIP3    H237495   4.722   2.766  17.960  0.1871 -0.7212 -2.0959
 4434TIP3   OH237496   5.135   2.517  16.378 -0.1315  0.2832 -0.0397
 4434TIP3    H137497   5.044   2.494  16.399  0.1157 -1.3071 -0.5246
 4434TIP3    H237498   5.185   2.439  16.401  0.7036  0.0104 -2.4609
 4435TIP3   OH237499   8.027   3.928  18.042 -0.6027  0.0321  0.1661
 4435TIP3    H137500   8.090   3.947  18.112 -0.8834  0.5242  0.2855
 4435TIP3    H237501   7.961   3.997  18.049  0.1860  1.0425 -1.5999
 4436TIP3   OH237502   2.887   1.387  17.285  0.2946 -0.1910  0.1763
 4436TIP3    H137503   2.858   1.321  17.222 -0.4239  0.6023 -0.3621
 4436TIP3    H237504   2.902   1.465  17.232  1.6319 -0.0555  0.7308
 4437TIP3   OH237505   3.929   1.091  16.997 -0.4926  0.2639  0.6248
 4437TIP3    H137506   3.926   0.995  16.992 -2.8988  0.3410 -0.4386
 4437TIP3    H237507   3.847   1.116  17.039 -0.6709  1.9130 -0.5829
 4438TIP3   OH237508   0.143   2.041  18.770 -0.1947  0.2360  0.1924
 4438TIP3    H137509   0.139   2.133  18.796 -0.1587  0.0043  1.0300
 4438TIP3    H237510   0.063   2.003  18.806 -0.5724  0.0919 -0.7782
 4439TIP3   OH237511   2.700   1.864  17.910  0.3235 -0.2669  0.5153
 4439TIP3    H137512   2.684   1.938  17.851 -0.6120 -0.3391  0.6647
 4439TIP3    H237513   2.696   1.787  17.854  0.7360 -0.2486  0.4563
 4440TIP3   OH237514   4.398   6.387  18.128  0.1960 -0.1891  0.5523
 4440TIP3    H137515   4.437   6.308  18.167  0.9744 -0.2140 -0.2531
 4440TIP3    H237516   4.329   6.354  18.071 -0.1347 -0.2237  0.9678
 4441TIP3   OH237517   2.577   7.305  18.468  0.2272  0.6713  0.2584
 4441TIP3    H137518   2.542   7.221  18.500 -0.9178  1.0579  0.0732
 4441TIP3    H237519   2.606   7.287  18.379  1.8838 -0.0021  0.8870
 4442TIP3   OH237520   4.754   7.466  17.266 -0.4085  0.0499 -0.2411
 4442TIP3    H137521   4.749   7.517  17.348  1.5170 -0.8251  0.4899
 4442TIP3    H237522   4.766   7.376  17.295 -2.8041 -0.7499 -1.5293
 4443TIP3   OH237523   3.560   2.255  17.462  0.3363  0.5450 -0.1285
 4443TIP3    H137524   3.603   2.306  17.392 -1.8392  1.9765 -0.5276
 4443TIP3    H237525   3.573   2.308  17.541  0.9778 -0.0167  0.1503
 4444TIP3   OH237526   6.820   3.857  17.909 -0.0927  0.0779 -0.3265
 4444TIP3    H137527   6.870   3.822  17.836  1.5790 -1.8375  1.6117
 4444TIP3    H237528   6.865   3.937  17.933  0.5782 -0.3506 -0.1384
 4445TIP3   OH237529   6.074   7.012  18.270 -0.0353  0.3381  0.3189
 4445TIP3    H137530   5.997   6.957  18.259 -0.1081  0.5454 -0.2874
 4445TIP3    H237531   6.097   7.038  18.180 -1.2187  2.9612  0.6733
 4446TIP3   OH237532   6.028   4.143  18.132 -0.3207 -0.6745 -0.2425
 4446TIP3    H137533   6.111   4.191  18.138  0.0231 -1.4330  2.2125
 4446TIP3    H237534   5.961   4.211  18.140  0.0420 -0.0987 -1.8526
 4447TIP3   OH237535   0.857   7.834  17.838 -0.3479  0.1559  0.1931
 4447TIP3    H137536   0.862   7.926  17.865 -0.0699 -0.1279  1.1689
 4447TIP3    H237537   0.837   7.837  17.745 -2.6673  1.1948  0.6499
 4448TIP3   OH237538   7.610   3.460  18.979  0.6215 -0.1984 -0.1369
 4448TIP3    H137539   7.598   3.547  19.018  0.9455 -0.8392  1.4490
 4448TIP3    H237540   7.554   3.461  18.901 -0.7544  0.8401  0.8084
 4449TIP3   OH237541   7.996   4.863  16.783 -0.5301  0.1420  0.7613
 4449TIP3    H137542   7.905   4.887  16.797 -0.3845  0.6138  0.9241
 4449TIP3    H237543   8.044   4.946  16.789 -0.2753  0.1492 -0.9107
 4450TIP3   OH237544   2.369   1.095  17.577  0.1937 -0.1188  0.0679
 4450TIP3    H137545   2.292   1.151  17.568  1.3480  1.4388 -0.7834
 4450TIP3    H237546   2.434   1.152  17.619  1.1551 -1.0940 -0.0682
 4451TIP3   OH237547   1.761   4.821  17.791  0.1319  0.0438 -0.2342
 4451TIP3    H137548   1.704   4.749  17.820  1.2766 -0.2909  1.3384
 4451TIP3    H237549   1.812   4.783  17.719  0.3580 -0.5772  0.2385
 4452TIP3   OH237550   1.075   6.894  18.682 -0.1032  0.0761 -0.0541
 4452TIP3    H137551   1.170   6.900  18.671 -0.1820 -0.6160 -1.1647
 4452TIP3    H237552   1.047   6.985  18.694  0.6294  0.3344 -0.2485
 4453TIP3   OH237553   7.184   4.398  16.922  0.4616  0.6793 -0.2593
 4453TIP3    H137554   7.111   4.338  16.932 -0.2478  1.1954 -2.0616
 4453TIP3    H237555   7.166   4.468  16.985 -0.0979  0.3458 -0.0387
 4454TIP3   OH237556   0.362   3.275  18.444 -0.3021 -0.0353 -0.0119
 4454TIP3    H137557   0.363   3.225  18.362 -0.2675  1.2498 -0.8191
 4454TIP3    H237558   0.271   3.272  18.473  0.2151 -3.4871  1.8656
 4455TIP3   OH237559   5.974   0.862  18.180  0.3087 -0.5052  0.2455
 4455TIP3    H137560   6.047   0.910  18.221 -0.2062  1.3920 -0.9369
 4455TIP3    H237561   6.014   0.817  18.105  0.4900 -0.5396  0.3618
 4456TIP3   OH237562   7.296   6.103  17.502 -0.3590  0.4309 -0.2208
 4456TIP3    H137563   7.283   6.038  17.571  0.1155 -1.2212 -1.5905
 4456TIP3    H237564   7.219   6.160  17.507 -0.4956  0.1422  1.4119
 4457TIP3   OH237565   5.858   7.739  17.144  0.0094  0.8000  0.2151
 4457TIP3    H137566   5.846   7.657  17.096 -0.9448  0.8819  0.3036
 4457TIP3    H237567   5.873   7.711  17.235 -0.0068  0.7174  0.1927
 4458TIP3   OH237568   5.002   7.466  18.159 -0.2559  0.5955  0.0612
 4458TIP3    H137569   5.059   7.508  18.094  2.2728 -1.5735  0.7380
 4458TIP3    H237570   5.014   7.517  18.239 -0.0223  0.7052 -0.0441
 4459TIP3   OH237571   7.068   7.893  17.561  0.4906  0.1610 -0.1568
 4459TIP3    H137572   7.132   7.888  17.490 -0.4015  0.4489 -1.0214
 4459TIP3    H237573   7.046   7.986  17.568  0.3618  0.0999  0.3022
 4460TIP3   OH237574   1.172   6.537  16.775 -0.1379 -0.5356  0.1465
 4460TIP3    H137575   1.189   6.631  16.785  0.6297 -0.4915 -1.2429
 4460TIP3    H237576   1.225   6.511  16.699 -0.2463 -2.1201  0.5635
 4461TIP3   OH237577   6.402   5.657  17.671 -0.1503  0.6501 -0.2369
 4461TIP3    H137578   6.311   5.681  17.652 -1.0951 -2.1939  0.1736
 4461TIP3    H237579   6.414   5.681  17.763 -1.1041 -0.4699  0.2098
 4462TIP3   OH237580   1.221   5.792  18.420  0.2203  0.6268 -0.5220
 4462TIP3    H137581   1.258   5.837  18.344  0.0518  0.6145 -0.6121
 4462TIP3    H237582   1.215   5.700  18.393  0.0334  0.6448 -0.5434
 4463TIP3   OH237583   1.699   5.271  18.754 -0.0855  0.1730 -0.2203
 4463TIP3    H137584   1.780   5.311  18.786 -0.1775  0.1288  0.0701
 4463TIP3    H237585   1.727   5.192  18.709  0.0091  0.0129  0.1222
 4464TIP3   OH237586   6.408   5.483  16.088 -0.0505  0.5282 -0.0746
 4464TIP3    H137587   6.387   5.516  16.001  0.0130  0.5222 -0.0921
 4464TIP3    H237588   6.351   5.533  16.147 -1.4531 -0.7729 -0.2676
 4465TIP3   OH237589   0.050   7.111  17.133 -0.7274 -0.2576  0.3048
 4465TIP3    H137590  -0.015   7.078  17.071 -0.3690 -0.6075  0.1145
 4465TIP3    H237591   0.132   7.112  17.084 -0.3265 -1.0872  0.9408
 4466TIP3   OH237592   7.657   7.322  18.139  0.0023  0.5481 -0.3431
 4466TIP3    H137593   7.711   7.389  18.182 -0.0981 -0.1851  0.9720
 4466TIP3    H237594   7.567   7.353  18.151 -0.0452  0.1702  0.2817
 4467TIP3   OH237595   3.678   0.929  17.246 -0.5121  0.3127  0.0912
 4467TIP3    H137596   3.666   0.937  17.341  1.8291  1.6668  0.3587
 4467TIP3    H237597   3.644   1.011  17.211 -1.6783 -0.3220 -0.3300
 4468TIP3   OH237598   7.787   4.166  17.888 -0.2049 -0.0351 -0.0473
 4468TIP3    H137599   7.750   4.253  17.906  0.3140 -0.0780  1.3072
 4468TIP3    H237600   7.776   4.155  17.793  0.2762  1.7587 -0.3529
 4469TIP3   OH237601   8.305   5.447  17.037 -0.0483  0.5155  0.1231
 4469TIP3    H137602   8.266   5.422  16.953  0.1512 -2.7472  0.8768
 4469TIP3    H237603   8.389   5.488  17.012  0.3822 -1.0958 -1.3118
 4470TIP3   OH237604   3.262   4.691  18.467 -0.7351 -0.2673 -0.7187
 4470TIP3    H137605   3.315   4.617  18.437  1.7597  1.1892 -0.1940
 4470TIP3    H237606   3.270   4.757  18.399 -0.5124  0.5830  0.1024
 4471TIP3   OH237607   6.938   2.360  17.995  0.5665 -0.5559  0.0753
 4471TIP3    H137608   6.885   2.307  18.055  0.3854 -0.3271  0.1213
 4471TIP3    H237609   6.953   2.303  17.920 -0.1990 -0.4482 -0.1731
 4472TIP3   OH237610   5.585   4.486  16.989  0.0019  0.5957  0.6995
 4472TIP3    H137611   5.615   4.570  17.024  0.0566  0.5903  0.6638
 4472TIP3    H237612   5.616   4.421  17.053 -0.6342  0.6675  1.1010
 4473TIP3   OH237613   6.500   1.617  17.031  0.3453  0.2516 -0.3269
 4473TIP3    H137614   6.471   1.697  16.986  2.9801  0.0622 -2.6540
 4473TIP3    H237615   6.537   1.563  16.961 -0.6393 -2.7427  1.2888
 4474TIP3   OH237616   1.282   1.182  18.490 -0.6488  0.4701  0.1345
 4474TIP3    H137617   1.283   1.122  18.564 -1.1072  1.3101  0.8360
 4474TIP3    H237618   1.218   1.145  18.430 -0.4545 -0.0816  0.2650
 4475TIP3   OH237619   8.118   2.436  18.327 -0.7388  0.1677  0.5262
 4475TIP3    H137620   8.059   2.495  18.373 -1.1627 -0.5420  0.9177
 4475TIP3    H237621   8.069   2.410  18.249 -0.9136 -0.3479  0.8032
 4476TIP3   OH237622   4.396   7.199  17.372  0.0120 -0.2605 -0.4674
 4476TIP3    H137623   4.454   7.233  17.440 -0.7727  0.1732 -0.0047
 4476TIP3    H237624   4.380   7.274  17.315 -1.0891 -0.0467  0.1087
 4477TIP3   OH237625   7.462   6.304  17.930  0.4187  0.0836  0.2610
 4477TIP3    H137626   7.467   6.247  18.007 -0.1887 -1.6488 -0.9402
 4477TIP3    H237627   7.546   6.292  17.886 -0.2279 -0.9795 -0.7187
 4478TIP3   OH237628   7.677   6.193  17.187  0.6808 -0.5056 -0.5090
 4478TIP3    H137629   7.659   6.284  17.211 -1.2962 -1.0110  0.0437
 4478TIP3    H237630   7.773   6.186  17.194  0.8945  1.5334 -0.6547
 4479TIP3   OH237631   7.948   2.092  17.700 -0.2534  0.1495  0.2898
 4479TIP3    H137632   7.998   2.071  17.621 -0.5742  1.0835 -0.1634
 4479TIP3    H237633   7.950   2.010  17.751 -0.8109 -0.7472 -1.0754
 4480TIP3   OH237634   1.406   6.316  17.647 -0.1999  0.2020 -0.6951
 4480TIP3    H137635   1.372   6.380  17.585 -2.1570  0.4203  0.5176
 4480TIP3    H237636   1.450   6.368  17.714 -0.8469  0.2128 -0.2732
 4481TIP3   OH237637   1.574   3.990  18.738  0.0735 -0.0280  0.0513
 4481TIP3    H137638   1.504   4.027  18.684  0.3320  0.3170 -0.0577
 4481TIP3    H237639   1.561   4.030  18.825 -0.1821 -0.3756  0.1743
 4482TIP3   OH237640   3.696   6.362  18.104  0.1499 -0.3577 -0.3587
 4482TIP3    H137641   3.606   6.391  18.112  0.8913  2.1834 -0.5298
 4482TIP3    H237642   3.713   6.314  18.184 -1.0649 -0.0519  0.1041
 4483TIP3   OH237643   0.733   1.656  18.410  0.4779 -0.2630  0.5369
 4483TIP3    H137644   0.796   1.688  18.345  0.1721 -1.2951 -0.3032
 4483TIP3    H237645   0.750   1.708  18.488  0.5642  1.3177 -0.4930
 4484TIP3   OH237646   3.160   3.585  18.073  0.3984  0.5456  0.5271
 4484TIP3    H137647   3.118   3.562  17.990 -0.4584 -0.4672  1.2145
 4484TIP3    H237648   3.097   3.558  18.140  1.6626  0.0851  1.5651
 4485TIP3   OH237649   4.921   0.902  18.610 -0.3870 -0.1031 -0.3079
 4485TIP3    H137650   4.923   0.844  18.534 -0.0372 -0.0208 -0.3643
 4485TIP3    H237651   4.922   0.843  18.686  1.3404 -0.1680 -0.3435
 4486TIP3   OH237652   2.748   7.366  17.717 -0.9203 -0.0410  0.4568
 4486TIP3    H137653   2.669   7.326  17.680 -1.5885  0.7610  0.9527
 4486TIP3    H237654   2.759   7.447  17.666 -0.3450 -0.2032  0.3157
 4487TIP3   OH237655   0.335   4.392  18.675 -0.2450  0.5599 -0.1111
 4487TIP3    H137656   0.301   4.309  18.707 -0.9421  0.6340 -0.6146
 4487TIP3    H237657   0.263   4.428  18.622  0.0479  1.4723  0.0858
 4488TIP3   OH237658   1.303   5.346  18.216 -0.0198  0.5008  0.4509
 4488TIP3    H137659   1.391   5.365  18.184 -0.2608  1.5433  0.3487
 4488TIP3    H237660   1.246   5.363  18.141 -0.3196 -0.0288  0.5584
 4489TIP3   OH237661   2.567   6.490  17.477 -0.1465  0.6837 -0.7664
 4489TIP3    H137662   2.516   6.414  17.504 -0.7226  1.3953  0.2547
 4489TIP3    H237663   2.637   6.455  17.422 -0.1725 -0.6246 -0.0095
 4490TIP3   OH237664   5.976   2.100  17.040 -0.1404  0.2005  0.0235
 4490TIP3    H137665   5.949   2.078  17.129  1.0344 -1.1091  0.0881
 4490TIP3    H237666   6.066   2.131  17.049  0.2552 -0.6648 -0.7654
 4491TIP3   OH237667   7.701   0.166  17.796  0.2522 -0.2560  0.3846
 4491TIP3    H137668   7.714   0.211  17.713  0.9033  0.9962  1.1495
 4491TIP3    H237669   7.630   0.104  17.778  0.5075 -0.1382 -1.1442
 4492TIP3   OH237670   4.014   4.178  18.945 -0.7785 -0.2145 -0.2041
 4492TIP3    H137671   4.099   4.182  18.901 -0.8592  1.2431 -0.2655
 4492TIP3    H237672   3.960   4.123  18.888  0.2662 -1.6703  0.1367
 4493TIP3   OH237673   7.451   0.981  19.113  0.4812  0.1421 -0.2184
 4493TIP3    H137674   7.418   0.930  19.039  2.4351 -0.7229 -0.5784
 4493TIP3    H237675   7.411   1.067  19.103 -2.6639 -1.1354  0.1982
 4494TIP3   OH237676   1.676   0.715  17.103 -0.0898  0.5421 -0.4744
 4494TIP3    H137677   1.759   0.750  17.134 -0.2744  0.2357  0.4068
 4494TIP3    H237678   1.647   0.656  17.174 -1.7554  1.7468 -0.0992
 4495TIP3   OH237679   1.520   0.290  18.804 -0.3218  0.9616 -0.4150
 4495TIP3    H137680   1.550   0.350  18.736 -1.4443  2.3071  0.2333
 4495TIP3    H237681   1.433   0.321  18.828 -1.3645 -1.4874 -0.6608
 4496TIP3   OH237682   0.249   4.925  19.283  0.0495  0.2418 -0.1328
 4496TIP3    H137683   0.335   4.923  19.324  0.5647 -0.2185 -1.2082
 4496TIP3    H237684   0.228   5.018  19.275  0.3509  0.3502  0.3132
 4497TIP3   OH237685   7.745   0.933  18.714  0.0894  0.0443  0.1360
 4497TIP3    H137686   7.695   1.008  18.683 -0.6891 -1.0488 -1.3456
 4497TIP3    H237687   7.821   0.930  18.656 -0.0057 -0.4547  0.0369
 4498TIP3   OH237688   7.252   4.042  16.729 -0.3901  0.3351  0.3647
 4498TIP3    H137689   7.225   4.026  16.819  1.1080 -0.8546  0.6493
 4498TIP3    H237690   7.184   4.001  16.676 -0.9394  0.4520  0.9767
 4499TIP3   OH237691   0.943   7.781  18.325  0.2226 -0.7107 -0.3056
 4499TIP3    H137692   0.859   7.767  18.281  0.5537  0.0124 -1.1978
 4499TIP3    H237693   0.921   7.831  18.403 -0.3720 -1.9956  0.3938
 4500TIP3   OH237694   1.561   2.157  18.569  0.1578 -0.3580 -0.3405
 4500TIP3    H137695   1.510   2.155  18.650 -0.3762 -1.4251 -0.6913
 4500TIP3    H237696   1.527   2.086  18.517  1.8798 -0.9988 -0.6717
 4501TIP3   OH237697   5.987   5.498  17.355  0.4054 -0.1805  0.3532
 4501TIP3    H137698   5.969   5.415  17.313 -0.6760 -0.2065  0.8381
 4501TIP3    H237699   6.032   5.474  17.437 -0.0207 -0.2994  0.5544
 4502TIP3   OH237700   0.437   1.505  17.315 -0.0346 -0.4230  0.2680
 4502TIP3    H137701   0.380   1.582  17.309 -0.1317 -0.3133  1.9619
 4502TIP3    H237702   0.504   1.520  17.249 -1.0815  0.2144 -0.6869
 4503TIP3   OH237703   1.012   8.062  18.502  0.2407  0.1104  0.2121
 4503TIP3    H137704   1.076   7.995  18.524  0.1022  0.0990  0.5789
 4503TIP3    H237705   1.051   8.143  18.534  1.0751  0.4392 -1.4900
 4504TIP3   OH237706   6.497   0.053  18.257  0.1134  0.6890  0.1211
 4504TIP3    H137707   6.413   0.092  18.280  0.4425  1.8287 -0.5704
 4504TIP3    H237708   6.546   0.053  18.339 -0.1912  0.9508  0.3050
 4505TIP3   OH237709   3.464   3.255  18.616  0.2135 -0.1778  0.1971
 4505TIP3    H137710   3.513   3.335  18.639 -0.1005  0.3374 -0.8483
 4505TIP3    H237711   3.530   3.197  18.578  0.2737 -0.0653  0.1294
 4506TIP3   OH237712   0.617   1.043  18.520  0.1491  0.1814  0.6614
 4506TIP3    H137713   0.543   1.097  18.550 -0.9372 -1.0805  0.3457
 4506TIP3    H237714   0.627   1.064  18.427 -0.7556 -0.6576  0.3553
 4507TIP3   OH237715   2.891   3.417  17.328 -0.0528  0.0722 -0.3444
 4507TIP3    H137716   2.875   3.324  17.313 -2.0362  0.6114 -1.9260
 4507TIP3    H237717   2.858   3.461  17.249  2.4109  2.0161 -0.4297
 4508TIP3   OH237718   5.199   1.055  17.558  0.2280 -0.3458  0.2217
 4508TIP3    H137719   5.223   0.986  17.620  3.0891  0.9891  0.7772
 4508TIP3    H237720   5.128   1.017  17.506 -0.7359 -2.3489  2.7945
 4509TIP3   OH237721   6.941   0.228  18.415 -0.5818 -0.0112 -0.2131
 4509TIP3    H137722   7.007   0.227  18.484 -0.2779  1.1067 -0.4705
 4509TIP3    H237723   6.880   0.158  18.439  0.3239 -0.6151  0.3839
 4510TIP3   OH237724   5.620   0.761  17.709 -0.1276  0.2445 -0.5111
 4510TIP3    H137725   5.674   0.741  17.632  0.8974  2.4115 -0.4476
 4510TIP3    H237726   5.655   0.844  17.741 -2.9695  1.3321  0.0733
 4511TIP3   OH237727   1.011   6.286  18.575  0.6585  0.2108 -0.0192
 4511TIP3    H137728   0.920   6.313  18.561 -0.1205 -1.2101  1.8360
 4511TIP3    H237729   1.027   6.218  18.509  0.7594  1.2093 -1.0456
 4512TIP3   OH237730   4.155   1.251  17.577 -0.3959  0.1808 -0.1419
 4512TIP3    H137731   4.195   1.278  17.660  2.2661  0.3259 -1.4075
 4512TIP3    H237732   4.079   1.309  17.568 -1.3576 -0.4873  2.6171
 4513TIP3   OH237733   4.464   1.043  16.715  0.0789 -0.1787 -0.6095
 4513TIP3    H137734   4.523   1.117  16.703  0.6556 -0.0110  2.5529
 4513TIP3    H237735   4.377   1.077  16.693  0.8254  0.0118 -3.7683
 4514TIP3   OH237736   7.861   5.783  17.921  0.3544 -0.7206 -0.0683
 4514TIP3    H137737   7.796   5.834  17.872  0.0408  0.2435  1.2982
 4514TIP3    H237738   7.823   5.695  17.927 -0.8415 -0.1713  0.7002
 4515TIP3   OH237739   5.006   2.654  17.125  0.0658 -0.1507 -0.8505
 4515TIP3    H137740   4.939   2.706  17.081 -0.1022 -0.3351 -0.8175
 4515TIP3    H237741   4.997   2.677  17.218 -1.0274 -1.3497 -0.6355
 4516TIP3   OH237742   6.606   6.427  17.993  0.7980 -0.4441 -0.0353
 4516TIP3    H137743   6.650   6.359  17.942  1.7817  0.6925 -0.7476
 4516TIP3    H237744   6.612   6.505  17.939 -0.1667  0.2612  0.8393
 4517TIP3   OH237745   3.986   5.213  17.380  0.3722 -0.2794  0.5076
 4517TIP3    H137746   3.929   5.279  17.340 -2.3353 -1.9349  1.3262
 4517TIP3    H237747   4.075   5.239  17.354 -0.8641  1.0253 -3.0572
 4518TIP3   OH237748   2.868   1.843  17.530  0.5488 -0.5735 -0.0907
 4518TIP3    H137749   2.932   1.900  17.488  1.8860 -1.9551 -0.0146
 4518TIP3    H237750   2.788   1.896  17.535  2.0783  1.7941  1.2543
 4519TIP3   OH237751   7.201   7.788  17.340 -0.2275  0.5426 -0.0595
 4519TIP3    H137752   7.122   7.753  17.301  0.0359 -1.1816  0.8471
 4519TIP3    H237753   7.272   7.737  17.301  0.2127  0.2887  1.0464
 4520TIP3   OH237754   5.008   6.416  16.989 -0.1607  0.6087 -0.3671
 4520TIP3    H137755   5.096   6.432  17.023  0.7963 -1.3961 -1.7532
 4520TIP3    H237756   4.951   6.424  17.066  1.7310 -2.2381  1.4882
 4521TIP3   OH237757   6.988   2.915  17.189 -0.3541 -0.0131 -0.0814
 4521TIP3    H137758   7.047   2.988  17.207  0.0538 -0.2344 -0.5047
 4521TIP3    H237759   7.038   2.837  17.214 -1.2867 -0.0954  1.7078
 4522TIP3   OH237760   1.024   1.166  17.101  0.1942  0.0604  0.3308
 4522TIP3    H137761   0.947   1.192  17.150  0.0273  0.6453 -0.2282
 4522TIP3    H237762   1.098   1.189  17.158 -0.0281 -0.1273  0.6950
 4523TIP3   OH237763   0.188   6.162  17.364 -0.0056  0.2392  0.1258
 4523TIP3    H137764   0.260   6.183  17.424  1.1542 -1.0895 -0.7347
 4523TIP3    H237765   0.114   6.145  17.422 -0.2597  3.5691  0.9650
 4524TIP3   OH237766   4.720   2.255  18.755 -0.6653  0.7095  0.0959
 4524TIP3    H137767   4.676   2.309  18.689 -0.8090  0.6165  0.1156
 4524TIP3    H237768   4.769   2.318  18.809  0.3668  0.6889 -0.7799
 4525TIP3   OH237769   3.947   1.710  18.328 -0.2198 -0.2107  0.4114
 4525TIP3    H137770   3.899   1.632  18.300 -0.0509 -0.5521  1.0471
 4525TIP3    H237771   3.978   1.750  18.247  0.4434 -1.2849  0.1105
 4526TIP3   OH237772   4.213   5.964  17.670 -0.1361  0.3493  0.1306
 4526TIP3    H137773   4.161   5.950  17.591 -0.2899  1.5533  0.0004
 4526TIP3    H237774   4.281   5.896  17.667  0.6231  1.1368 -1.6749
 4527TIP3   OH237775   3.931   8.045  16.903 -0.3352  0.0131  0.1833
 4527TIP3    H137776   3.860   7.988  16.933  0.2756 -0.5214  0.6611
 4527TIP3    H237777   3.977   7.994  16.837 -0.8073  0.6321 -0.6418
 4528TIP3   OH237778   4.157   8.043  18.234  0.6320 -0.0778  0.1896
 4528TIP3    H137779   4.218   8.092  18.180  0.3030  0.7130  0.5204
 4528TIP3    H237780   4.079   8.032  18.179  0.2217  0.8993  0.5483
 4529TIP3   OH237781   0.564   6.806  18.882  0.0134  0.7780 -0.0202
 4529TIP3    H137782   0.499   6.875  18.884  0.3694  1.1471  2.6708
 4529TIP3    H237783   0.644   6.848  18.851  0.8614  2.3704  3.7519
 4530TIP3   OH237784   1.555   1.460  17.532  0.3042 -0.1814  0.4064
 4530TIP3    H137785   1.492   1.474  17.603  0.1146 -0.9790  0.4050
 4530TIP3    H237786   1.501   1.436  17.457  0.4368  1.4043 -0.2472
 4531TIP3   OH237787   1.043   6.196  17.847 -0.1674  0.1112 -0.1621
 4531TIP3    H137788   0.983   6.134  17.805 -0.5952 -0.5917  1.3849
 4531TIP3    H237789   1.129   6.154  17.841  0.0890  0.8110 -1.7966
 4532TIP3   OH237790   1.694   0.411  16.976  0.0216  0.3366 -0.7136
 4532TIP3    H137791   1.656   0.375  16.896  0.0563 -0.2401 -0.4725
 4532TIP3    H237792   1.746   0.486  16.946 -1.4074  1.2499 -1.0364
 4533TIP3   OH237793   6.373   5.941  18.235  0.0606  0.3241  0.3161
 4533TIP3    H137794   6.446   5.960  18.177 -0.1107 -0.4238 -0.1551
 4533TIP3    H237795   6.407   5.958  18.323  0.0012  2.5029 -0.0322
 4534TIP3   OH237796   3.895   6.896  18.299 -0.0732 -0.4036 -0.1310
 4534TIP3    H137797   3.988   6.896  18.276  0.3022  2.0966  1.1633
 4534TIP3    H237798   3.851   6.919  18.217  0.5245 -0.4649 -0.4800
 4535TIP3   OH237799   3.253   2.358  17.722 -0.4583  0.4765 -0.1635
 4535TIP3    H137800   3.256   2.309  17.640 -1.5351  0.2199 -0.0641
 4535TIP3    H237801   3.220   2.295  17.786 -3.2832  1.6392 -0.3210
 4536TIP3   OH237802   2.079   2.438  18.689 -0.2948 -0.4894  0.5464
 4536TIP3    H137803   2.063   2.357  18.641 -0.4506 -0.6154  0.8100
 4536TIP3    H237804   2.049   2.507  18.630  1.5926 -0.4800 -0.4813
 4537TIP3   OH237805   2.935   0.912  16.813 -0.0777 -0.1245 -0.4330
 4537TIP3    H137806   2.893   0.998  16.808 -0.7941 -0.4369  0.0062
 4537TIP3    H237807   3.029   0.931  16.813 -0.2318  0.6769 -0.0802
 4538TIP3   OH237808   2.182   0.306  17.557  0.1621  0.3505  0.0430
 4538TIP3    H137809   2.247   0.304  17.486 -0.5104  0.2481 -0.5754
 4538TIP3    H237810   2.098   0.290  17.514 -0.2638  0.3168  0.8600
 4539TIP3   OH237811   1.688   7.364  18.230  0.2889  0.3813  0.1408
 4539TIP3    H137812   1.605   7.396  18.264 -0.2632 -1.5659  0.7938
 4539TIP3    H237813   1.664   7.315  18.151  0.9503  0.6496 -0.2313
 4540TIP3   OH237814   5.755   8.314  17.120  0.6245  0.2803 -0.0959
 4540TIP3    H137815   5.764   8.221  17.141 -0.1433 -0.0102 -0.9912
 4540TIP3    H237816   5.681   8.318  17.060  1.5306  1.3027 -1.1875
 4541TIP3   OH237817   5.195   3.994  17.076  0.3735 -0.2077 -0.2109
 4541TIP3    H137818   5.240   3.993  17.160 -2.5801  0.7393  1.5360
 4541TIP3    H237819   5.210   4.083  17.042  0.7030 -0.2449 -0.1590
 4542TIP3   OH237820   4.831   4.041  17.794  0.2832 -0.5211  0.7603
 4542TIP3    H137821   4.912   3.997  17.767 -0.4523 -0.3079 -2.0443
 4542TIP3    H237822   4.802   4.087  17.716 -2.2888 -0.1557  1.8541
 4543TIP3   OH237823   0.880   2.400  17.176  0.4187  0.0804  0.4782
 4543TIP3    H137824   0.955   2.420  17.120  0.4531  0.4924  0.6716
 4543TIP3    H237825   0.804   2.405  17.117  0.4206  0.8394  0.5417
 4544TIP3   OH237826   4.276   3.180  17.752 -0.5444 -0.4803 -0.1317
 4544TIP3    H137827   4.213   3.237  17.706 -1.0119 -0.7913  0.1202
 4544TIP3    H237828   4.243   3.174  17.841  1.1540  1.3186  0.6982
 4545TIP3   OH237829   4.233   1.801  16.911 -0.4795 -0.6542 -0.0697
 4545TIP3    H137830   4.303   1.746  16.948 -1.3762 -0.6577  1.7278
 4545TIP3    H237831   4.152   1.755  16.934 -1.1258 -0.1417 -1.2580
 4546TIP3   OH237832   5.271   4.279  17.037 -0.1137  1.0418 -0.1831
 4546TIP3    H137833   5.333   4.273  16.965  2.1067 -1.3847  1.7147
 4546TIP3    H237834   5.309   4.343  17.097 -0.8106  1.4554 -0.1773
 4547TIP3   OH237835   3.569   3.844  17.226  0.4245 -0.0933 -0.4956
 4547TIP3    H137836   3.496   3.892  17.188  1.4759  0.7844 -1.4420
 4547TIP3    H237837   3.589   3.776  17.162  1.6806  0.8849 -1.1632
 4548TIP3   OH237838   3.728   7.508  18.741  0.3508 -0.1808  0.0100
 4548TIP3    H137839   3.769   7.588  18.706 -0.5467  1.1215  1.7536
 4548TIP3    H237840   3.796   7.467  18.794  1.1750 -1.2407 -1.7968
 4549TIP3   OH237841   0.793   3.961  18.409  0.1242 -0.2410  0.4376
 4549TIP3    H137842   0.709   3.961  18.454  0.1661 -1.6434  0.5672
 4549TIP3    H237843   0.785   4.030  18.343 -1.2943 -0.6566  0.1426
 4550TIP3   OH237844   6.725   1.000  17.533  0.7378  0.0292 -0.4071
 4550TIP3    H137845   6.773   0.959  17.605  0.4246 -0.1372 -0.2947
 4550TIP3    H237846   6.656   0.937  17.511  0.2150  0.5242 -0.1964
 4551TIP3   OH237847   0.646   6.683  16.875 -0.0936 -0.4768  0.3406
 4551TIP3    H137848   0.553   6.664  16.862 -0.1587 -0.5033  0.8145
 4551TIP3    H237849   0.687   6.657  16.793 -0.5737  0.0517 -0.0760
 4552TIP3   OH237850   1.784   1.641  17.707 -0.5668 -0.2326  0.0125
 4552TIP3    H137851   1.824   1.572  17.761 -1.6824 -0.1926  0.9094
 4552TIP3    H237852   1.759   1.596  17.626  0.4734 -0.4452 -0.2070
 4553TIP3   OH237853   2.694   5.988  16.779 -0.5561 -0.3516 -0.2360
 4553TIP3    H137854   2.698   5.894  16.798  1.0567 -0.5351 -1.2794
 4553TIP3    H237855   2.785   6.016  16.774 -1.0040  1.1709 -0.4483
 4554TIP3   OH237856   0.846   2.775  18.277 -0.5304 -0.0005  0.5167
 4554TIP3    H137857   0.816   2.835  18.345 -0.4477 -0.8820  1.3513
 4554TIP3    H237858   0.912   2.721  18.320  2.4990  1.9935 -1.3078
 4555TIP3   OH237859   0.274   7.790  17.039 -0.2513 -0.3275  0.3344
 4555TIP3    H137860   0.215   7.715  17.036 -0.6190 -0.0852  1.2043
 4555TIP3    H237861   0.313   7.794  16.951 -0.4422 -1.3508  0.1987
 4556TIP3   OH237862   5.432   3.266  17.341  0.0378 -0.0108  0.1299
 4556TIP3    H137863   5.361   3.319  17.377 -0.6669  0.5162 -1.8958
 4556TIP3    H237864   5.500   3.330  17.320  0.5104 -0.3352  0.6395
 4557TIP3   OH237865   5.660   4.158  18.028  0.6875  0.4455  0.0072
 4557TIP3    H137866   5.671   4.220  18.100 -1.7136  1.0321 -0.0641
 4557TIP3    H237867   5.642   4.074  18.070  1.2729  0.3524  0.0810
 4558TIP3   OH237868   4.582   6.227  17.277  0.0772 -0.1704  0.4336
 4558TIP3    H137869   4.568   6.165  17.348 -1.2798  1.1357  1.3655
 4558TIP3    H237870   4.495   6.260  17.255  0.6903  1.0341 -0.3697
 4559TIP3   OH237871   0.192   6.095  17.755 -0.3243  0.0987 -0.5825
 4559TIP3    H137872   0.138   6.048  17.691 -0.5555  2.5772 -2.3727
 4559TIP3    H237873   0.278   6.103  17.712  0.3718 -0.5457  0.6289
 4560TIP3   OH237874   4.937   7.602  17.069  0.5256  0.2241 -0.7872
 4560TIP3    H137875   4.881   7.547  17.123 -1.6932 -0.9674 -3.9829
 4560TIP3    H237876   5.020   7.607  17.117 -0.5295 -2.4917  1.5906
 4561TIP3   OH237877   4.531   0.782  16.741 -1.0723 -0.1508  0.3955
 4561TIP3    H137878   4.441   0.752  16.753 -1.3473  1.4757  3.5481
 4561TIP3    H237879   4.524   0.877  16.735  0.1464 -0.1297 -4.5653
 4562TIP3   OH237880   4.489   6.123  18.241 -0.1109 -0.0641  0.0591
 4562TIP3    H137881   4.520   6.054  18.181 -1.4073  0.4177 -1.2285
 4562TIP3    H237882   4.545   6.115  18.317  3.1988  0.7426 -2.0713
 4563TIP3   OH237883   2.354   7.180  18.845 -0.0732 -0.4604  0.2357
 4563TIP3    H137884   2.412   7.111  18.878  0.1705 -1.2993 -1.7914
 4563TIP3    H237885   2.371   7.182  18.750 -1.0843  1.4571  0.0547
 4564TIP3   OH237886   2.339   6.598  18.376  0.2172  0.2050 -0.3252
 4564TIP3    H137887   2.314   6.604  18.469  1.0076 -0.1985 -0.0728
 4564TIP3    H237888   2.346   6.504  18.360 -1.3271  0.2134 -1.2018
 4565TIP3   OH237889   4.248   3.965  18.697  0.4943  0.2087 -0.2563
 4565TIP3    H137890   4.244   3.982  18.603  1.9596  0.6602 -0.2724
 4565TIP3    H237891   4.164   3.925  18.718 -1.0113  2.6619 -1.2289
 4566TIP3   OH237892   5.489   7.134  17.431 -0.2040  0.7825  0.0562
 4566TIP3    H137893   5.420   7.100  17.487 -0.5192  1.5803  0.1662
 4566TIP3    H237894   5.443   7.173  17.357  0.1776  0.3584 -0.4159
 4567TIP3   OH237895   0.910   5.099  18.024 -0.2882  0.1771 -0.7746
 4567TIP3    H137896   0.944   5.016  17.990 -1.1210 -0.5584  0.1168
 4567TIP3    H237897   0.981   5.161  18.010  0.3413 -0.6647 -1.5102
 4568TIP3   OH237898   0.330   6.374  16.763 -0.0901 -0.1029  0.0410
 4568TIP3    H137899   0.415   6.390  16.721 -0.0647 -0.7275 -0.1538
 4568TIP3    H237900   0.282   6.319  16.701 -0.2861 -0.5302  0.5611
 4569TIP3   OH237901   5.602   2.787  18.895 -0.0198  0.1158 -0.1026
 4569TIP3    H137902   5.590   2.880  18.876 -1.2733 -0.0109 -0.0150
 4569TIP3    H237903   5.519   2.747  18.871  0.4735 -0.9728 -0.0453
 4570TIP3   OH237904   6.761   6.337  17.542 -0.2648 -0.1837 -0.3164
 4570TIP3    H137905   6.780   6.303  17.454  0.1682  1.0762 -0.7366
 4570TIP3    H237906   6.712   6.418  17.526 -0.8904 -0.3601  0.6380
 4571TIP3   OH237907   2.910   6.062  18.350  0.1942  0.1345 -0.8036
 4571TIP3    H137908   2.955   5.995  18.298  1.6971  0.0740  0.4983
 4571TIP3    H237909   2.980   6.119  18.381 -0.2320 -1.0685  2.9163
 4572TIP3   OH237910   7.703   2.740  18.999 -0.1888  0.2821 -0.5795
 4572TIP3    H137911   7.628   2.775  18.951 -1.7572 -1.3640  0.5124
 4572TIP3    H237912   7.685   2.761  19.091  0.0435 -1.1736 -0.1751
 4573TIP3   OH237913   7.755   2.173  18.732  0.3248  0.0139  0.0852
 4573TIP3    H137914   7.820   2.152  18.666 -0.4471 -0.4043 -0.5589
 4573TIP3    H237915   7.715   2.255  18.702 -0.6786 -0.6634 -0.4870
 4574TIP3   OH237916   0.903   6.530  16.933 -0.0853 -0.0546 -0.1821
 4574TIP3    H137917   0.973   6.552  16.870  1.4476 -0.5548  1.2870
 4574TIP3    H237918   0.923   6.441  16.960 -2.7197 -1.1253 -1.4728
 4575TIP3   OH237919   1.080   3.268  17.778  0.4313  0.0315 -0.2811
 4575TIP3    H137920   1.037   3.268  17.692  1.2004 -1.5560 -0.7132
 4575TIP3    H237921   1.024   3.211  17.832 -1.2563  2.7092  0.9877
 4576TIP3   OH237922   3.812   3.300  18.473  0.0795 -0.0217  0.0114
 4576TIP3    H137923   3.758   3.342  18.407 -0.4860 -1.0937 -0.2312
 4576TIP3    H237924   3.802   3.206  18.456 -0.4843 -0.3538  1.9095
 4577TIP3   OH237925   2.484   5.814  18.659 -0.6864  0.7750  0.2607
 4577TIP3    H137926   2.523   5.728  18.679 -0.0438  1.1945  0.8602
 4577TIP3    H237927   2.397   5.810  18.700  0.0162  1.0409  1.8830
 4578TIP3   OH237928   2.318   3.485  17.038 -0.6783  0.6741  0.1637
 4578TIP3    H137929   2.251   3.450  16.979 -0.0610 -1.9943  0.8790
 4578TIP3    H237930   2.388   3.515  16.980 -0.4309 -1.1604 -0.5672
 4579TIP3   OH237931   4.151   6.362  17.349  0.5763  0.0416  0.1480
 4579TIP3    H137932   4.095   6.432  17.380  1.6475  1.2936 -0.6660
 4579TIP3    H237933   4.142   6.364  17.254 -1.0256 -2.3651  0.1408
 4580TIP3   OH237934   2.142   0.385  18.417  0.2286  0.3942  0.3118
 4580TIP3    H137935   2.207   0.324  18.383  0.3440  0.1120  1.0208
 4580TIP3    H237936   2.120   0.441  18.342  1.0358  0.2828 -0.0193
 4581TIP3   OH237937   6.180   4.698  17.607 -0.0474  0.3827 -0.0854
 4581TIP3    H137938   6.116   4.749  17.657  0.1048 -0.6336  1.2105
 4581TIP3    H237939   6.262   4.748  17.615 -0.2082  0.6307  0.0186
 4582TIP3   OH237940   6.056   2.943  18.578  0.0950  0.6334 -0.2132
 4582TIP3    H137941   6.068   2.974  18.668  0.9533  0.5142 -0.2798
 4582TIP3    H237942   6.018   3.018  18.532  1.7504  1.4763 -0.2730
 4583TIP3   OH237943   8.105   5.475  16.447  0.2494  0.1088 -0.5390
 4583TIP3    H137944   8.074   5.401  16.394 -1.3105  0.7550 -0.5714
 4583TIP3    H237945   8.091   5.552  16.392 -0.5337  0.6988  0.4555
 4584TIP3   OH237946   0.615   6.017  18.009 -0.0100  0.3926 -0.2304
 4584TIP3    H137947   0.533   5.971  17.990  0.0112 -0.3388  1.2885
 4584TIP3    H237948   0.600   6.106  17.978 -1.2999  0.2099 -0.2104
 4585TIP3   OH237949   3.465   7.998  17.467 -0.1174  0.3614 -0.2794
 4585TIP3    H137950   3.413   7.982  17.546 -0.4654  1.0265 -0.3685
 4585TIP3    H237951   3.517   7.918  17.456 -0.5222  0.0171  0.2697
 4586TIP3   OH237952   0.791   5.193  18.244  0.7297 -0.0617 -0.0816
 4586TIP3    H137953   0.846   5.169  18.169  0.9837  0.7297 -0.1499
 4586TIP3    H237954   0.829   5.274  18.277  1.4315 -1.0688  1.7317
 4587TIP3   OH237955   7.159   1.636  18.062  0.0221 -0.0263  0.4792
 4587TIP3    H137956   7.107   1.709  18.096  0.2976  1.0115 -1.2404
 4587TIP3    H237957   7.236   1.633  18.119 -1.3223 -0.8726  2.3579
 4588TIP3   OH237958   4.356   4.780  17.319  0.2573 -0.5473 -0.0118
 4588TIP3    H137959   4.447   4.796  17.295  0.5298 -1.5931  0.2636
 4588TIP3    H237960   4.339   4.690  17.290 -0.3894 -0.7042  0.8119
 4589TIP3   OH237961   0.353   5.274  18.411  0.3703 -0.2666 -0.4589
 4589TIP3    H137962   0.359   5.354  18.463  0.0472 -0.4796 -0.0946
 4589TIP3    H237963   0.352   5.305  18.320  1.2721  0.0898 -0.3643
 4590TIP3   OH237964   5.626   1.272  18.024  0.4237  0.6773  0.2663
 4590TIP3    H137965   5.636   1.190  18.072  1.6373  1.4490  1.3932
 4590TIP3    H237966   5.546   1.312  18.059 -0.1909 -0.0153 -0.3130
 4591TIP3   OH237967   0.238   4.361  17.272 -0.0962 -0.2866 -0.1949
 4591TIP3    H137968   0.272   4.417  17.203  0.5271  1.2328  1.2551
 4591TIP3    H237969   0.152   4.399  17.293 -0.2520 -0.6910 -0.0965
 4592TIP3   OH237970   5.508   4.046  17.818 -0.6580 -0.0268 -0.5625
 4592TIP3    H137971   5.566   4.090  17.879 -1.5868  2.1304 -1.1492
 4592TIP3    H237972   5.537   3.955  17.818  2.9358  0.9988 -1.1252
 4593TIP3   OH237973   6.968   6.246  18.879  0.4668  0.3928  0.1321
 4593TIP3    H137974   7.008   6.309  18.939  0.5018  1.1764 -0.6965
 4593TIP3    H237975   6.968   6.290  18.794 -0.1234 -0.4685 -0.3310
 4594TIP3   OH237976   5.076   3.927  17.757  0.5358  0.6577 -0.0577
 4594TIP3    H137977   5.166   3.939  17.725  1.1630  3.5482  2.2544
 4594TIP3    H237978   5.086   3.870  17.834  0.0674 -0.5935 -0.9058
 4595TIP3   OH237979   1.349   4.601  16.921 -0.2403 -0.3645  0.1969
 4595TIP3    H137980   1.387   4.537  16.860 -0.0485 -0.8635  0.8355
 4595TIP3    H237981   1.323   4.550  16.997  0.0205  0.3368  0.7676
 4596TIP3   OH237982   4.523   7.418  18.277 -0.5188  0.1848 -0.4226
 4596TIP3    H137983   4.462   7.430  18.350 -0.7159 -0.9517 -0.3740
 4596TIP3    H237984   4.474   7.449  18.201 -0.5509  0.7811 -0.1614
 4597TIP3   OH237985   5.409   2.408  17.204  0.5341  0.0704  0.6886
 4597TIP3    H137986   5.333   2.358  17.173  0.4194  0.5785  0.1275
 4597TIP3    H237987   5.397   2.495  17.166  1.7216 -0.0155  0.0753
 4598TIP3   OH237988   0.038   2.683  18.029 -0.2756  0.2383 -0.3711
 4598TIP3    H137989   0.037   2.606  18.087 -0.8033  0.3551 -0.2168
 4598TIP3    H237990  -0.047   2.681  17.986 -1.1037  1.8012  1.0641
 4599TIP3   OH237991   8.132   6.672  17.384  0.4171  0.0834 -0.2671
 4599TIP3    H137992   8.216   6.674  17.429  0.9192  0.1780 -1.1810
 4599TIP3    H237993   8.125   6.758  17.341 -0.7775  0.6076  0.8905
 4600TIP3   OH237994   7.858   2.815  18.137 -0.0931  0.7032 -0.2106
 4600TIP3    H137995   7.941   2.777  18.165 -0.0907  1.4533  0.8433
 4600TIP3    H237996   7.832   2.762  18.061  0.9573 -0.0212 -0.0877
 4601TIP3   OH237997   6.550   2.323  18.707 -0.1510 -0.1415  0.0617
 4601TIP3    H137998   6.546   2.267  18.784  1.2711  0.1376  0.3611
 4601TIP3    H237999   6.516   2.407  18.738  0.0305 -0.1468  0.2841
 4602TIP3   OH238000   5.708   1.698  18.702  0.4819 -0.4454  0.2426
 4602TIP3    H138001   5.672   1.762  18.641 -1.2264 -1.2484  0.3493
 4602TIP3    H238002   5.779   1.744  18.746  1.9877  0.0777 -2.5015
 4603TIP3   OH238003   1.244   1.480  18.718 -0.3901 -0.5375 -0.5851
 4603TIP3    H138004   1.290   1.399  18.742  1.0398  0.5118  0.3363
 4603TIP3    H238005   1.232   1.473  18.624  1.7927 -0.8259 -0.9053
 4604TIP3   OH238006   2.013   4.628  18.129 -0.2469 -0.1127 -0.4645
 4604TIP3    H138007   2.077   4.561  18.108 -0.0580 -0.1762  0.3025
 4604TIP3    H238008   1.961   4.637  18.049  1.7243  1.1009 -1.6938
 4605TIP3   OH238009   0.117   1.299  18.096  0.4610 -0.7470  0.2525
 4605TIP3    H138010   0.148   1.258  18.177  1.1337 -0.3126  0.2227
 4605TIP3    H238011   0.197   1.332  18.053 -0.0656  0.7305  0.3468
 4606TIP3   OH238012   1.041   8.335  17.567 -0.3977 -0.0781 -0.2242
 4606TIP3    H138013   1.127   8.293  17.577 -1.1832 -1.4536  1.0569
 4606TIP3    H238014   1.022   8.329  17.473 -0.3324 -2.3336 -0.1319
 4607TIP3   OH238015   8.226   0.337  18.345 -0.1535  0.1491  0.1935
 4607TIP3    H138016   8.196   0.292  18.266 -1.2620 -0.2876  0.8447
 4607TIP3    H238017   8.286   0.405  18.312  0.3693 -0.8143 -0.9136
 4608TIP3   OH238018   4.126   2.330  17.509  0.1321  0.1376 -0.0659
 4608TIP3    H138019   4.073   2.382  17.448  1.2450 -1.3065 -2.3950
 4608TIP3    H238020   4.063   2.267  17.546 -0.1391 -0.5866 -1.6603
 4609TIP3   OH238021   1.967   6.104  18.651  0.0417  0.3783 -0.2917
 4609TIP3    H138022   2.025   6.094  18.727 -0.0648  0.2574 -0.2264
 4609TIP3    H238023   1.971   6.197  18.629 -1.2791  0.7577  0.9341
 4610TIP3   OH238024   0.306   4.774  17.908 -0.5568 -0.4729  0.2108
 4610TIP3    H138025   0.213   4.784  17.888 -0.5482  0.3267  0.5083
 4610TIP3    H238026   0.310   4.770  18.003 -0.2784 -0.3290  0.2091
 4611TIP3   OH238027   3.435   2.938  17.098  0.3805 -0.3809 -0.1602
 4611TIP3    H138028   3.355   2.943  17.046  0.6753  1.8274 -0.4909
 4611TIP3    H238029   3.455   3.028  17.121  1.9937 -1.0099  1.1707
 4612TIP3   OH238030   1.584   6.912  17.357 -0.0119  0.1385  0.4016
 4612TIP3    H138031   1.604   6.819  17.359  0.6021  0.2701  0.6434
 4612TIP3    H238032   1.518   6.924  17.425  0.6647  0.0413  1.0934
 4613TIP3   OH238033   1.347   5.950  17.090 -0.3040  0.5507 -0.3197
 4613TIP3    H138034   1.438   5.921  17.091 -1.3881 -3.4117 -0.9155
 4613TIP3    H238035   1.329   5.970  16.998 -0.6344 -1.2098 -0.6814
 4614TIP3   OH238036   6.743   2.287  18.172  0.4557  0.1390  0.0641
 4614TIP3    H138037   6.662   2.301  18.123  1.8244  1.7053 -1.9050
 4614TIP3    H238038   6.717   2.293  18.264 -1.7064  0.1281 -0.4985
 4615TIP3   OH238039   4.325   2.996  16.395 -0.0996  0.2818 -1.0657
 4615TIP3    H138040   4.309   2.993  16.490  2.2638  2.4416 -0.4792
 4615TIP3    H238041   4.245   3.036  16.359 -1.2605 -1.0757 -0.1155
 4616TIP3   OH238042   3.914   7.325  17.633 -0.4674 -0.2091  0.4436
 4616TIP3    H138043   3.997   7.319  17.681  0.0795  1.4147 -0.2203
 4616TIP3    H238044   3.854   7.365  17.696 -0.5723 -0.8045  0.7236
 4617TIP3   OH238045   7.897   8.012  18.371 -0.0761 -0.0020 -0.0907
 4617TIP3    H138046   7.983   8.049  18.353 -0.1571  0.3645  0.2789
 4617TIP3    H238047   7.879   8.034  18.462 -1.8972  2.6359 -0.9685
 4618TIP3   OH238048   7.929   6.459  18.135  0.0766 -0.2663  0.6964
 4618TIP3    H138049   7.898   6.412  18.058  0.7829  0.9011 -0.3472
 4618TIP3    H238050   7.851   6.502  18.170  0.0587  0.8420 -0.5982
 4619TIP3   OH238051   0.289   2.768  18.260  0.1521 -0.2876  0.1873
 4619TIP3    H138052   0.383   2.775  18.241  0.1633 -1.4278 -0.2690
 4619TIP3    H238053   0.246   2.798  18.180  0.1541 -1.1014 -0.1285
 4620TIP3   OH238054   4.733   5.799  16.860 -0.3293 -0.6922  0.8864
 4620TIP3    H138055   4.656   5.805  16.803  0.6112  2.8174 -0.2908
 4620TIP3    H238056   4.698   5.807  16.949 -1.4065  0.6126  0.3837
 4621TIP3   OH238057   5.072   3.334  18.491 -0.6188  0.1213  0.1412
 4621TIP3    H138058   5.078   3.242  18.466  1.8621  0.4611 -0.8591
 4621TIP3    H238059   4.979   3.350  18.503 -1.1681 -2.3581 -0.2317
 4622TIP3   OH238060   2.318   7.101  17.228 -0.2740 -0.3156 -0.6271
 4622TIP3    H138061   2.365   7.038  17.283 -0.8195  0.9591  1.3966
 4622TIP3    H238062   2.227   7.093  17.255 -0.8824 -0.9089 -2.6735
 4623TIP3   OH238063   1.391   6.453  18.304 -0.0868  0.2934 -0.1477
 4623TIP3    H138064   1.326   6.488  18.364  0.6697  0.0136  0.8632
 4623TIP3    H238065   1.475   6.476  18.343  0.4328  0.1286 -1.1170
 4624TIP3   OH238066   6.579   2.427  17.974 -0.2997  0.2645  0.3526
 4624TIP3    H138067   6.518   2.385  18.035 -1.5608  0.5746 -0.6756
 4624TIP3    H238068   6.610   2.355  17.918 -0.2798  0.2368  0.3991
 4625TIP3   OH238069   7.985   5.644  18.710 -0.2634  0.4286 -0.2612
 4625TIP3    H138070   7.984   5.650  18.615  0.0371 -1.6766 -0.4369
 4625TIP3    H238071   8.002   5.552  18.729  0.2082  0.8794  1.8373
 4626TIP3   OH238072   6.331   3.018  18.484  0.0262 -0.3626  0.0301
 4626TIP3    H138073   6.328   3.004  18.389  0.5281 -0.1782 -0.0144
 4626TIP3    H238074   6.260   2.963  18.518  0.8925 -1.7357 -0.2970
 4627TIP3   OH238075   0.300   0.219  17.721 -0.7338 -0.7680 -0.1319
 4627TIP3    H138076   0.389   0.217  17.757 -1.5821 -0.5436  2.1700
 4627TIP3    H238077   0.312   0.231  17.627  1.6548 -0.4037  0.1587
 4628TIP3   OH238078   5.501   0.560  17.113 -0.0329 -0.6382  0.2458
 4628TIP3    H138079   5.529   0.471  17.135  2.8953  0.1862  0.3147
 4628TIP3    H238080   5.513   0.566  17.018 -2.9247 -1.0816 -0.2439
 4629TIP3   OH238081   3.338   7.071  17.374 -0.2955  0.3795 -0.1426
 4629TIP3    H138082   3.418   7.070  17.427 -0.4304  2.4213  0.1791
 4629TIP3    H238083   3.284   7.139  17.414 -2.0919 -0.7579 -0.5394
 4630TIP3   OH238084   2.981   4.706  18.522  0.5256  0.4642 -0.6039
 4630TIP3    H138085   3.063   4.755  18.528  0.9659 -0.2578 -0.6876
 4630TIP3    H238086   3.001   4.631  18.466  0.1195 -0.3142  0.2571
 4631TIP3   OH238087   6.129   3.076  18.807  0.2554  0.4513 -0.0137
 4631TIP3    H138088   6.209   3.101  18.762  0.1135 -1.3304 -1.3731
 4631TIP3    H238089   6.088   3.159  18.831  1.6610  1.4148 -0.7846
 4632TIP3   OH238090   2.855   3.831  18.036  0.1065 -0.1559 -0.2775
 4632TIP3    H138091   2.833   3.778  18.113  1.3546 -0.7783 -0.3252
 4632TIP3    H238092   2.772   3.870  18.010 -0.4977 -0.6063  0.8833
 4633TIP3   OH238093   5.945   2.843  18.327 -0.1111  0.2369  0.0237
 4633TIP3    H138094   5.934   2.883  18.413 -1.6270 -0.0352 -0.0229
 4633TIP3    H238095   5.975   2.754  18.346 -0.3899  0.1948  0.2582
 4634TIP3   OH238096   3.644   4.232  17.577 -0.2311  0.0046  0.5310
 4634TIP3    H138097   3.561   4.186  17.587  0.1667 -0.9765 -0.3900
 4634TIP3    H238098   3.701   4.194  17.645 -0.4244  0.3986  0.9114
 4635TIP3   OH238099   6.176   7.494  17.783 -0.2876 -0.5241 -0.3158
 4635TIP3    H138100   6.160   7.555  17.711  0.3237 -0.9244 -0.7988
 4635TIP3    H238101   6.261   7.455  17.763  0.2662 -0.0578  1.0510
 4636TIP3   OH238102   7.174   4.241  19.260  0.6860 -0.1388 -0.0698
 4636TIP3    H138103   7.212   4.321  19.295 -1.1304  1.2118 -1.0072
 4636TIP3    H238104   7.080   4.249  19.277  0.0884 -0.7065 -2.6701
 4637TIP3   OH238105   1.702   6.132  16.342 -0.1396  0.1415 -0.2425
 4637TIP3    H138106   1.627   6.189  16.360 -0.8433 -0.1946 -1.9651
 4637TIP3    H238107   1.778   6.189  16.354 -0.5677  0.3582  2.0423
 4638TIP3   OH238108   4.047   5.274  18.285  0.3950  0.4734  0.3512
 4638TIP3    H138109   3.969   5.321  18.255 -0.6308 -1.6056 -0.4508
 4638TIP3    H238110   4.020   5.232  18.366  0.8127  0.0811  0.2890
 4639TIP3   OH238111   3.960   5.550  17.120 -0.0336 -0.0233 -0.1611
 4639TIP3    H138112   4.018   5.485  17.080  1.3306 -0.1575  1.9131
 4639TIP3    H238113   4.000   5.634  17.097 -0.2638 -0.0142 -0.5448
 4640TIP3   OH238114   2.808   2.712  18.437  0.8483 -0.2327  0.1507
 4640TIP3    H138115   2.752   2.656  18.491  1.6276 -1.5828 -0.3887
 4640TIP3    H238116   2.799   2.677  18.349  0.4911  1.2283 -0.4315
 4641TIP3   OH238117   3.635   4.898  17.209 -0.1914 -0.4786 -0.6206
 4641TIP3    H138118   3.648   4.911  17.115  0.6917 -0.6561 -0.5323
 4641TIP3    H238119   3.716   4.930  17.249 -0.0603 -1.4982 -0.0180
 4642TIP3   OH238120   8.320   5.061  18.638 -0.3137  0.2649  0.2277
 4642TIP3    H138121   8.310   4.990  18.575 -0.6982  0.7526 -0.2735
 4642TIP3    H238122   8.306   5.020  18.723 -2.3723  0.0516 -0.1506
 4643TIP3   OH238123   0.846   6.864  18.868 -0.0374  0.4110 -0.1592
 4643TIP3    H138124   0.914   6.865  18.802 -0.8100 -0.2564 -0.9847
 4643TIP3    H238125   0.882   6.915  18.941  1.6161 -0.5125 -0.2824
 4644TIP3   OH238126   1.922   6.655  18.133 -0.0632  0.0979  0.1376
 4644TIP3    H138127   1.849   6.697  18.087  0.3780 -0.1375 -0.7993
 4644TIP3    H238128   2.000   6.697  18.096  0.2709  1.7158  2.4547
 4645TIP3   OH238129   3.538   4.649  18.110  0.0457 -0.2261 -0.6858
 4645TIP3    H138130   3.544   4.701  18.030  3.2178 -0.9786 -1.1041
 4645TIP3    H238131   3.630   4.632  18.133 -0.7671 -0.6315  2.7403
 4646TIP3   OH238132   1.762   8.066  18.160 -0.1903  0.3069  0.3631
 4646TIP3    H138133   1.729   8.139  18.107 -0.9003 -0.5606 -0.4301
 4646TIP3    H238134   1.687   8.039  18.213  0.7083  1.6782  2.5003
 4647TIP3   OH238135   5.008   6.404  17.703  0.2978  0.0603  0.1808
 4647TIP3    H138136   4.947   6.401  17.630 -1.0634 -0.0372  1.2862
 4647TIP3    H238137   5.053   6.320  17.701  0.8214  0.3467 -0.9680
 4648TIP3   OH238138   1.925   2.066  18.282 -0.2216 -0.1079  0.5740
 4648TIP3    H138139   1.990   2.034  18.220 -1.1235  1.5322 -1.3231
 4648TIP3    H238140   1.843   2.026  18.256 -1.0294  2.2321 -0.7700
 4649TIP3   OH238141   4.982   0.596  16.796 -0.2818  0.1181 -0.1674
 4649TIP3    H138142   4.916   0.662  16.774 -0.4521 -0.0189 -0.0660
 4649TIP3    H238143   5.042   0.596  16.721 -1.1220 -0.6823 -0.8568
 4650TIP3   OH238144   6.110   1.756  18.856  0.1911  0.2496  0.1079
 4650TIP3    H138145   6.172   1.828  18.855  1.4054 -0.7510 -1.1441
 4650TIP3    H238146   6.027   1.796  18.882  0.6580  2.2292 -1.2007
 4651TIP3   OH238147   6.061   6.431  16.477 -0.3013 -0.1300 -0.2963
 4651TIP3    H138148   6.100   6.370  16.415  0.3146  1.3337 -1.3878
 4651TIP3    H238149   6.096   6.404  16.562 -0.4021 -1.5582 -0.6795
 4652TIP3   OH238150   3.639   1.063  18.594  0.1518  0.2857  0.0085
 4652TIP3    H138151   3.593   1.009  18.657 -1.4415  2.3010  0.6940
 4652TIP3    H238152   3.679   1.133  18.647  0.7937  0.6864 -0.9733
 4653TIP3   OH238153   4.798   6.024  18.093 -0.2037 -0.8564 -0.3512
 4653TIP3    H138154   4.892   6.037  18.100 -0.3717  0.6021 -0.4587
 4653TIP3    H238155   4.780   5.948  18.149  0.8601 -0.3169  0.7713
 4654TIP3   OH238156   3.411   7.003  18.442 -0.5783 -0.6749 -0.0115
 4654TIP3    H138157   3.329   7.000  18.393 -0.5376 -1.7632 -0.0325
 4654TIP3    H238158   3.478   6.986  18.375 -0.4394 -1.1174  0.2421
 4655TIP3   OH238159   6.401   1.009  17.387  0.1535  0.3034  0.4853
 4655TIP3    H138160   6.310   0.983  17.372 -0.2746  1.0024  1.7273
 4655TIP3    H238161   6.418   1.076  17.321 -0.7657  1.3036  1.2308
 4656TIP3   OH238162   3.001   6.086  17.084  0.4097  0.3825 -0.0033
 4656TIP3    H138163   2.975   6.032  17.158  1.7200  0.1926  0.3580
 4656TIP3    H238164   3.031   6.168  17.123 -0.4504  0.9201 -0.4595
 4657TIP3   OH238165   7.054   0.629  18.421 -0.3758 -0.0621 -0.1809
 4657TIP3    H138166   7.121   0.658  18.359 -0.4290 -0.4394 -0.4175
 4657TIP3    H238167   6.971   0.656  18.382 -0.4300 -0.5871 -0.4362
 4658TIP3   OH238168   0.962   5.392  18.908  0.2869 -0.2529  0.0550
 4658TIP3    H138169   1.047   5.415  18.871  0.5735 -0.4087  0.6123
 4658TIP3    H238170   0.941   5.465  18.966 -1.3461  1.2606 -2.2907
 4659TIP3   OH238171   4.833   0.538  17.917 -0.3217  0.6281 -0.2747
 4659TIP3    H138172   4.757   0.523  17.861  0.2531  1.0119 -1.1892
 4659TIP3    H238173   4.890   0.463  17.900 -0.6248  0.1787  0.6468
 4660TIP3   OH238174   1.962   2.577  18.468 -0.3828  0.2826  0.3015
 4660TIP3    H138175   1.941   2.532  18.386  0.7298  0.2039  0.0346
 4660TIP3    H238176   1.889   2.557  18.526  0.0590 -1.9228  0.1989
 4661TIP3   OH238177   4.844   6.003  17.546  0.3067  0.0270  0.3582
 4661TIP3    H138178   4.812   5.952  17.620  0.1248 -1.7428 -0.8772
 4661TIP3    H238179   4.938   5.983  17.543  0.8788  2.2341  1.6946
 4662TIP3   OH238180   0.007   8.395  17.699 -0.3234  0.1570  0.0920
 4662TIP3    H138181   0.058   8.389  17.780 -1.0749 -0.3059  0.5424
 4662TIP3    H238182   0.021   8.485  17.668  1.1126 -0.0905 -0.0386
 4663TIP3   OH238183   4.904   0.672  17.649  0.0779 -0.1484  0.0766
 4663TIP3    H138184   4.948   0.653  17.732 -0.0549 -1.0519 -0.0510
 4663TIP3    H238185   4.863   0.590  17.624  0.4155  0.0075 -1.0691
 4664TIP3   OH238186   2.288   3.131  17.565 -0.3698  0.6636  0.2172
 4664TIP3    H138187   2.268   3.046  17.605 -0.1880  0.3802 -0.2899
 4664TIP3    H238188   2.296   3.113  17.472 -0.7969  1.3254  0.0427
 4665TIP3   OH238189   7.004   6.067  18.585  0.5450 -0.4249  0.1398
 4665TIP3    H138190   7.068   6.070  18.656 -0.9355 -1.2468  1.5835
 4665TIP3    H238191   6.975   6.158  18.575  2.3621  0.0879 -1.0204
 4666TIP3   OH238192   6.571   7.130  17.970 -0.0261  0.4418 -0.1232
 4666TIP3    H138193   6.634   7.195  18.000  0.2101  0.7060 -1.1394
 4666TIP3    H238194   6.498   7.137  18.031  0.8676  0.2065  1.0072
 4667TIP3   OH238195   3.455   6.486  17.332  0.6225  0.2727  0.2402
 4667TIP3    H138196   3.473   6.392  17.325 -0.1526  0.1467 -0.1987
 4667TIP3    H238197   3.492   6.523  17.252  0.1208  0.1975 -0.0358
 4668TIP3   OH238198   6.101   6.828  17.347 -0.5201 -0.2115  0.1496
 4668TIP3    H138199   6.013   6.834  17.385 -0.4693 -1.6715  0.5553
 4668TIP3    H238200   6.105   6.901  17.285 -1.6116  0.5550  0.9265
 4669TIP3   OH238201   5.949   5.669  19.054 -0.8438  0.0652  0.0782
 4669TIP3    H138202   5.883   5.717  19.003 -0.6518  1.0403  0.7216
 4669TIP3    H238203   5.945   5.708  19.141 -0.2544 -0.6979  0.4542
 4670TIP3   OH238204   1.105   0.415  17.591  0.2621  0.6783  0.9116
 4670TIP3    H138205   1.112   0.340  17.651 -1.1643  1.5428  2.2511
 4670TIP3    H238206   1.017   0.407  17.554 -0.7200  2.6842  2.5799
 4671TIP3   OH238207   0.270   8.164  18.121 -0.3867 -0.0696  0.1391
 4671TIP3    H138208   0.320   8.088  18.092  0.0646  0.8005 -1.5004
 4671TIP3    H238209   0.337   8.231  18.138 -0.8796  0.5825 -0.4237
 4672TIP3   OH238210   0.642   1.686  19.104 -0.1929 -0.1035 -0.2138
 4672TIP3    H138211   0.651   1.731  19.020  0.9502  1.0279  0.4776
 4672TIP3    H238212   0.548   1.689  19.123 -0.4766 -0.4626 -1.4812
 4673TIP3   OH238213   3.091   0.414  17.449  0.4390 -0.0065  0.0871
 4673TIP3    H138214   3.145   0.387  17.374 -0.1716  1.1582 -0.8076
 4673TIP3    H238215   3.142   0.484  17.490  0.3833 -0.0693  0.2657
 4674TIP3   OH238216   2.536   3.786  17.399 -0.2431 -0.3793  0.3709
 4674TIP3    H138217   2.511   3.751  17.314 -1.7769 -0.8228  0.9606
 4674TIP3    H238218   2.605   3.849  17.381 -1.4271  0.4965 -1.3481
 4675TIP3   OH238219   2.100   7.097  17.918  0.4217  0.0310 -0.0253
 4675TIP3    H138220   2.136   7.185  17.932 -0.9032  0.6255 -0.1923
 4675TIP3    H238221   2.037   7.108  17.847 -0.2043 -0.9341  0.3594
 4676TIP3   OH238222   7.173   7.948  17.025  0.1844  0.0013  0.4212
 4676TIP3    H138223   7.089   7.989  17.048  0.6316  1.3974 -0.3498
 4676TIP3    H238224   7.194   7.981  16.938  0.8826 -1.4301  0.0028
 4677TIP3   OH238225   1.179   1.233  17.617  0.0071 -0.2017 -0.1231
 4677TIP3    H138226   1.189   1.274  17.531  2.2785  1.3147  0.7607
 4677TIP3    H238227   1.207   1.300  17.679 -0.9020 -1.4813  1.7688
 4678TIP3   OH238228   0.460   0.725  17.874 -0.4214  0.0410 -0.1361
 4678TIP3    H138229   0.463   0.652  17.812  1.8302  0.7541 -0.9420
 4678TIP3    H238230   0.406   0.791  17.830  1.5978  0.7568 -1.6800
 4679TIP3   OH238231   3.102   1.309  18.388  0.0178 -0.1150  0.3863
 4679TIP3    H138232   3.032   1.356  18.343  0.3048  1.8002  1.8587
 4679TIP3    H238233   3.057   1.251  18.449 -0.2950 -0.0116  0.2566
 4680TIP3   OH238234   1.515   2.041  18.017 -0.1171 -0.1154  0.1708
 4680TIP3    H138235   1.467   1.990  18.083  0.2649  0.7049  1.1075
 4680TIP3    H238236   1.604   2.007  18.021 -0.1541 -0.2421 -0.1054
 4681TIP3   OH238237   6.274   2.522  17.106 -0.2739 -0.2532 -0.6332
 4681TIP3    H138238   6.362   2.520  17.143 -0.7598 -0.7468  0.5165
 4681TIP3    H238239   6.286   2.559  17.018  0.8082  1.5625  0.2390
 4682TIP3   OH238240   3.278   4.298  17.454  0.3883  0.4455  0.5195
 4682TIP3    H138241   3.348   4.276  17.393  1.1406  0.7816  1.2391
 4682TIP3    H238242   3.297   4.248  17.533 -1.2338 -0.8992  0.1161
 4683TIP3   OH238243   1.914   0.902  18.401  0.7825  0.1260  0.0911
 4683TIP3    H138244   1.879   0.847  18.331  1.2958  0.2292 -0.2539
 4683TIP3    H238245   1.942   0.840  18.468 -0.5326  0.0636  0.6122
 4684TIP3   OH238246   7.154   0.612  16.861  0.2485  0.6165  0.4423
 4684TIP3    H138247   7.231   0.563  16.889  1.1250  1.7473  0.0730
 4684TIP3    H238248   7.140   0.676  16.931 -1.1557 -0.3786  1.1404
 4685TIP3   OH238249   3.307   7.997  17.958 -0.2475  0.1186  0.1136
 4685TIP3    H138250   3.365   7.928  17.926  2.9921  2.5169  0.3191
 4685TIP3    H238251   3.309   7.989  18.053  1.5498  1.4477  0.2276
 4686TIP3   OH238252   6.645   0.481  17.229 -0.5800  0.3574 -0.1014
 4686TIP3    H138253   6.652   0.397  17.273  0.9572  0.1241 -0.7126
 4686TIP3    H238254   6.701   0.540  17.280 -0.6481  0.6843 -0.3927
 4687TIP3   OH238255   8.032   6.921  18.134 -0.3598 -0.2563  0.6226
 4687TIP3    H138256   8.071   6.836  18.110  0.0915 -0.2932  1.4427
 4687TIP3    H238257   8.067   6.939  18.222  1.2469  1.7729 -0.3499
 4688TIP3   OH238258   2.992   5.602  18.942 -0.3583  0.2476 -0.4089
 4688TIP3    H138259   2.930   5.536  18.973  0.4056  0.4086  1.6738
 4688TIP3    H238260   3.068   5.551  18.914 -0.4932  0.1542 -0.6040
 4689TIP3   OH238261   6.771   1.344  17.620  0.2357 -0.1959 -0.0727
 4689TIP3    H138262   6.754   1.397  17.698 -1.2026 -0.5156 -0.1266
 4689TIP3    H238263   6.686   1.341  17.575  0.8869 -0.5648 -1.3042
 4690TIP3   OH238264   6.615   0.157  18.809  0.4007  0.2381  0.2852
 4690TIP3    H138265   6.553   0.223  18.839 -0.1945 -0.8705  1.5846
 4690TIP3    H238266   6.693   0.207  18.784 -1.2979  1.7768 -2.4226
 4691TIP3   OH238267   3.810   0.319  18.277  0.0749  0.4072  0.2352
 4691TIP3    H138268   3.752   0.385  18.316 -0.4046  1.3718 -1.9090
 4691TIP3    H238269   3.769   0.235  18.300 -1.0243  0.9884  0.4976
 4692TIP3   OH238270   1.697   6.117  17.978  0.1671  0.2427 -0.6675
 4692TIP3    H138271   1.775   6.086  18.023 -2.7289 -1.8695  3.5132
 4692TIP3    H238272   1.706   6.212  17.977  1.2437  0.3570  3.2223
 4693TIP3   OH238273   5.760   1.491  17.778  0.3784  0.3696 -0.3994
 4693TIP3    H138274   5.705   1.413  17.770 -1.0529  1.4018 -0.8828
 4693TIP3    H238275   5.779   1.515  17.687 -2.5336  2.8488 -0.4800
 4694TIP3   OH238276   1.136   1.883  17.373  0.3720 -0.0157 -0.2761
 4694TIP3    H138277   1.131   1.851  17.463 -0.3179 -1.4316 -0.7871
 4694TIP3    H238278   1.061   1.843  17.329 -0.3261  2.0303 -1.0868
 4695TIP3   OH238279   4.117   5.576  18.231  0.0349 -0.7662 -0.1825
 4695TIP3    H138280   4.193   5.567  18.173 -0.4430 -0.6748 -0.8422
 4695TIP3    H238281   4.117   5.669  18.254 -1.9707  0.1235 -3.2056
 4696TIP3   OH238282   5.512   0.604  18.440  0.6388 -0.3109  0.2634
 4696TIP3    H138283   5.519   0.521  18.392  0.3763 -0.2179  0.0591
 4696TIP3    H238284   5.548   0.584  18.527  1.1504 -0.4682  0.0161
 4697TIP3   OH238285   2.535   0.521  17.055  0.1073 -0.4942 -0.4588
 4697TIP3    H138286   2.440   0.514  17.040 -0.1460 -3.7326  1.5801
 4697TIP3    H238287   2.550   0.615  17.065 -3.3373  0.0795  1.2572
 4698TIP3   OH238288   1.704   5.541  18.259 -0.4904  0.1154 -0.3367
 4698TIP3    H138289   1.639   5.604  18.228 -0.5320 -0.3451 -1.2183
 4698TIP3    H238290   1.754   5.518  18.181  0.7004  0.4103  0.3142
 4699TIP3   OH238291   7.787   5.776  18.850 -0.5348 -0.1153  0.6198
 4699TIP3    H138292   7.866   5.745  18.805 -0.2828 -0.0525  1.0194
 4699TIP3    H238293   7.730   5.699  18.852 -1.1586  0.2447 -1.0971
 4700TIP3   OH238294   2.798   7.589  16.725  0.1975 -0.3034  0.3549
 4700TIP3    H138295   2.757   7.573  16.640  0.9693  0.9179 -0.2791
 4700TIP3    H238296   2.892   7.587  16.707  0.4131  2.9070  0.5094
 4701TIP3   OH238297   3.448   2.011  17.458 -0.0505 -0.4688 -0.4688
 4701TIP3    H138298   3.492   1.943  17.509  1.3356  0.4626 -0.3571
 4701TIP3    H238299   3.501   2.090  17.472 -2.8338  1.2512  1.2269
 4702TIP3   OH238300   6.369   1.173  18.840  0.2695  0.2174  0.3954
 4702TIP3    H138301   6.287   1.156  18.885 -0.4336 -0.6969 -1.1744
 4702TIP3    H238302   6.344   1.221  18.761  1.3712  0.9425  0.4652
 4703TIP3   OH238303   2.854   3.301  19.097  0.5612 -0.1654  0.2277
 4703TIP3    H138304   2.801   3.251  19.035  0.8518 -0.0999 -0.0773
 4703TIP3    H238305   2.891   3.372  19.045  0.4032  0.1879  0.5885
 4704TIP3   OH238306   6.960   3.901  17.244 -0.4138  0.0951  0.0293
 4704TIP3    H138307   6.920   3.821  17.278  0.0937 -0.4114 -0.5495
 4704TIP3    H238308   6.903   3.928  17.172 -1.4066  1.0863  1.1463
 4705TIP3   OH238309   1.303   5.668  18.173 -0.1150 -0.1871 -0.0964
 4705TIP3    H138310   1.235   5.683  18.108  0.8301  0.7436 -0.9179
 4705TIP3    H238311   1.317   5.573  18.173 -0.8912 -0.3034 -0.4464
 4706TIP3   OH238312   0.110   4.585  17.623  0.2808  0.2944 -0.2341
 4706TIP3    H138313   0.158   4.668  17.628  1.3453 -0.1249 -2.2787
 4706TIP3    H238314   0.045   4.599  17.554  0.2904 -0.4687 -0.4086
 4707TIP3   OH238315   7.300   1.236  17.324 -0.1876  0.0995 -0.1774
 4707TIP3    H138316   7.375   1.212  17.270  0.9929  0.5642  1.2200
 4707TIP3    H238317   7.227   1.186  17.286  0.8976 -0.7368 -1.2542
 4708TIP3   OH238318   3.608   6.972  17.134  0.1117 -0.4014  0.3759
 4708TIP3    H138319   3.534   6.912  17.131 -0.4530  0.3189 -0.4433
 4708TIP3    H238320   3.575   7.050  17.179 -0.4405  0.9503 -2.1911
 4709TIP3   OH238321   2.077   5.945  18.967 -0.7576  0.0473 -0.1674
 4709TIP3    H138322   2.129   5.944  19.048 -0.8189 -0.5096 -0.1327
 4709TIP3    H238323   1.987   5.933  18.996 -0.8050  0.0839 -0.3000
 4710TIP3   OH238324   6.191   1.462  17.345  0.0419 -0.0546 -0.3177
 4710TIP3    H138325   6.188   1.461  17.441 -0.5770  0.4766 -0.3304
 4710TIP3    H238326   6.184   1.370  17.321  3.0369 -0.5350  0.2052
 4711TIP3   OH238327   8.246   7.357  17.978 -0.1041  0.5082  0.1924
 4711TIP3    H138328   8.163   7.368  18.025 -0.1413 -2.4351  0.9845
 4711TIP3    H238329   8.311   7.398  18.035 -0.6543  0.2942  0.9963
 4712TIP3   OH238330   4.809   1.486  18.427 -0.3923 -0.4547 -0.3850
 4712TIP3    H138331   4.895   1.476  18.386  0.8117  1.9396  1.3404
 4712TIP3    H238332   4.748   1.447  18.364  1.8818 -1.9288 -1.8156
 4713TIP3   OH238333   2.723   1.524  18.072 -0.1430 -0.1328 -0.6376
 4713TIP3    H138334   2.667   1.485  18.139  1.6903  0.5006  1.3688
 4713TIP3    H238335   2.665   1.584  18.025 -1.0270  1.2787  2.0396
 4714TIP3   OH238336   7.493   2.082  17.790  0.4962  0.0791 -0.6956
 4714TIP3    H138337   7.419   2.070  17.730  0.1720  0.7547 -0.4438
 4714TIP3    H238338   7.548   2.147  17.747  0.3789  0.3941 -0.3783
 4715TIP3   OH238339   6.969   8.077  17.173  0.0190 -0.9083  0.1952
 4715TIP3    H138340   7.031   8.127  17.226  0.4491  0.2128 -1.2734
 4715TIP3    H238341   6.903   8.142  17.146 -1.9695 -2.1119  1.8781
 4716TIP3   OH238342   1.791   0.083  17.672 -0.4059 -0.2718 -0.2585
 4716TIP3    H138343   1.793   0.137  17.752 -4.5500 -1.8168  1.2079
 4716TIP3    H238344   1.845   0.007  17.693 -1.8052 -0.8909  1.4321
 4717TIP3   OH238345   1.609   1.793  17.858 -0.1590  0.0950 -0.0006
 4717TIP3    H138346   1.673   1.741  17.810  1.3005  0.0797  1.8202
 4717TIP3    H238347   1.604   1.875  17.810 -1.2889 -1.0794 -2.0141
 4718TIP3   OH238348   0.732   6.572  18.261 -0.0486  0.0618  0.0772
 4718TIP3    H138349   0.666   6.640  18.247  0.3898  0.5158  0.1769
 4718TIP3    H238350   0.701   6.498  18.208 -0.8758  0.0996  0.4879
 4719TIP3   OH238351   3.485   8.186  17.729  0.2507  0.0766  0.2815
 4719TIP3    H138352   3.534   8.189  17.646  0.1291  3.5873  0.2164
 4719TIP3    H238353   3.394   8.170  17.703 -0.0529  2.6792 -0.5172
 4720TIP3   OH238354   6.443   4.422  16.639 -0.9792  0.0346 -0.5016
 4720TIP3    H138355   6.352   4.438  16.664 -0.0936  1.5157  2.1077
 4720TIP3    H238356   6.458   4.330  16.658 -1.7815 -0.1023 -0.5060
 4721TIP3   OH238357   0.788   2.192  18.118 -0.1796 -0.2994 -0.0258
 4721TIP3    H138358   0.724   2.190  18.189 -0.2154 -0.7067 -0.0661
 4721TIP3    H238359   0.738   2.218  18.041 -0.2687 -0.4703 -0.0260
 4722TIP3   OH238360   1.694   4.600  18.439  0.2842  0.1383 -0.1031
 4722TIP3    H138361   1.648   4.645  18.368  1.1504 -2.0696 -2.2183
 4722TIP3    H238362   1.624   4.561  18.492 -0.3805 -0.3409 -1.2932
 4723TIP3   OH238363   7.748   4.779  19.001  0.2440 -0.0380 -0.5451
 4723TIP3    H138364   7.741   4.686  19.022 -0.0808 -0.0324 -0.6180
 4723TIP3    H238365   7.662   4.815  19.023  0.3207  0.2152 -0.6588
 4724TIP3   OH238366   2.335   7.672  17.719 -0.3316  0.1102 -0.5826
 4724TIP3    H138367   2.382   7.645  17.640 -0.1234 -0.0054 -0.4225
 4724TIP3    H238368   2.246   7.638  17.708 -0.0285 -0.8245 -0.3040
 4725TIP3   OH238369   5.224   2.568  18.757 -0.3248  0.1896 -0.4770
 4725TIP3    H138370   5.298   2.509  18.773  0.2108  0.3070 -2.2645
 4725TIP3    H238371   5.258   2.655  18.777 -0.6378  0.0493  0.6937
 4726TIP3   OH238372   3.055   2.722  17.142  0.3358 -0.0380  0.9031
 4726TIP3    H138373   3.115   2.792  17.117 -0.4716  0.8438  1.3622
 4726TIP3    H238374   3.112   2.648  17.166  1.2474  0.8510  1.5672
 4727TIP3   OH238375   2.581   6.944  18.930 -0.4056 -0.0720 -0.0481
 4727TIP3    H138376   2.633   6.979  18.858 -1.5289  0.3654 -0.6814
 4727TIP3    H238377   2.624   6.975  19.009  0.0273  0.6659 -0.5670
 4728TIP3   OH238378   5.968   3.326  18.830  0.4343  0.0453  0.4041
 4728TIP3    H138379   6.025   3.400  18.846 -0.2829  0.4598  1.1183
 4728TIP3    H238380   5.936   3.339  18.741  0.5194  0.4510  0.4308
 4729TIP3   OH238381   0.203   6.644  19.048 -0.3833  0.1774  0.1233
 4729TIP3    H138382   0.116   6.666  19.080  0.3150  1.3596  1.2985
 4729TIP3    H238383   0.236   6.724  19.007 -0.1470 -0.4993 -1.0881
 4730TIP3   OH238384   3.699   3.104  18.780  0.7995  0.0611 -0.2611
 4730TIP3    H138385   3.657   3.163  18.842  0.5439 -0.3685 -0.0186
 4730TIP3    H238386   3.693   3.018  18.821  2.5160  0.0710  0.1022
 4731TIP3   OH238387   5.027   6.186  18.133  0.3099 -0.6685 -0.2136
 4731TIP3    H138388   5.122   6.193  18.140  0.2143  0.5307  0.0872
 4731TIP3    H238389   5.001   6.259  18.076 -0.3713 -1.3841 -0.8440
 4732TIP3   OH238390   4.241   4.964  17.496 -0.5413  0.0260 -0.6549
 4732TIP3    H138391   4.220   4.894  17.559  0.6095  0.9210  0.7953
 4732TIP3    H238392   4.243   4.920  17.411  0.8349 -1.8910  0.2915
 4733TIP3   OH238393   7.773   3.579  18.709  0.3861  0.1332 -0.1623
 4733TIP3    H138394   7.694   3.525  18.701 -0.5734  1.3786  0.5791
 4733TIP3    H238395   7.833   3.544  18.643 -0.6669 -1.0328 -0.5348
 4734TIP3   OH238396   7.344   3.378  17.457 -0.3110 -0.6066 -0.2539
 4734TIP3    H138397   7.339   3.340  17.370 -0.7451 -0.7832 -0.1589
 4734TIP3    H238398   7.428   3.423  17.460  0.4082 -1.8828 -0.2496
 4735TIP3   OH238399   7.870   2.379  17.495  0.8958 -0.2536 -0.4134
 4735TIP3    H138400   7.886   2.467  17.461 -0.0786  0.3570  0.6593
 4735TIP3    H238401   7.930   2.323  17.445  1.1127  0.9259 -1.5182
 4736TIP3   OH238402   6.840   6.920  17.014  0.0695 -0.3194 -0.4379
 4736TIP3    H138403   6.808   6.996  16.965  2.6599  1.1705 -0.0012
 4736TIP3    H238404   6.907   6.882  16.957  0.1172 -1.1308  0.1524
 4737TIP3   OH238405   1.771   7.989  18.550  0.0208  0.0184 -0.3280
 4737TIP3    H138406   1.794   8.064  18.495  0.9172  1.0001  1.3251
 4737TIP3    H238407   1.850   7.934  18.549 -0.1094 -0.1712 -0.3224
 4738TIP3   OH238408   6.879   0.277  18.797  0.4518  0.4699  0.2645
 4738TIP3    H138409   6.974   0.270  18.806  0.4012 -0.4793  0.1388
 4738TIP3    H238410   6.858   0.365  18.830  1.5772  1.3988 -1.3766
 4739TIP3   OH238411   7.624   6.464  16.627 -0.1158  0.3707 -0.4362
 4739TIP3    H138412   7.665   6.439  16.544  0.2503 -1.0974  0.1506
 4739TIP3    H238413   7.695   6.504  16.677 -0.6118  2.3534 -1.2296
 4740TIP3   OH238414   4.040   3.503  17.515 -0.4030  0.1677  0.3545
 4740TIP3    H138415   3.977   3.529  17.448  1.1253  1.9232 -0.5229
 4740TIP3    H238416   4.098   3.580  17.524  2.4247 -1.7803  0.0889
 4741TIP3   OH238417   5.310   3.952  17.342  0.0660  0.1441  0.1866
 4741TIP3    H138418   5.285   3.977  17.431  0.0611  0.0074  0.2243
 4741TIP3    H238419   5.383   4.010  17.320 -0.2214  0.4801  0.1089
 4742TIP3   OH238420   0.663   6.637  19.153 -0.3667 -0.0143  0.2024
 4742TIP3    H138421   0.673   6.582  19.231 -0.1416  0.1828  0.3133
 4742TIP3    H238422   0.585   6.690  19.170  0.1826  0.6541  0.6766
 4743TIP3   OH238423   4.726   4.400  18.135  0.2396 -0.3989 -0.0018
 4743TIP3    H138424   4.725   4.467  18.066 -1.0365 -1.8163 -1.4669
 4743TIP3    H238425   4.665   4.432  18.201  1.0649  0.7324  0.2440
 4744TIP3   OH238426   2.753   6.818  16.893 -0.3887 -0.1385  0.4214
 4744TIP3    H138427   2.816   6.796  16.961  0.0038 -0.7320 -0.1317
 4744TIP3    H238428   2.793   6.891  16.846  0.0464 -0.7376 -0.1457
 4745TIP3   OH238429   3.978   1.921  17.909 -0.1673  0.0128  0.1427
 4745TIP3    H138430   3.953   1.966  17.989  1.4022  0.6728  0.3183
 4745TIP3    H238431   4.014   1.837  17.938  1.1654  0.5838  0.2584
 4746TIP3   OH238432   5.429   2.106  17.180  0.3001 -0.1155 -0.3298
 4746TIP3    H138433   5.377   2.168  17.129  1.6204  0.5248 -0.9325
 4746TIP3    H238434   5.399   2.020  17.150 -1.7131  0.1660  0.6830
 4747TIP3   OH238435   7.087   5.429  16.923  0.2877  0.2843 -0.2874
 4747TIP3    H138436   7.126   5.345  16.948  1.3571  0.1583 -2.1572
 4747TIP3    H238437   6.999   5.426  16.959  1.1226 -0.5374  1.8794
 4748TIP3   OH238438   2.802   6.636  18.053  0.0729  0.3134  0.6366
 4748TIP3    H138439   2.805   6.542  18.038 -0.3872  0.1991  1.2203
 4748TIP3    H238440   2.884   6.656  18.098 -0.0537  0.1084  0.9605
 4749TIP3   OH238441   1.930   8.262  17.352  0.5391 -0.3384  0.1633
 4749TIP3    H138442   1.954   8.347  17.389  0.3090  0.5170 -1.5709
 4749TIP3    H238443   1.936   8.202  17.427  1.5889  1.0117  1.2423
 4750TIP3   OH238444   7.340   4.076  17.197 -0.5893 -0.2142 -0.1895
 4750TIP3    H138445   7.283   4.059  17.122 -3.1288  1.8747  1.0932
 4750TIP3    H238446   7.428   4.080  17.160 -1.4559 -1.4849 -2.6449
 4751TIP3   OH238447   7.644   6.799  18.169  0.3337 -0.1635 -0.1163
 4751TIP3    H138448   7.591   6.724  18.144 -0.0093 -0.0183  0.1636
 4751TIP3    H238449   7.657   6.789  18.263  0.4543  0.0166 -0.1121
 4752TIP3   OH238450   0.023   4.374  18.946 -0.4243 -0.0234  0.4153
 4752TIP3    H138451   0.112   4.377  18.980  0.3657  0.7315 -1.5630
 4752TIP3    H238452   0.033   4.385  18.852 -2.3793 -2.8112 -0.2730
 4753TIP3   OH238453   0.264   6.968  18.309  0.6497  0.2086  0.2315
 4753TIP3    H138454   0.297   6.999  18.393  1.2988  0.9924 -0.2899
 4753TIP3    H238455   0.335   6.987  18.247  1.5231 -3.1392 -0.0333
 4754TIP3   OH238456   1.919   3.399  17.240  0.2396 -0.9676 -0.0287
 4754TIP3    H138457   2.008   3.397  17.275  0.5352 -0.4968 -0.7281
 4754TIP3    H238458   1.900   3.309  17.215  0.8333 -0.9369 -0.6179
 4755TIP3   OH238459   1.448   7.905  17.757  0.1047  0.3369 -0.9388
 4755TIP3    H138460   1.453   7.838  17.690  0.8331 -0.0187 -0.5375
 4755TIP3    H238461   1.385   7.871  17.821 -1.3342  1.1042 -1.8872
 4756TIP3   OH238462   0.627   3.197  19.367 -0.0377  0.1538  0.6603
 4756TIP3    H138463   0.615   3.110  19.329 -0.1273 -0.2962  1.6709
 4756TIP3    H238464   0.544   3.215  19.411  0.2799  0.3749  1.1773
 4757TIP3   OH238465   4.166   7.464  16.782 -0.1323  0.2270  0.0939
 4757TIP3    H138466   4.222   7.413  16.841  0.1240  0.6888  0.2547
 4757TIP3    H238467   4.167   7.415  16.700  1.1319  0.6198 -0.1486
 4758TIP3   OH238468   5.091   6.463  17.440  0.9767  0.1195  0.5720
 4758TIP3    H138469   5.130   6.446  17.525  2.4961  0.4003 -0.0283
 4758TIP3    H238470   5.027   6.393  17.429  1.0531 -0.1571  1.7609
 4759TIP3   OH238471   3.345   5.486  18.612  0.2831  0.2993  0.0028
 4759TIP3    H138472   3.365   5.574  18.580  0.0754  0.0188 -0.9424
 4759TIP3    H238473   3.430   5.446  18.627  0.5017 -0.3984 -2.6217
 4760TIP3   OH238474   5.152   2.211  17.457  0.0479 -0.0953  0.2269
 4760TIP3    H138475   5.107   2.130  17.482 -0.3738  0.1068  0.1396
 4760TIP3    H238476   5.229   2.182  17.409 -1.2628 -0.4382 -1.8098
 4761TIP3   OH238477   6.782   1.610  18.088 -0.4799  0.2669 -0.1017
 4761TIP3    H138478   6.816   1.596  18.177  0.6349  0.2967 -0.5045
 4761TIP3    H238479   6.859   1.631  18.036 -1.2258  1.0219 -0.9310
 4762TIP3   OH238480   0.130   0.481  17.069  0.6032 -0.2363 -0.1389
 4762TIP3    H138481   0.177   0.531  17.136  1.0872 -1.7970  0.7198
 4762TIP3    H238482   0.038   0.506  17.082  0.6792 -0.6104  1.1933
 4763TIP3   OH238483   2.391   2.123  17.588 -0.4800 -0.2492 -0.0852
 4763TIP3    H138484   2.357   2.180  17.519 -0.2489  0.2376  0.1974
 4763TIP3    H238485   2.380   2.173  17.669  0.5434 -0.2288  0.0569
 4764TIP3   OH238486   0.118   2.862  19.013 -0.0318 -0.2325 -0.5731
 4764TIP3    H138487   0.060   2.787  19.001 -0.1222 -0.6364  2.0213
 4764TIP3    H238488   0.096   2.921  18.940 -0.0299 -2.5948 -2.6379
 4765TIP3   OH238489   7.578   6.204  16.719  0.1821 -0.4131  0.2038
 4765TIP3    H138490   7.559   6.263  16.792 -1.0431  0.0586 -0.4755
 4765TIP3    H238491   7.602   6.261  16.647  0.7150 -0.8470  0.0258
 4766TIP3   OH238492   6.308   5.996  18.613 -0.1584 -0.3755 -0.3764
 4766TIP3    H138493   6.249   5.999  18.538  1.6901 -2.0406 -2.0217
 4766TIP3    H238494   6.395   5.989  18.574  0.8543 -1.6271  1.9292
 4767TIP3   OH238495   5.410   8.054  17.509 -0.2868  0.0154 -0.4025
 4767TIP3    H138496   5.428   8.110  17.584  0.1820  1.0058 -1.2330
 4767TIP3    H238497   5.463   7.976  17.523 -2.0389 -0.9498  1.5095
 4768TIP3   OH238498   2.728   5.552  17.588 -0.0496  1.0979 -0.8820
 4768TIP3    H138499   2.742   5.461  17.560  0.4076  0.7796  0.3184
 4768TIP3    H238500   2.804   5.600  17.554  1.4479  0.3689  1.2460
 4769TIP3   OH238501   5.674   2.227  16.706 -0.2669 -0.2949 -0.0622
 4769TIP3    H138502   5.747   2.285  16.726 -0.2566 -0.0740 -0.7400
 4769TIP3    H238503   5.714   2.140  16.701 -0.1269 -0.2365  0.0134
 4770TIP3   OH238504   3.634   3.782  17.552  0.5614  0.2586 -0.5189
 4770TIP3    H138505   3.683   3.842  17.494  2.8774 -0.9756  0.0535
 4770TIP3    H238506   3.593   3.840  17.616  1.7594  1.3412 -0.6770
 4771TIP3   OH238507   5.657   1.913  18.034  0.0650  0.2330  0.0416
 4771TIP3    H138508   5.645   1.959  17.952  1.4397  0.1762 -0.2110
 4771TIP3    H238509   5.680   1.823  18.008 -0.4217 -0.0323  0.5023
 4772TIP3   OH238510   2.527   8.135  17.490 -0.4987  0.1777  0.5366
 4772TIP3    H138511   2.473   8.155  17.414 -1.3685  0.0770  1.1089
 4772TIP3    H238512   2.508   8.205  17.552 -0.2797 -0.0871  0.9063
 4773TIP3   OH238513   7.915   3.329  18.108 -0.0239 -0.1621  0.7051
 4773TIP3    H138514   7.945   3.383  18.181 -0.8472 -0.6064  1.3932
 4773TIP3    H238515   7.834   3.289  18.139  0.4519 -1.6491  0.1551
 4774TIP3   OH238516   2.156   3.075  17.297 -0.1757 -0.3115 -0.0030
 4774TIP3    H138517   2.066   3.048  17.319  0.1256 -2.0274 -0.7637
 4774TIP3    H238518   2.208   2.995  17.305  1.0775  0.3967 -0.7654
 4775TIP3   OH238519   4.218   4.765  17.003 -0.1913  0.7134 -0.1849
 4775TIP3    H138520   4.243   4.771  17.096 -0.6698 -2.1116  0.2003
 4775TIP3    H238521   4.279   4.702  16.966  1.0159  2.9572 -2.2681
 4776TIP3   OH238522   4.997   3.954  17.446 -0.1022  0.4295  0.1952
 4776TIP3    H138523   4.966   3.892  17.379 -0.5799  0.9660 -0.0852
 4776TIP3    H238524   5.030   3.898  17.516  0.7009 -0.1545 -0.6123
 4777TIP3   OH238525   3.610   0.022  17.749 -0.4907 -0.2515 -0.0768
 4777TIP3    H138526   3.703   0.015  17.773  0.0877  0.6019 -1.9049
 4777TIP3    H238527   3.570  -0.058  17.785  0.9105 -0.5608  0.8732
 4778TIP3   OH238528   0.456   6.477  17.002  0.2433 -0.1197  0.4686
 4778TIP3    H138529   0.487   6.400  17.050 -0.5498 -0.4132  0.5270
 4778TIP3    H238530   0.413   6.441  16.925  0.6221  0.3124  0.0487
 4779TIP3   OH238531   5.137   7.261  17.429  0.3852  0.0580  0.2979
 4779TIP3    H138532   5.152   7.227  17.341 -0.7690  1.3366 -0.4424
 4779TIP3    H238533   5.128   7.183  17.484  0.3239 -0.7723 -0.8604
 4780TIP3   OH238534   3.835   6.451  18.480  0.7110 -0.4467 -0.0054
 4780TIP3    H138535   3.799   6.536  18.453  1.7715  0.3089  0.8938
 4780TIP3    H238536   3.885   6.421  18.404 -0.8893 -1.0219 -0.8858
 4781TIP3   OH238537   3.240   2.098  16.835 -0.1579 -0.0486  0.0172
 4781TIP3    H138538   3.252   2.189  16.806 -0.8136  0.0390  0.0018
 4781TIP3    H238539   3.168   2.065  16.781 -0.0268 -0.5271  0.1339
 4782TIP3   OH238540   5.388   2.985  17.310  0.0542  0.0353 -0.0971
 4782TIP3    H138541   5.463   2.947  17.265 -0.2630 -1.0172  0.2142
 4782TIP3    H238542   5.409   3.078  17.320  0.7095  0.0190 -1.2001
 4783TIP3   OH238543   2.392   3.267  19.098  0.5463 -0.1346 -0.0037
 4783TIP3    H138544   2.337   3.247  19.173  0.3810 -0.0942 -0.1140
 4783TIP3    H238545   2.450   3.337  19.127  0.3773 -0.0124  0.0365
 4784TIP3   OH238546   7.463   6.744  17.852 -0.0037 -0.3154  0.3556
 4784TIP3    H138547   7.506   6.828  17.870 -1.5695  0.4391  0.7568
 4784TIP3    H238548   7.383   6.768  17.805  1.0723 -1.8230 -2.5258
 4785TIP3   OH238549   6.347   2.683  18.436 -0.4730 -0.1459  0.0344
 4785TIP3    H138550   6.360   2.729  18.353  0.9194 -0.1336  0.2402
 4785TIP3    H238551   6.336   2.591  18.411  0.9228 -0.2897 -0.1284
 4786TIP3   OH238552   2.402   5.723  17.654 -0.6292  0.5619 -0.3268
 4786TIP3    H138553   2.470   5.789  17.669 -0.6634  0.3092  1.1194
 4786TIP3    H238554   2.428   5.679  17.573  0.4489  1.0675 -0.2671
 4787TIP3   OH238555   8.025   6.505  18.441 -0.0034 -0.0831  0.3155
 4787TIP3    H138556   7.982   6.466  18.365  0.5129 -0.1492  0.0531
 4787TIP3    H238557   8.085   6.570  18.404  0.0573  0.0718  0.6840
 4788TIP3   OH238558   0.776   7.387  17.840 -0.2481 -0.0414  0.0578
 4788TIP3    H138559   0.751   7.475  17.870 -2.1188 -0.7519  0.7758
 4788TIP3    H238560   0.712   7.366  17.772 -1.0578 -1.5449  1.2106
 4789TIP3   OH238561   5.906   2.184  18.679  0.0726  0.5231 -0.0617
 4789TIP3    H138562   5.821   2.167  18.640  0.1885 -1.1574  0.3389
 4789TIP3    H238563   5.938   2.263  18.635 -1.3777  0.7783 -0.6942
 4790TIP3   OH238564   0.884   8.120  17.858  0.3039  0.4254  0.0570
 4790TIP3    H138565   0.978   8.140  17.849  0.5492 -0.5224  0.4643
 4790TIP3    H238566   0.841   8.202  17.833  1.1974  0.4580 -1.5369
 4791TIP3   OH238567   7.501   5.095  18.306 -0.5564 -0.0277 -0.5053
 4791TIP3    H138568   7.444   5.144  18.246  2.5594  2.0381 -2.0160
 4791TIP3    H238569   7.557   5.161  18.346 -0.0642 -1.8056  2.0022
 4792TIP3   OH238570   6.977   2.747  16.878  0.1025 -0.2812  0.0709
 4792TIP3    H138571   6.899   2.722  16.926 -1.9377  1.2900 -2.1917
 4792TIP3    H238572   6.946   2.773  16.791  3.1028  0.6465 -0.8876
 4793TIP3   OH238573   6.881   7.030  18.080 -0.2023  0.0079  0.1380
 4793TIP3    H138574   6.815   6.978  18.126  1.6873 -1.5500  1.2400
 4793TIP3    H238575   6.895   7.107  18.135  1.6192 -1.5610  2.0046
 4794TIP3   OH238576   4.120   4.532  17.936 -0.3162  0.2491  0.4301
 4794TIP3    H138577   4.042   4.543  17.991 -0.1250 -1.2152  1.0621
 4794TIP3    H238578   4.137   4.438  17.939  2.3459  0.6705  1.5776
 4795TIP3   OH238579   4.562   1.787  16.728 -0.0923  0.4452  0.0999
 4795TIP3    H138580   4.527   1.771  16.815 -0.0042  0.3891  0.1246
 4795TIP3    H238581   4.613   1.709  16.707  1.4176  1.2135  0.7453
 4796TIP3   OH238582   3.305   2.351  16.747 -0.3707 -0.1337 -0.0888
 4796TIP3    H138583   3.314   2.397  16.664 -1.0798  1.0168  0.4429
 4796TIP3    H238584   3.257   2.412  16.803  0.8868 -0.4972  1.4626
 4797TIP3   OH238585   7.385   7.045  18.158  0.7573 -0.0439 -0.3737
 4797TIP3    H138586   7.475   7.012  18.157  1.3121  1.2370  1.4992
 4797TIP3    H238587   7.341   6.990  18.223  0.1701 -0.6070 -1.2174
 4798TIP3   OH238588   1.425   5.587  18.891  0.1726  0.2659 -0.4500
 4798TIP3    H138589   1.470   5.555  18.814 -2.5207 -0.1265 -1.9875
 4798TIP3    H238590   1.424   5.682  18.881 -0.4250  0.2026 -1.1168
 4799TIP3   OH238591   7.087   0.970  16.843 -0.2985 -0.2865  0.1730
 4799TIP3    H138592   7.171   0.937  16.809  0.0704  1.4595 -0.7202
 4799TIP3    H238593   7.080   1.058  16.807 -1.9299  0.0724  1.2928
 4800TIP3   OH238594   8.343   6.194  18.713  0.0007 -0.4272 -0.1350
 4800TIP3    H138595   8.253   6.214  18.687 -0.0057  0.0611  0.2483
 4800TIP3    H238596   8.337   6.107  18.752 -0.6625  0.3322  1.5724
 4801TIP3   OH238597   5.078   4.427  17.930 -0.1249 -0.0292 -0.5524
 4801TIP3    H138598   5.080   4.500  17.868 -1.3328 -1.2220 -2.0829
 4801TIP3    H238599   5.095   4.349  17.876 -0.5197 -1.0350  0.7306
 4802TIP3   OH238600   1.783   6.124  18.337  0.6652  0.6085 -0.6759
 4802TIP3    H138601   1.823   6.038  18.322  1.2793  1.0675 -1.7862
 4802TIP3    H238602   1.689   6.107  18.334  0.7621 -0.2064  0.3093
 4803TIP3   OH238603   0.264   7.632  18.645 -0.0761 -0.2955 -0.0756
 4803TIP3    H138604   0.267   7.537  18.656  1.2431 -0.1839  0.6975
 4803TIP3    H238605   0.257   7.667  18.734 -0.0707  0.3426 -0.3165
 4804TIP3   OH238606   0.309   1.482  17.637 -0.1892  0.4897  0.0601
 4804TIP3    H138607   0.319   1.567  17.679  0.9720  0.5072 -0.2232
 4804TIP3    H238608   0.354   1.491  17.553  0.1235 -0.4649  0.1149
 4805TIP3   OH238609   3.074   5.507  17.923 -0.0786 -0.3465 -0.1864
 4805TIP3    H138610   3.098   5.516  18.015  0.8930  0.5990 -0.5090
 4805TIP3    H238611   3.157   5.506  17.877 -0.5500 -1.0150 -1.0458
 4806TIP3   OH238612   1.599   8.074  16.860  0.4540  0.6610 -0.0898
 4806TIP3    H138613   1.682   8.035  16.832  0.8767  1.0095  0.6611
 4806TIP3    H238614   1.624   8.142  16.923 -0.3938  0.8433  0.0633
 4807TIP3   OH238615   5.687   8.392  17.610 -0.2185  0.6756 -0.3489
 4807TIP3    H138616   5.648   8.343  17.538  0.2421  0.5043 -0.4849
 4807TIP3    H238617   5.754   8.446  17.568 -0.4943  1.1828 -0.1564
 4808TIP3   OH238618   1.622   0.983  18.730  0.3100 -0.1065  0.2288
 4808TIP3    H138619   1.655   1.067  18.699  0.1297  0.1562  0.7413
 4808TIP3    H238620   1.546   0.966  18.674 -0.2385  0.5461  0.7614
 4809TIP3   OH238621   5.335   2.289  18.275 -0.3536  0.3795  0.4214
 4809TIP3    H138622   5.335   2.206  18.323 -0.2240  0.8592  1.2755
 4809TIP3    H238623   5.276   2.346  18.325 -1.3692  0.4496 -0.8105
 4810TIP3   OH238624   6.917   5.805  17.005  0.1875  0.1962  0.0282
 4810TIP3    H138625   6.928   5.784  17.098  0.5096  0.1695 -0.0146
 4810TIP3    H238626   6.996   5.854  16.983  0.7298 -0.9095 -0.5506
 4811TIP3   OH238627   0.089   5.890  17.071  0.4901 -0.0841 -0.0764
 4811TIP3    H138628   0.093   5.842  16.988  0.1312  1.5472 -1.0799
 4811TIP3    H238629   0.149   5.843  17.129  2.8680  0.2980 -2.0783
 4812TIP3   OH238630   7.453   1.660  18.560 -0.5873  0.3322 -0.0686
 4812TIP3    H138631   7.443   1.570  18.589 -2.5862  0.7238  0.6818
 4812TIP3    H238632   7.423   1.713  18.634  1.6170  1.6992 -0.0546
 4813TIP3   OH238633   2.808   5.709  18.771  0.4013 -0.1573  0.5662
 4813TIP3    H138634   2.870   5.643  18.802  0.6983 -1.2368 -2.0696
 4813TIP3    H238635   2.858   5.790  18.768  0.4075 -0.0344  2.5617
 4814TIP3   OH238636   5.227   5.791  17.148 -0.5295 -0.1592  0.1481
 4814TIP3    H138637   5.181   5.712  17.122  2.4386 -1.9120 -0.2997
 4814TIP3    H238638   5.230   5.845  17.069 -1.8335  0.0595  0.2268
 4815TIP3   OH238639   5.085   3.713  17.966 -0.0197 -0.2040 -0.3470
 4815TIP3    H138640   5.126   3.636  18.005  0.3738  0.4339  0.5241
 4815TIP3    H238641   5.062   3.769  18.040 -0.9164  0.2235 -0.9286
 4816TIP3   OH238642   1.040   3.094  18.270  0.3450  0.2421  0.8301
 4816TIP3    H138643   0.948   3.120  18.270  0.0121 -0.9050  0.0613
 4816TIP3    H238644   1.049   3.037  18.347  0.4943  0.5751  1.0668
 4817TIP3   OH238645   1.022   2.596  18.632 -0.0960  0.4062  0.0447
 4817TIP3    H138646   0.974   2.514  18.618  0.4524  0.3143 -1.5241
 4817TIP3    H238647   1.113   2.569  18.640  0.1487  0.8833 -0.9767
 4818TIP3   OH238648   6.572   5.330  17.232 -0.2011 -0.2591  0.1908
 4818TIP3    H138649   6.538   5.325  17.143 -1.1333 -1.4236  0.5846
 4818TIP3    H238650   6.551   5.245  17.271  2.2822 -0.6462  0.8062
 4819TIP3   OH238651   2.438   5.721  18.392  0.0030  0.3087 -0.2785
 4819TIP3    H138652   2.510   5.785  18.392  0.5576 -0.2922  0.8540
 4819TIP3    H238653   2.462   5.657  18.459 -2.0026  0.5630  0.7709
 4820TIP3   OH238654   3.394   6.514  18.471 -0.1026 -0.1211  0.2622
 4820TIP3    H138655   3.470   6.554  18.515 -0.2639  0.3956  0.0839
 4820TIP3    H238656   3.347   6.589  18.433  0.7875 -0.6346 -2.0041
 4821TIP3   OH238657   6.182   5.448  17.542  0.0369  0.0885  0.1550
 4821TIP3    H138658   6.255   5.474  17.486  1.4097 -0.2275  1.7265
 4821TIP3    H238659   6.176   5.518  17.607 -0.9415  0.0112  0.1610
 4822TIP3   OH238660   4.492   4.180  17.872 -0.2007  0.0846 -0.1052
 4822TIP3    H138661   4.580   4.149  17.849  0.6583  2.4184 -0.2087
 4822TIP3    H238662   4.436   4.148  17.801  0.9636  0.3401 -1.1740
 4823TIP3   OH238663   1.733   5.435  17.197  0.0092  0.5617  0.3530
 4823TIP3    H138664   1.706   5.481  17.117 -1.0668 -0.2434  0.2249
 4823TIP3    H238665   1.692   5.349  17.190 -0.2700  0.5427  1.8688
 4824TIP3   OH238666   5.218   6.329  18.490 -0.1626  0.4920 -0.3075
 4824TIP3    H138667   5.214   6.337  18.586 -1.0600  1.2887 -0.3974
 4824TIP3    H238668   5.263   6.247  18.475 -2.7617 -1.2919  0.8599
 4825TIP3   OH238669   0.390   4.892  18.716 -0.2425  0.2323 -0.5251
 4825TIP3    H138670   0.416   4.801  18.707  0.0931  0.3280 -0.5439
 4825TIP3    H238671   0.403   4.913  18.808  1.2345  0.7206 -0.8293
 4826TIP3   OH238672   1.974   4.984  16.886 -0.1379  0.4314 -0.5095
 4826TIP3    H138673   2.047   4.927  16.861  0.6663  0.8276  0.8257
 4826TIP3    H238674   1.905   4.925  16.915  0.7441  0.0931  1.0165
 4827TIP3   OH238675   5.466   2.569  18.167  0.5304 -0.1128  0.6906
 4827TIP3    H138676   5.479   2.578  18.262  1.6422 -0.1243  0.5544
 4827TIP3    H238677   5.550   2.595  18.129 -0.3614  1.3648 -0.3784
 4828TIP3   OH238678   4.769   2.567  17.323 -0.1968  0.3375  0.2813
 4828TIP3    H138679   4.841   2.504  17.309 -0.7412 -0.2548  0.1076
 4828TIP3    H238680   4.696   2.531  17.273 -1.5608 -0.6726  2.8363
 4829TIP3   OH238681   3.966   4.819  16.806  0.0504 -0.1425 -0.2815
 4829TIP3    H138682   4.033   4.881  16.836 -0.1042  0.2826 -0.7968
 4829TIP3    H238683   4.006   4.776  16.730  0.2110 -0.7874  0.1590
 4830TIP3   OH238684   7.137   5.154  17.691 -0.3164  0.4823 -0.1193
 4830TIP3    H138685   7.120   5.246  17.671  0.8310  0.6686 -0.3113
 4830TIP3    H238686   7.208   5.129  17.631  0.9497  0.1234  1.4487
 4831TIP3   OH238687   6.112   5.986  16.478  0.0525 -0.0248 -0.4211
 4831TIP3    H138688   6.178   5.928  16.516  1.5052  2.0556  0.4185
 4831TIP3    H238689   6.047   5.997  16.547 -0.3903 -0.8637 -0.6936
 4832TIP3   OH238690   3.062   3.186  18.858 -0.1303 -0.7368  0.4343
 4832TIP3    H138691   2.999   3.147  18.918 -0.5678  1.5618  1.6082
 4832TIP3    H238692   3.083   3.271  18.897  1.0507  0.0494 -1.7063
 4833TIP3   OH238693   7.540   4.214  18.301 -0.3802  0.1850  1.0286
 4833TIP3    H138694   7.589   4.248  18.375 -1.8810  1.1254  1.6280
 4833TIP3    H238695   7.606   4.198  18.234  1.0738 -1.1807  2.7135
 4834TIP3   OH238696   4.820   4.060  18.930 -0.9178  0.1126 -0.2241
 4834TIP3    H138697   4.799   4.153  18.938  1.3946  0.6722  0.0606
 4834TIP3    H238698   4.825   4.045  18.835  0.0487  0.6284 -0.2617
 4835TIP3   OH238699   6.298   0.648  16.947 -0.1087  0.0360 -0.6200
 4835TIP3    H138700   6.254   0.648  16.862  0.6767 -1.0640 -1.0462
 4835TIP3    H238701   6.390   0.663  16.927  0.2338 -1.1872 -0.0680
 4836TIP3   OH238702   3.289   0.751  18.694  0.0604 -0.0018 -0.6385
 4836TIP3    H138703   3.212   0.695  18.706 -0.6027  1.0634  0.2255
 4836TIP3    H238704   3.274   0.796  18.611  0.6391 -1.1271 -1.3858
 4837TIP3   OH238705   6.432   5.681  19.072  0.1132 -0.0921  0.4648
 4837TIP3    H138706   6.471   5.610  19.123  0.2055  0.8925  1.8267
 4837TIP3    H238707   6.343   5.650  19.052  0.9548 -1.6533 -1.2361
 4838TIP3   OH238708   6.431   5.740  17.929 -0.2846  0.3234  0.3426
 4838TIP3    H138709   6.418   5.788  18.012 -0.4542 -0.0377  0.5259
 4838TIP3    H238710   6.518   5.703  17.937 -1.0602 -1.4145  1.2399
 4839TIP3   OH238711   1.344   6.703  17.361  0.5286 -0.5086  0.0198
 4839TIP3    H138712   1.348   6.644  17.286 -4.3548 -0.2409 -0.7796
 4839TIP3    H238713   1.329   6.646  17.436  1.5938 -0.5296  0.2396
 4840TIP3   OH238714   1.560   5.756  18.149 -0.3049  0.4590 -0.0556
 4840TIP3    H138715   1.470   5.733  18.172 -0.1191  0.6507  0.9178
 4840TIP3    H238716   1.558   5.769  18.054 -2.0050  3.4837  0.2600
 4841TIP3   OH238717   5.424   3.642  18.750  0.2601  0.4424 -0.0332
 4841TIP3    H138718   5.345   3.606  18.710 -0.2210  0.3005  0.9915
 4841TIP3    H238719   5.454   3.572  18.808  2.0391 -0.1198 -1.5436
 4842TIP3   OH238720   1.591   2.849  17.379 -0.4038 -0.4590  0.3600
 4842TIP3    H138721   1.513   2.889  17.342  0.3883  0.2055 -0.6524
 4842TIP3    H238722   1.658   2.859  17.311  1.0267  0.4927  1.8144
 4843TIP3   OH238723   6.108   7.903  17.959  0.5849 -0.0415  0.2454
 4843TIP3    H138724   6.022   7.871  17.985  0.5846  1.4288  2.2349
 4843TIP3    H238725   6.090   7.977  17.902  0.5118  0.3665  0.7913
 4844TIP3   OH238726   4.958   2.351  17.280 -0.5653 -0.0403 -0.5112
 4844TIP3    H138727   4.976   2.383  17.191  1.7103  2.2734  0.6550
 4844TIP3    H238728   5.029   2.289  17.297  0.5070  1.4079  0.5097
 4845TIP3   OH238729   5.694   3.702  17.408  0.0091 -0.2220 -0.6608
 4845TIP3    H138730   5.696   3.732  17.317 -0.3212 -0.3755 -0.7223
 4845TIP3    H238731   5.709   3.607  17.403  0.1546 -0.2062 -0.5415
 4846TIP3   OH238732   6.739   2.880  17.955 -0.2333 -0.5831  0.1556
 4846TIP3    H138733   6.742   2.866  18.050 -0.6261 -0.2642  0.2184
 4846TIP3    H238734   6.819   2.928  17.936 -0.3311 -0.3237  0.3838
 4847TIP3   OH238735   6.783   7.648  18.145  0.2654 -0.3923 -0.2967
 4847TIP3    H138736   6.785   7.683  18.234 -1.4120 -1.6275  0.2653
 4847TIP3    H238737   6.846   7.702  18.097  2.4900 -0.7760  1.9853
 4848TIP3   OH238738   3.720   5.843  17.779 -0.6853 -0.2479  0.3160
 4848TIP3    H138739   3.738   5.794  17.860 -0.3254 -2.5067 -1.0678
 4848TIP3    H238740   3.682   5.925  17.810  0.6277 -0.4795  2.8414
 4849TIP3   OH238741   0.923   3.899  18.136 -0.2747 -0.2973 -0.4063
 4849TIP3    H138742   1.005   3.878  18.180 -0.3230  0.3041 -0.0067
 4849TIP3    H238743   0.886   3.971  18.188 -1.5292 -1.1936 -0.0016
 4850TIP3   OH238744   7.488   4.614  17.345 -0.4770  0.3876  0.1502
 4850TIP3    H138745   7.491   4.709  17.352  0.5018  0.4048 -0.2562
 4850TIP3    H238746   7.398   4.590  17.368 -1.2190  1.5416 -1.4068
 4851TIP3   OH238747   4.585   6.812  18.589  0.5249 -0.3362  0.0262
 4851TIP3    H138748   4.574   6.906  18.600  0.3997 -0.4810  1.2568
 4851TIP3    H238749   4.591   6.799  18.494 -1.0173  0.7386 -0.2558
 4852TIP3   OH238750   6.846   0.718  18.273  0.3898  0.1536 -0.3844
 4852TIP3    H138751   6.857   0.714  18.178  0.1511 -1.0029 -0.3723
 4852TIP3    H238752   6.776   0.782  18.286  0.5559  0.4612 -0.9704
 4853TIP3   OH238753   5.222   5.437  18.037 -0.6309 -0.9408  0.3161
 4853TIP3    H138754   5.130   5.462  18.044 -0.2462  0.7952 -0.2641
 4853TIP3    H238755   5.231   5.404  17.947 -0.3749  0.5215 -0.2342
 4854TIP3   OH238756   7.547   4.908  19.155  0.7558  0.0647  0.0037
 4854TIP3    H138757   7.488   4.978  19.184  1.1581  0.5338 -0.2892
 4854TIP3    H238758   7.490   4.848  19.107 -0.0194 -1.0116  2.1687
 4855TIP3   OH238759   4.571   3.105  17.748  0.1321  0.1944  0.3265
 4855TIP3    H138760   4.480   3.106  17.719 -0.0685  0.2146  0.9388
 4855TIP3    H238761   4.602   3.018  17.724  0.3986  0.6686 -1.1833
 4856TIP3   OH238762   3.303   2.894  17.629  0.7801 -0.4432 -0.3117
 4856TIP3    H138763   3.238   2.880  17.698  2.0753 -1.7498  0.7104
 4856TIP3    H238764   3.254   2.881  17.548 -0.3030 -1.1415  0.4135
 4857TIP3   OH238765   1.629   7.057  18.082  0.4429  0.0830  0.2378
 4857TIP3    H138766   1.648   7.106  18.002 -0.2863  1.1585  0.7067
 4857TIP3    H238767   1.560   7.107  18.125  0.8279 -0.4697  1.5468
 4858TIP3   OH238768   2.994   5.337  18.182 -0.3133  0.1993 -0.1192
 4858TIP3    H138769   3.073   5.288  18.205 -1.0123 -1.1594 -0.5396
 4858TIP3    H238770   2.965   5.376  18.264 -0.5741 -1.3460  0.5517
 4859TIP3   OH238771   7.148   3.569  18.499 -0.0919  0.1068  0.2283
 4859TIP3    H138772   7.202   3.498  18.535  1.0787  1.1055  0.4996
 4859TIP3    H238773   7.070   3.524  18.466  0.1687 -1.1921  1.2716
 4860TIP3   OH238774   5.878   5.644  17.101 -0.0948  0.1074 -0.0883
 4860TIP3    H138775   5.787   5.623  17.124 -0.5051  1.2339 -0.6134
 4860TIP3    H238776   5.924   5.646  17.185 -0.6984  0.1958  0.2474
 4861TIP3   OH238777   7.956   6.709  17.599  0.3745 -0.2480  0.2565
 4861TIP3    H138778   8.017   6.709  17.672 -0.6257 -1.5768  1.1470
 4861TIP3    H238779   7.994   6.648  17.536  1.8757  1.8396 -0.9618
 4862TIP3   OH238780   5.376   7.399  18.457 -0.1930  0.2403 -0.4086
 4862TIP3    H138781   5.419   7.484  18.457  1.2642 -0.3600  2.7166
 4862TIP3    H238782   5.283   7.419  18.474  0.1353  1.2296  0.3307
 4863TIP3   OH238783   3.991   1.018  17.580  0.0233 -0.0082 -0.0331
 4863TIP3    H138784   4.025   1.094  17.532 -1.0296 -0.0712 -0.9287
 4863TIP3    H238785   4.069   0.975  17.614  0.7617  0.5272 -0.9762
 4864TIP3   OH238786   1.376   7.888  18.812  0.2785  0.2478 -0.2910
 4864TIP3    H138787   1.365   7.818  18.877 -0.0672 -1.7350 -2.3656
 4864TIP3    H238788   1.471   7.896  18.802  0.3223 -0.6526 -0.7371
 4865TIP3   OH238789   4.112   2.587  17.375 -0.6504  0.3253  0.1110
 4865TIP3    H138790   4.181   2.642  17.412 -1.0808  1.1544 -0.2812
 4865TIP3    H238791   4.157   2.531  17.313 -0.5251  2.1995 -1.6187
 4866TIP3   OH238792   5.641   4.749  19.095  0.3746  0.0818  0.1975
 4866TIP3    H138793   5.566   4.740  19.153 -0.4661  1.0555 -0.7034
 4866TIP3    H238794   5.652   4.843  19.083  1.4235 -0.0590 -0.0964
 4867TIP3   OH238795   5.065   0.025  16.691 -0.2952  0.0029 -0.2402
 4867TIP3    H138796   4.979   0.059  16.717 -1.2811 -2.0003 -0.6775
 4867TIP3    H238797   5.127   0.093  16.718 -1.9612  1.2816  0.5393
 4868TIP3   OH238798   3.380   4.813  18.265 -0.8667  0.2896 -0.0635
 4868TIP3    H138799   3.437   4.766  18.204 -2.2794 -0.6115 -0.7529
 4868TIP3    H238800   3.410   4.903  18.261  1.5568 -0.3969  0.8544
 4869TIP3   OH238801   2.357   7.146  18.577 -0.0005  0.2158  0.5084
 4869TIP3    H138802   2.319   7.220  18.529 -0.3976 -0.9092 -0.9936
 4869TIP3    H238803   2.327   7.069  18.529 -0.3947 -0.9976  2.5725
 4870TIP3   OH238804   3.573   7.356  17.325  0.1414  0.4080  0.0083
 4870TIP3    H138805   3.609   7.285  17.378 -0.7273  0.4021  0.6037
 4870TIP3    H238806   3.648   7.388  17.275  1.2001  1.0129  1.8822
 4871TIP3   OH238807   1.953   3.361  18.217 -0.4438  0.0560  0.5536
 4871TIP3    H138808   1.858   3.374  18.227 -1.1310 -2.7551 -1.3134
 4871TIP3    H238809   1.968   3.366  18.123  0.7318 -2.3863  0.5555
 4872TIP3   OH238810   8.071   0.271  17.122 -0.7052  0.2290  0.3705
 4872TIP3    H138811   7.990   0.299  17.080  0.5179  1.0322 -1.5807
 4872TIP3    H238812   8.123   0.232  17.052  1.2531  1.2077  1.1876
 4873TIP3   OH238813   6.998   3.274  18.697 -0.3487  0.0915  0.1541
 4873TIP3    H138814   6.946   3.342  18.655 -2.0265 -1.0618  0.2677
 4873TIP3    H238815   6.949   3.193  18.682  2.1169 -1.3237 -0.9510
 4874TIP3   OH238816   6.922   6.329  18.601  0.4669  0.5147 -0.4250
 4874TIP3    H138817   6.999   6.385  18.609 -0.6056  2.0364 -0.3861
 4874TIP3    H238818   6.879   6.357  18.521 -0.3127  0.0305 -0.1909
 4875TIP3   OH238819   7.836   4.751  16.568 -0.2751 -0.2833 -0.3498
 4875TIP3    H138820   7.820   4.830  16.516 -0.2734 -0.4553 -0.6145
 4875TIP3    H238821   7.748   4.720  16.590 -0.2928  1.1543  1.8603
 4876TIP3   OH238822   4.658   1.944  17.473  0.0787  0.7288  0.8002
 4876TIP3    H138823   4.697   2.030  17.457 -1.1497  1.0106 -0.9148
 4876TIP3    H238824   4.599   1.959  17.547  1.0897  0.9440  1.5860
 4877TIP3   OH238825   2.164   1.526  17.079  0.6790 -0.3736  0.2946
 4877TIP3    H138826   2.199   1.601  17.127  1.8449 -1.4142  1.1546
 4877TIP3    H238827   2.200   1.534  16.991 -0.7423  1.0652 -0.1956
 4878TIP3   OH238828   5.588   0.371  18.146 -0.2385  0.1812 -0.1522
 4878TIP3    H138829   5.540   0.290  18.165 -0.9218  0.9353  1.5907
 4878TIP3    H238830   5.523   0.427  18.104  0.0590  0.0375 -0.8031
 4879TIP3   OH238831   7.131   4.927  18.098  0.3579  0.0368 -0.1149
 4879TIP3    H138832   7.102   4.843  18.061  0.7400 -1.2346  2.2502
 4879TIP3    H238833   7.069   4.991  18.065 -2.2979 -1.8176  0.9655
 4880TIP3   OH238834   4.718   7.832  17.998  0.3583 -0.1058  0.1252
 4880TIP3    H138835   4.740   7.759  17.939  1.2127 -0.7375  1.1875
 4880TIP3    H238836   4.775   7.903  17.970 -1.0099  0.4428 -1.4084
 4881TIP3   OH238837   7.997   0.509  18.177 -0.2433  1.0424 -0.6670
 4881TIP3    H138838   7.913   0.526  18.220  0.7182 -0.2580  1.8581
 4881TIP3    H238839   7.976   0.446  18.108 -1.4113  1.1579 -0.4393
 4882TIP3   OH238840   6.057   7.387  17.157  0.2374 -0.4140  0.5358
 4882TIP3    H138841   6.079   7.365  17.066 -0.5233 -1.5771  0.6069
 4882TIP3    H238842   5.963   7.372  17.162  0.2204 -0.0131  1.4308
 4883TIP3   OH238843   7.381   0.434  17.531  0.0641 -0.0229 -0.3174
 4883TIP3    H138844   7.286   0.444  17.539  0.0795 -0.1705  0.0188
 4883TIP3    H238845   7.410   0.402  17.616  0.5636  1.1352 -0.0222
 4884TIP3   OH238846   1.339   2.729  18.131 -0.3129  0.4047  0.0275
 4884TIP3    H138847   1.416   2.775  18.096 -1.3417  1.3175 -1.1302
 4884TIP3    H238848   1.339   2.751  18.224 -0.6439  2.6733 -0.4465
 4885TIP3   OH238849   1.704   6.799  17.984  0.1713  0.4062 -0.2856
 4885TIP3    H138850   1.616   6.762  17.991  1.2493 -2.1724  0.9342
 4885TIP3    H238851   1.701   6.880  18.035 -1.2016 -0.2326  0.7048
 4886TIP3   OH238852   3.005   1.150  18.009 -0.6648 -0.4243  0.6430
 4886TIP3    H138853   2.949   1.143  17.932 -0.3606  0.2256  0.3519
 4886TIP3    H238854   3.094   1.139  17.976 -0.4830  0.4503  0.7896
 4887TIP3   OH238855   5.705   5.652  18.709 -0.0638 -0.1556  0.6313
 4887TIP3    H138856   5.724   5.693  18.793  2.5122  0.8638 -0.3495
 4887TIP3    H238857   5.789   5.650  18.663 -1.3963 -0.4248 -2.0330
 4888TIP3   OH238858   3.061   7.580  16.700  0.1485 -0.1978 -0.4481
 4888TIP3    H138859   3.134   7.639  16.681 -0.8338  1.0628 -0.4638
 4888TIP3    H238860   3.093   7.493  16.675  2.0827  0.1002  0.6935
 4889TIP3   OH238861   3.219   3.879  17.610  0.1601  1.0965  0.2553
 4889TIP3    H138862   3.150   3.847  17.553 -0.1509  1.4598  0.4236
 4889TIP3    H238863   3.221   3.816  17.682 -0.2603  1.2941  0.4444
 4890TIP3   OH238864   6.130   7.853  17.070 -0.2742 -0.2510 -0.7564
 4890TIP3    H138865   6.173   7.851  16.985  1.1820 -1.7882 -0.0278
 4890TIP3    H238866   6.114   7.946  17.087  1.6764  0.2820 -1.5986
 4891TIP3   OH238867   6.426   1.960  17.609  0.0330 -0.6437  0.6024
 4891TIP3    H138868   6.378   1.923  17.535  0.1991  0.3155 -0.0132
 4891TIP3    H238869   6.379   1.930  17.686 -0.4121 -1.2929  0.0848
 4892TIP3   OH238870   6.872   7.365  17.815  0.0413  0.0621 -0.0928
 4892TIP3    H138871   6.784   7.405  17.815  0.4833  1.0866  0.5176
 4892TIP3    H238872   6.903   7.377  17.905  0.8625 -0.1556 -0.3438
 4893TIP3   OH238873   4.811   4.352  18.964 -0.2097 -0.7599 -0.2618
 4893TIP3    H138874   4.889   4.327  18.914 -2.3216  0.2219 -4.5424
 4893TIP3    H238875   4.813   4.448  18.964 -1.3935 -0.7266 -0.4559
 4894TIP3   OH238876   7.235   6.841  18.343  0.5091  0.1675 -0.0578
 4894TIP3    H138877   7.231   6.786  18.265  2.0224  1.0043 -0.7874
 4894TIP3    H238878   7.276   6.785  18.410  0.9823  0.0419 -0.4480
 4895TIP3   OH238879   3.655   1.558  17.633  0.8889 -0.6264  0.3524
 4895TIP3    H138880   3.605   1.559  17.715  2.0848 -1.7648  1.1584
 4895TIP3    H238881   3.707   1.477  17.639  1.8453 -0.1419 -1.0145
 4896TIP3   OH238882   4.162   4.616  18.925 -0.1976 -0.0759 -0.5295
 4896TIP3    H138883   4.090   4.553  18.933  0.1205 -0.4584 -0.6202
 4896TIP3    H238884   4.174   4.627  18.831 -1.0616  1.0740 -0.5268
 4897TIP3   OH238885   5.426   0.087  17.294  0.2445 -0.0485  0.0105
 4897TIP3    H138886   5.348   0.124  17.253 -0.6325  0.8801  2.3633
 4897TIP3    H238887   5.431  -0.002  17.260 -1.7418 -0.0710 -0.3391
 4898TIP3   OH238888   4.492   5.380  17.735  1.0735 -1.1600  0.1674
 4898TIP3    H138889   4.559   5.375  17.668  0.6891 -2.0931 -0.1646
 4898TIP3    H238890   4.411   5.357  17.690  0.3064  1.0919  0.2842
 4899TIP3   OH238891   7.655   7.452  18.510  0.1362  0.0250  0.0789
 4899TIP3    H138892   7.586   7.517  18.522 -0.9300 -1.1784  0.7931
 4899TIP3    H238893   7.609   7.373  18.480  1.3011 -0.5823 -0.1783
 4900TIP3   OH238894   3.181   7.232  18.531 -0.7157  0.7491  0.0365
 4900TIP3    H138895   3.262   7.182  18.538 -2.3216 -1.9478  0.8949
 4900TIP3    H238896   3.172   7.250  18.437  0.7727  0.9539 -0.0905
 4901TIP3   OH238897   0.922   4.746  18.572  0.0213  0.2146  0.4523
 4901TIP3    H138898   1.008   4.705  18.580 -0.6129 -1.3405 -0.2328
 4901TIP3    H238899   0.928   4.826  18.624  1.7182 -0.1110  0.8103
 4902TIP3   OH238900   6.691   5.493  17.418  0.0298  0.8061 -0.3739
 4902TIP3    H138901   6.669   5.439  17.342 -0.2972  1.9897 -1.1406
 4902TIP3    H238902   6.785   5.480  17.430 -0.3473 -1.3971  0.6393
 4903TIP3   OH238903   1.981   2.697  17.376 -0.2930 -0.2803  0.3302
 4903TIP3    H138904   1.985   2.603  17.394 -0.8246 -0.4051 -0.1744
 4903TIP3    H238905   1.903   2.708  17.322  0.5268  0.2435 -0.8083
 4904TIP3   OH238906   7.559   5.079  17.731  0.8682  0.2066 -0.0971
 4904TIP3    H138907   7.589   5.056  17.819 -0.6859  1.6028  0.8503
 4904TIP3    H238908   7.491   5.015  17.712  0.9101  0.1634 -0.1007
 4905TIP3   OH238909   5.732   6.995  16.486  0.1405  0.3137 -0.6787
 4905TIP3    H138910   5.670   7.068  16.483  1.6242  1.8180  1.5890
 4905TIP3    H238911   5.680   6.920  16.515 -0.6897  1.5170  1.1086
 4906TIP3   OH238912   3.295   6.507  17.906  0.6519 -0.7518 -0.0238
 4906TIP3    H138913   3.212   6.526  17.950  1.1505 -0.3419  0.7508
 4906TIP3    H238914   3.269   6.468  17.822 -0.3151 -1.0355  0.3960
 4907TIP3   OH238915   8.218   7.311  17.690  0.3468  0.2237 -0.2734
 4907TIP3    H138916   8.254   7.297  17.778 -0.5989 -0.4186  0.0302
 4907TIP3    H238917   8.180   7.399  17.694  0.1448  0.1243  0.0239
 4908TIP3   OH238918   7.502   7.077  17.439  0.2627 -0.1581  0.1248
 4908TIP3    H138919   7.455   7.161  17.435 -0.6141 -0.6800 -1.8422
 4908TIP3    H238920   7.565   7.088  17.510 -1.1598  1.4598  1.2142
 4909TIP3   OH238921   3.048   0.311  18.386 -0.5529 -0.7705  0.3742
 4909TIP3    H138922   3.047   0.299  18.481  1.6327 -1.0485  0.4227
 4909TIP3    H238923   3.021   0.402  18.373 -0.6511 -0.6546  1.2897
 4910TIP3   OH238924   1.203   6.020  19.010 -0.2252  0.6041  0.1120
 4910TIP3    H138925   1.223   6.097  18.958 -2.6100 -0.0365 -1.9133
 4910TIP3    H238926   1.259   5.951  18.973 -2.2614  0.0197 -2.1942
 4911TIP3   OH238927   1.325   7.594  17.841 -0.0988  0.2257 -0.4620
 4911TIP3    H138928   1.256   7.546  17.796  0.3227 -0.3726 -0.4857
 4911TIP3    H238929   1.288   7.681  17.855 -0.5411  0.1769 -1.2303
 4912TIP3   OH238930   0.218   2.957  17.194  0.0085 -0.3660  0.1084
 4912TIP3    H138931   0.184   3.022  17.256  1.6989  1.0022 -0.3174
 4912TIP3    H238932   0.308   2.984  17.178  0.9807 -3.2361  0.3664
 4913TIP3   OH238933   3.325   3.063  18.736  1.0528 -0.1112  0.8438
 4913TIP3    H138934   3.374   3.134  18.694  0.2637 -1.0034 -1.7567
 4913TIP3    H238935   3.233   3.087  18.726  0.8143 -0.6222  1.6586
 4914TIP3   OH238936   7.380   5.298  16.645 -0.1385 -0.3544  0.0540
 4914TIP3    H138937   7.316   5.364  16.617  1.1335  0.0852 -2.0248
 4914TIP3    H238938   7.332   5.215  16.638 -0.5154 -0.0438 -1.5614
 4915TIP3   OH238939   5.201   2.190  17.929 -0.1719  0.6608  0.1081
 4915TIP3    H138940   5.139   2.164  17.997 -0.5011 -0.3925 -0.5807
 4915TIP3    H238941   5.183   2.132  17.856  0.1861  1.7608 -0.8923
 4916TIP3   OH238942   2.441   5.229  18.435 -0.4363  0.0368 -0.2027
 4916TIP3    H138943   2.429   5.135  18.422  3.7248 -0.5660 -1.0189
 4916TIP3    H238944   2.353   5.262  18.448 -2.1993 -3.7978 -0.8692
 4917TIP3   OH238945   7.281   2.811  16.687  0.7270 -0.3526 -0.0257
 4917TIP3    H138946   7.281   2.774  16.775 -0.5464 -0.6029 -0.1182
 4917TIP3    H238947   7.204   2.774  16.644  0.5680  0.7960 -0.8005
 4918TIP3   OH238948   7.895   4.373  19.415  0.2011  0.4743  0.7599
 4918TIP3    H138949   7.959   4.303  19.402 -2.0561 -1.4652 -1.1414
 4918TIP3    H238950   7.941   4.453  19.392  1.6841 -0.9461 -1.6700
 4919TIP3   OH238951   0.610   6.420  16.684  0.3105  0.2185  0.1530
 4919TIP3    H138952   0.672   6.472  16.634 -2.7565  1.7761 -2.3737
 4919TIP3    H238953   0.628   6.330  16.658  1.6807  0.5827 -0.2485
 4920TIP3   OH238954   6.046   8.273  18.847  0.0441 -0.1869  0.2268
 4920TIP3    H138955   6.117   8.323  18.889  1.0602 -0.6668 -0.8453
 4920TIP3    H238956   5.982   8.339  18.822  0.5700  0.3883  0.3511
 4921TIP3   OH238957   2.623   6.709  17.180  1.3254  0.0725  0.1787
 4921TIP3    H138958   2.544   6.750  17.216  1.2230 -0.2803  0.3696
 4921TIP3    H238959   2.689   6.719  17.249  1.3598  0.0976  0.1427
 4922TIP3   OH238960   8.037   7.375  18.163 -0.1626 -0.4284  0.6232
 4922TIP3    H138961   7.989   7.294  18.180 -2.4004  0.6171 -0.3682
 4922TIP3    H238962   8.007   7.436  18.231  0.0130  0.1467  0.1961
 4923TIP3   OH238963   1.768   4.132  18.109  0.2457 -0.6440 -0.4172
 4923TIP3    H138964   1.861   4.127  18.084 -0.0163  0.3691 -1.7599
 4923TIP3    H238965   1.769   4.138  18.204  1.3900 -3.7646 -0.1079
 4924TIP3   OH238966   1.953   7.827  18.420  0.5166 -0.0616  0.1327
 4924TIP3    H138967   2.010   7.753  18.400  1.5128  0.5781  0.5312
 4924TIP3    H238968   2.004   7.904  18.395 -0.1875  0.5205  0.4581
 4925TIP3   OH238969   2.978   4.109  17.685  0.3901 -0.2310 -0.8106
 4925TIP3    H138970   2.943   4.197  17.702  0.8821 -0.0757 -0.5682
 4925TIP3    H238971   3.055   4.103  17.742 -0.2524 -1.2218 -0.0048
 4926TIP3   OH238972   8.282   3.097  17.305  0.2830 -0.3554  0.1206
 4926TIP3    H138973   8.363   3.148  17.297  0.2348 -0.4863 -1.4653
 4926TIP3    H238974   8.225   3.131  17.236  0.2105 -2.4582 -0.9380
 4927TIP3   OH238975   7.341   0.070  18.458  0.0982 -0.1399 -0.1752
 4927TIP3    H138976   7.433   0.078  18.485 -0.4463 -0.1815  1.9091
 4927TIP3    H238977   7.338  -0.009  18.405  1.0188 -1.0698  1.0980
 4928TIP3   OH238978   7.697   5.848  18.597 -0.1577 -0.2300 -0.1766
 4928TIP3    H138979   7.730   5.936  18.578 -0.8687 -0.2381 -1.5288
 4928TIP3    H238980   7.705   5.840  18.692 -2.8694  2.4517  0.4022
 4929TIP3   OH238981   1.234   5.690  17.157 -0.9553 -0.3309  0.4888
 4929TIP3    H138982   1.242   5.784  17.173  1.0539 -0.7298  2.2694
 4929TIP3    H238983   1.318   5.664  17.119 -0.9615 -1.6124  1.2723
 4930TIP3   OH238984   6.277   1.170  17.608 -0.1566  0.3427  0.7177
 4930TIP3    H138985   6.311   1.134  17.526  0.3698 -0.6499  1.3522
 4930TIP3    H238986   6.355   1.201  17.654 -0.5969  2.3959  0.1770
 4931TIP3   OH238987   4.557   2.272  17.724  0.3795  0.1979  0.2837
 4931TIP3    H138988   4.519   2.342  17.671  0.3666  0.5875  0.7976
 4931TIP3    H238989   4.522   2.287  17.812  0.3084 -0.5071  0.3797
 4932TIP3   OH238990   2.835   0.745  18.378  0.0284 -0.0735  0.2302
 4932TIP3    H138991   2.874   0.667  18.339  1.3500 -0.6301  2.4766
 4932TIP3    H238992   2.904   0.811  18.373  0.0190  0.0087  1.0958
 4933TIP3   OH238993   5.435   3.115  17.894 -0.1129 -0.0398  0.0801
 4933TIP3    H138994   5.411   3.091  17.805 -0.0450 -2.3466  0.6223
 4933TIP3    H238995   5.516   3.068  17.911 -0.5961 -0.3813  1.6548
 4934TIP3   OH238996   8.444   3.598  17.242  0.3123 -0.2401 -0.3382
 4934TIP3    H138997   8.417   3.574  17.153 -1.3486  0.5984 -0.0959
 4934TIP3    H238998   8.444   3.694  17.242 -2.7817 -0.1070  1.3480
 4935TIP3   OH238999   0.471   0.640  18.137 -0.1415 -0.0790  0.0189
 4935TIP3    H139000   0.534   0.698  18.180 -1.5419  0.4284  1.4652
 4935TIP3    H239001   0.474   0.665  18.045 -0.3093  1.9501  0.5206
 4936TIP3   OH239002   7.399   2.336  17.234  0.1158 -0.0363  0.0720
 4936TIP3    H139003   7.460   2.373  17.297 -1.5616  1.7098  0.7765
 4936TIP3    H239004   7.349   2.272  17.284 -0.5646  0.6481  0.2819
 4937TIP3   OH239005   3.546   3.445  18.827  0.6996  0.0564 -0.2236
 4937TIP3    H139006   3.569   3.377  18.890 -0.9221  0.5949  1.0233
 4937TIP3    H239007   3.622   3.451  18.768  1.2493 -2.1459  0.1952
 4938TIP3   OH239008   1.474   6.625  17.593  0.0110  0.1023  0.1861
 4938TIP3    H139009   1.532   6.613  17.668 -0.4805  0.8485  0.6910
 4938TIP3    H239010   1.530   6.609  17.517  0.6561 -0.0620  0.6860
 4939TIP3   OH239011   2.306   0.780  18.249  0.1569  1.1669  0.5286
 4939TIP3    H139012   2.379   0.730  18.213 -1.1204 -0.0325 -0.5000
 4939TIP3    H239013   2.246   0.793  18.176 -2.0574 -0.4837  1.9209
 4940TIP3   OH239014   2.875   7.481  18.470  0.0135  0.6520 -0.7338
 4940TIP3    H139015   2.906   7.571  18.458  0.7522  0.4256 -0.5319
 4940TIP3    H239016   2.788   7.492  18.509  1.4699  1.2928  2.6914
 4941TIP3   OH239017   6.310   1.399  16.987  0.2643 -0.3540  0.4345
 4941TIP3    H139018   6.358   1.480  17.004 -0.8873  0.2902  0.7177
 4941TIP3    H239019   6.343   1.370  16.901  1.9351 -0.5430  1.1000
 4942TIP3   OH239020   7.981   4.929  17.417 -0.3526  0.3705 -0.6713
 4942TIP3    H139021   7.909   4.894  17.470  1.1340  1.7263  2.5477
 4942TIP3    H239022   8.055   4.873  17.437  0.1212  0.5304 -1.9023
 4943TIP3   OH239023   2.133   7.801  17.904 -0.2448  0.1680 -0.2191
 4943TIP3    H139024   2.047   7.804  17.946 -0.3685  0.8577 -0.5081
 4943TIP3    H239025   2.115   7.763  17.818 -0.2713  0.3778 -0.3066
 4944TIP3   OH239026   6.196   0.391  17.987  0.3527  0.5298  0.0049
 4944TIP3    H139027   6.145   0.316  18.019 -0.2069  1.0435  0.3545
 4944TIP3    H239028   6.165   0.404  17.897  1.1495 -0.2493 -0.3916
 4945TIP3   OH239029   4.009   6.138  17.700  0.7685 -0.0996  0.1569
 4945TIP3    H139030   3.937   6.123  17.639  0.1536  0.0100  0.8447
 4945TIP3    H239031   4.061   6.057  17.695  0.2710 -0.4212  0.0944
 4946TIP3   OH239032   3.035   0.585  18.203 -0.7688  0.3704 -0.1276
 4946TIP3    H139033   2.942   0.581  18.179 -0.9056 -0.3058  0.4722
 4946TIP3    H239034   3.069   0.498  18.183 -0.9530 -0.3346  2.2490
 4947TIP3   OH239035   5.811   1.999  16.215  0.1047 -0.3728  0.3983
 4947TIP3    H139036   5.783   2.003  16.306  1.1599  1.7372  0.7033
 4947TIP3    H239037   5.729   1.996  16.165 -0.5304  0.1279  1.3706
 4948TIP3   OH239038   4.656   5.802  17.600 -0.3573 -0.4821  0.6918
 4948TIP3    H139039   4.714   5.751  17.544 -0.2534  0.4035 -0.0147
 4948TIP3    H239040   4.568   5.778  17.571 -0.3051  0.8014 -0.6537
 4949TIP3   OH239041   6.778   0.120  16.279 -0.2976  0.0299  0.2642
 4949TIP3    H139042   6.814   0.171  16.352  0.8009  0.2329 -0.3898
 4949TIP3    H239043   6.795   0.029  16.303 -0.3566  0.0739  0.4738
 4950TIP3   OH239044   5.024   1.646  16.661 -0.2924  0.2775  0.3046
 4950TIP3    H139045   4.962   1.718  16.677 -0.1729  0.1670  1.3661
 4950TIP3    H239046   5.108   1.680  16.692 -0.3885 -0.5974  1.6051
 4951TIP3   OH239047   3.060   2.410  18.513  0.2558  0.8643  0.3438
 4951TIP3    H139048   3.076   2.430  18.421  0.3684  0.7417  0.3361
 4951TIP3    H239049   2.972   2.374  18.516  1.2957 -1.9671 -0.1537
 4952TIP3   OH239050   4.461   3.941  18.894 -0.1700  0.0463  0.4321
 4952TIP3    H139051   4.452   3.940  18.989 -0.1535 -0.8590  0.4409
 4952TIP3    H239052   4.372   3.955  18.862 -0.2192  0.0790  0.5800
 4953TIP3   OH239053   3.617   7.558  17.132  0.0421  0.5273 -0.0014
 4953TIP3    H139054   3.626   7.596  17.044 -0.2931 -1.1609 -0.8201
 4953TIP3    H239055   3.528   7.579  17.158 -0.8676 -1.3200 -1.3333
 4954TIP3   OH239056   2.384   2.047  17.883  0.0589  0.3500 -0.3033
 4954TIP3    H139057   2.385   2.030  17.977 -0.5517  1.9691  0.0236
 4954TIP3    H239058   2.470   2.084  17.864  0.6212 -1.0642 -0.6276
 4955TIP3   OH239059   6.708   5.776  18.319 -0.1997 -0.0880 -0.5555
 4955TIP3    H139060   6.649   5.774  18.393 -0.5312  3.0594 -0.5816
 4955TIP3    H239061   6.663   5.727  18.250 -1.0593 -0.8618  0.5289
 4956TIP3   OH239062   1.748   3.562  17.629  0.3446  0.4348  0.2650
 4956TIP3    H139063   1.682   3.597  17.689  0.9382  1.4511  0.3279
 4956TIP3    H239064   1.779   3.482  17.672 -0.1603  0.4574  0.6851
 4957TIP3   OH239065   4.977   2.162  18.078  0.4790 -0.3136 -0.1534
 4957TIP3    H139066   4.973   2.194  18.168  1.3308  0.1406 -0.2628
 4957TIP3    H239067   4.937   2.232  18.026  0.5184 -0.3135 -0.1841
 4958TIP3   OH239068   7.597   4.897  18.130  0.0855  0.9031  0.4201
 4958TIP3    H139069   7.680   4.862  18.163  0.4952  1.2332 -0.2261
 4958TIP3    H239070   7.583   4.977  18.181 -0.1904  0.4882  1.0043
 4959TIP3   OH239071   0.715   6.386  19.256 -0.5230  0.1618  0.2211
 4959TIP3    H139072   0.790   6.351  19.304 -0.0598 -1.2560 -1.4183
 4959TIP3    H239073   0.663   6.309  19.235 -0.5193  0.6532 -1.7903
 4960TIP3   OH239074   7.046   4.527  17.657 -0.1692  0.1546  0.1366
 4960TIP3    H139075   6.994   4.477  17.593 -2.8100  0.6179  1.7939
 4960TIP3    H239076   7.088   4.460  17.711 -0.6143 -0.2438 -0.0045
 4961TIP3   OH239077   6.173   7.426  17.448  0.4095 -0.0793 -0.1697
 4961TIP3    H139078   6.126   7.432  17.365 -1.8450  0.7660  1.0818
 4961TIP3    H239079   6.153   7.508  17.493  1.1300 -0.7443  1.4428
 4962TIP3   OH239080   8.085   2.540  18.779  0.3661  0.0563 -0.4423
 4962TIP3    H139081   8.129   2.475  18.833 -1.6789 -0.8752  0.1631
 4962TIP3    H239082   8.152   2.607  18.764  2.3432 -1.8260 -0.5657
 4963TIP3   OH239083   7.224   6.852  17.775  0.4062  0.1453 -0.1376
 4963TIP3    H139084   7.162   6.919  17.803  0.1074  0.5153 -1.6240
 4963TIP3    H239085   7.239   6.869  17.682  1.0176 -1.3075 -0.3427
 4964TIP3   OH239086   1.696   5.900  16.723 -0.0076 -0.2699  0.3923
 4964TIP3    H139087   1.677   5.992  16.706 -1.3571 -0.5192  0.5068
 4964TIP3    H239088   1.632   5.873  16.788  0.5289 -1.2346  0.5406
 4965TIP3   OH239089   8.074   6.182  17.706  0.2761  0.2300 -0.0583
 4965TIP3    H139090   8.142   6.115  17.719  1.3845  1.2167 -0.5479
 4965TIP3    H239091   8.087   6.212  17.616 -0.6937  0.5786 -0.0895
 4966TIP3   OH239092   2.386   5.287  17.555  0.0332 -0.0314 -0.1240
 4966TIP3    H139093   2.349   5.300  17.643  0.5035  0.7425 -0.0334
 4966TIP3    H239094   2.479   5.304  17.565  0.5125 -2.2872 -0.2913
 4967TIP3   OH239095   4.479   2.333  16.909  0.0369 -0.2627 -0.2313
 4967TIP3    H139096   4.521   2.378  16.837  0.4295 -0.9985 -0.4779
 4967TIP3    H239097   4.385   2.350  16.897  0.2332  1.3963  0.3259
 4968TIP3   OH239098   6.596   0.071  16.952 -0.6455  0.1694  0.5721
 4968TIP3    H139099   6.687   0.100  16.949 -0.2691 -1.0214  0.3973
 4968TIP3    H239100   6.558   0.121  17.025  0.2832  0.2611  1.0018
 4969TIP3   OH239101   5.560   5.571  18.398  0.1012 -0.4544  0.0477
 4969TIP3    H139102   5.640   5.518  18.408 -0.5750 -2.0427 -2.0512
 4969TIP3    H239103   5.508   5.551  18.475  0.3362 -2.1031 -0.1727
 4970TIP3   OH239104   0.223   4.129  18.690  0.6114 -0.3305 -0.0652
 4970TIP3    H139105   0.234   4.036  18.711 -0.0422 -0.4186 -0.0893
 4970TIP3    H239106   0.224   4.133  18.595 -0.5096 -0.4775 -0.1008
 4971TIP3   OH239107   4.297   4.955  18.258 -0.0719 -0.7667  0.4546
 4971TIP3    H139108   4.283   5.033  18.312 -0.0659 -1.3663  1.3298
 4971TIP3    H239109   4.245   4.972  18.179  3.1218  1.9622 -1.2999
 4972TIP3   OH239110   1.933   6.981  18.391 -0.4668 -0.1840  0.2820
 4972TIP3    H139111   1.842   6.974  18.362 -0.4436  1.5680 -0.3169
 4972TIP3    H239112   1.945   6.907  18.451 -1.6193 -1.7249 -1.2940
 4973TIP3   OH239113   2.411   5.143  18.065 -0.1952 -0.2864  0.2526
 4973TIP3    H139114   2.333   5.138  18.009  1.1248  0.4012 -1.7460
 4973TIP3    H239115   2.424   5.053  18.096 -1.4787 -0.5030  0.2386
 4974TIP3   OH239116   3.028   4.041  18.808  0.2126  0.0030 -0.0491
 4974TIP3    H139117   3.115   4.016  18.777 -0.3266  0.8745 -2.5792
 4974TIP3    H239118   3.032   4.137  18.812 -1.1414  0.2050 -2.1672
 4975TIP3   OH239119   3.690   7.252  17.809 -0.1241 -0.1957 -0.2129
 4975TIP3    H139120   3.669   7.159  17.813  1.2872 -0.6888 -2.7316
 4975TIP3    H239121   3.781   7.258  17.837 -0.0391  0.3677 -0.5914
 4976TIP3   OH239122   2.433   3.791  16.729 -0.2971 -0.0638  0.0097
 4976TIP3    H139123   2.483   3.872  16.716 -0.0204 -0.3574 -0.8425
 4976TIP3    H239124   2.478   3.746  16.800 -0.5475  0.6027  0.5986
 4977TIP3   OH239125   4.884   4.800  18.135  0.0288 -0.0112  0.2803
 4977TIP3    H139126   4.826   4.756  18.073  1.1109 -0.5632 -0.3647
 4977TIP3    H239127   4.930   4.728  18.179  1.8330  0.4390 -0.7870
 4978TIP3   OH239128   3.531   0.191  17.073 -0.3912 -0.1377 -0.3740
 4978TIP3    H139129   3.458   0.178  17.013 -2.0705  0.3247  1.4465
 4978TIP3    H239130   3.521   0.282  17.103  1.4326  0.1960 -0.6835
 4979TIP3   OH239131   5.774   5.800  18.462 -0.3574  0.3472 -0.8389
 4979TIP3    H139132   5.682   5.826  18.461 -0.2984  0.7711  1.0863
 4979TIP3    H239133   5.794   5.784  18.554  0.9742 -1.7529 -1.4050
 4980TIP3   OH239134   7.098   4.076  17.715 -0.1023  0.0544  0.4684
 4980TIP3    H139135   7.068   4.081  17.806 -0.0231  1.6566  0.4423
 4980TIP3    H239136   7.018   4.076  17.663 -0.1543  2.0301  0.4750
 4981TIP3   OH239137   7.721   2.723  18.491 -0.1127  0.7500 -0.1011
 4981TIP3    H139138   7.638   2.708  18.535  0.2661  0.7442  0.6145
 4981TIP3    H239139   7.697   2.760  18.406 -0.7864  2.2353  0.7186
 4982TIP3   OH239140   2.943   0.393  17.794 -0.9654 -0.5050 -0.2321
 4982TIP3    H139141   3.014   0.331  17.815  0.1835  1.2785  1.4880
 4982TIP3    H239142   2.915   0.367  17.706  3.5755  0.1952 -2.2034
 4983TIP3   OH239143   3.510   2.786  17.911  1.1369  0.0121 -0.2856
 4983TIP3    H139144   3.447   2.760  17.844  0.5322  0.7735 -0.0376
 4983TIP3    H239145   3.515   2.711  17.970  0.3858 -0.0256 -0.2598
 4984TIP3   OH239146   1.851   6.342  17.915 -0.4082 -0.2411  0.2483
 4984TIP3    H139147   1.890   6.297  17.989 -0.8233  0.9579  1.2251
 4984TIP3    H239148   1.895   6.426  17.912 -0.5438 -0.1953 -0.7524
 4985TIP3   OH239149   6.778   4.911  18.415  0.4938 -0.5709 -0.6615
 4985TIP3    H139150   6.840   4.977  18.382  1.3153 -0.5862  0.7866
 4985TIP3    H239151   6.748   4.946  18.498 -1.7548 -0.4165 -1.4833
 4986TIP3   OH239152   0.543   3.991  18.238 -0.3406 -0.3826 -0.0529
 4986TIP3    H139153   0.583   3.904  18.236  2.8173  0.8256  2.1191
 4986TIP3    H239154   0.497   3.994  18.322  0.8141  0.4610  0.5770
 4987TIP3   OH239155   2.825   6.107  17.444  0.2797  0.0841 -0.2450
 4987TIP3    H139156   2.801   6.077  17.532 -0.3534 -1.5422 -0.9236
 4987TIP3    H239157   2.883   6.181  17.458  1.4959 -1.1350  1.5718
 4988TIP3   OH239158   8.230   0.497  17.898 -0.0751 -0.5763  0.0945
 4988TIP3    H139159   8.275   0.554  17.837  1.8580 -2.3347 -0.2240
 4988TIP3    H239160   8.189   0.556  17.961 -0.1902  1.1883 -1.5731
 4989TIP3   OH239161   4.885   8.104  17.275  0.5538  0.4139 -0.1163
 4989TIP3    H139162   4.839   8.036  17.227  0.3828  1.5757 -1.6685
 4989TIP3    H239163   4.877   8.079  17.367  0.3644 -1.5537 -0.6375
 4990TIP3   OH239164   2.981   1.662  17.230 -0.0560 -0.3393 -0.2901
 4990TIP3    H139165   2.918   1.734  17.229  0.2449 -0.0725 -0.4660
 4990TIP3    H239166   3.063   1.702  17.260  0.3941 -0.3622 -1.4118
 4991TIP3   OH239167   5.834   7.535  18.010 -0.2898  0.5324  0.1052
 4991TIP3    H139168   5.853   7.515  17.918 -2.6769 -0.0427 -0.3324
 4991TIP3    H239169   5.834   7.450  18.054 -1.9908  0.4592  0.0146
 4992TIP3   OH239170   5.916   4.637  19.027  0.5800  0.5703 -0.0318
 4992TIP3    H139171   5.945   4.673  18.943  1.1754  0.2539  0.0368
 4992TIP3    H239172   5.835   4.685  19.047  0.0093  0.0980 -1.1589
 4993TIP3   OH239173   6.154   8.293  16.585  0.4461  0.6767  0.4027
 4993TIP3    H139174   6.162   8.388  16.597  0.2806  1.0192 -1.8013
 4993TIP3    H239175   6.218   8.272  16.516  2.2747 -1.2665  2.4960
 4994TIP3   OH239176   1.793   4.108  18.373  0.2089 -0.1992  0.2471
 4994TIP3    H139177   1.729   4.173  18.403 -0.6419 -1.2147  0.7178
 4994TIP3    H239178   1.741   4.029  18.359  1.0426 -0.4869 -1.3752
 4995TIP3   OH239179   6.772   5.334  16.611  0.3485  0.5685  0.3434
 4995TIP3    H139180   6.838   5.398  16.584  0.2826  0.3755 -0.2746
 4995TIP3    H239181   6.737   5.300  16.529 -2.2857  2.4389  0.5670
 4996TIP3   OH239182   6.000   1.524  18.375 -0.0191  0.2099 -0.3305
 4996TIP3    H139183   6.027   1.457  18.311  1.4104  2.6405 -2.4679
 4996TIP3    H239184   6.080   1.575  18.390 -1.1781  1.7670  0.7959
 4997TIP3   OH239185   6.892   4.708  18.262  0.2524 -0.1522 -0.2751
 4997TIP3    H139186   6.844   4.709  18.179 -1.9957 -1.0625  0.9418
 4997TIP3    H239187   6.855   4.780  18.312  0.7809 -0.3220  0.3678
 4998TIP3   OH239188   5.169   2.495  17.398  0.1140 -0.3860 -0.4775
 4998TIP3    H139189   5.103   2.426  17.392  0.2375 -0.7288  1.3818
 4998TIP3    H239190   5.251   2.452  17.375  0.1843 -0.8919  0.6393
 4999TIP3   OH239191   6.837   1.859  18.885 -0.3073  0.6582 -0.1524
 4999TIP3    H139192   6.828   1.922  18.956  1.3560 -0.9368  1.5716
 4999TIP3    H239193   6.926   1.871  18.853  1.1385 -2.5499  2.1208
 5000TIP3   OH239194   0.090   2.360  18.864 -0.6184  0.1707 -0.1988
 5000TIP3    H139195   0.001   2.387  18.885 -0.5078 -0.2630  0.9159
 5000TIP3    H239196   0.142   2.388  18.939 -0.0461 -0.6998 -0.2518
 5001TIP3   OH239197   1.547   0.885  17.387 -0.1775 -0.4410  0.1140
 5001TIP3    H139198   1.623   0.914  17.338  1.5389  1.0038  3.3458
 5001TIP3    H239199   1.567   0.794  17.410 -0.6882 -0.9088 -1.2163
 5002TIP3   OH239200   3.533   2.270  17.774 -0.1768  0.6005 -0.3216
 5002TIP3    H139201   3.509   2.177  17.784  1.7478  0.1185  0.3033
 5002TIP3    H239202   3.453   2.318  17.796 -0.2963 -0.8315  3.0714
 5003TIP3   OH239203   5.500   4.791  17.421 -0.0898  0.9015 -0.5716
 5003TIP3    H139204   5.483   4.850  17.495 -1.7800 -1.8405  1.4226
 5003TIP3    H239205   5.561   4.726  17.456 -0.8213 -0.3754 -1.6007
 5004TIP3   OH239206   0.834   4.139  18.710  0.3879 -0.2109 -0.1700
 5004TIP3    H139207   0.746   4.171  18.690  0.8988  0.3480 -1.7088
 5004TIP3    H239208   0.828   4.105  18.799 -2.1206 -2.7966 -1.1761
 5005TIP3   OH239209   8.294   1.813  18.097  0.0013 -0.4921  0.3659
 5005TIP3    H139210   8.291   1.907  18.113 -0.1437 -0.8348  2.7901
 5005TIP3    H239211   8.296   1.805  18.002  1.8876  1.9784  0.0981
 5006TIP3   OH239212   2.903   8.138  18.354 -0.4940 -0.0938 -0.0296
 5006TIP3    H139213   2.939   8.072  18.295  1.4954  0.5216  0.4269
 5006TIP3    H239214   2.909   8.098  18.441 -1.1449 -0.0711  0.0270
 5007TIP3   OH239215   5.044   4.263  17.202 -0.1118 -0.1144 -0.6971
 5007TIP3    H139216   4.985   4.188  17.193 -0.2867 -0.2701  1.3056
 5007TIP3    H239217   5.100   4.259  17.125 -1.1363 -1.3883 -1.4129
 5008TIP3   OH239218   0.351   5.863  17.961  0.1212  0.2602 -0.1001
 5008TIP3    H139219   0.294   5.792  17.989 -0.6218 -0.0361 -2.2356
 5008TIP3    H239220   0.306   5.942  17.989 -0.7794 -0.0144 -0.7122
 5009TIP3   OH239221   1.474   2.438  17.169 -0.1819  0.2148  0.2310
 5009TIP3    H139222   1.469   2.427  17.264  0.2953  0.3339  0.2710
 5009TIP3    H239223   1.527   2.365  17.139  1.4204  1.3048  0.2909
 5010TIP3   OH239224   5.884   8.100  18.709 -0.0261  0.5842  1.2138
 5010TIP3    H139225   5.938   8.156  18.764 -0.5976  2.4373 -0.0417
 5010TIP3    H239226   5.947   8.038  18.671  0.9232  1.4719  1.2762
 5011TIP3   OH239227   5.261   4.498  18.382  0.0745  0.1477  0.0445
 5011TIP3    H139228   5.317   4.443  18.326  0.6396 -1.6505  2.1944
 5011TIP3    H239229   5.320   4.566  18.414 -0.0486  0.7064 -0.8878
 5012TIP3   OH239230   6.284   0.710  17.468  0.1963 -0.0825  0.3141
 5012TIP3    H139231   6.304   0.654  17.394 -0.5991 -0.1704  0.1593
 5012TIP3    H239232   6.238   0.785  17.430  0.9071  0.4853  0.5671
 5013TIP3   OH239233   7.124   5.747  18.746  0.1931  0.2078  0.3054
 5013TIP3    H139234   7.110   5.841  18.756  0.6193  0.4031 -0.8155
 5013TIP3    H239235   7.037   5.712  18.726  0.3345  0.6751 -1.3088
 5014TIP3   OH239236   4.834   3.160  17.428  0.3572  0.5265 -0.8025
 5014TIP3    H139237   4.795   3.172  17.515  1.1685  1.4858 -0.5557
 5014TIP3    H239238   4.850   3.065  17.423  0.3221  0.4579  0.0981
 5015TIP3   OH239239   0.007   4.395  17.773 -0.9440 -0.3595  0.1969
 5015TIP3    H139240   0.059   4.442  17.708  0.9257 -1.2007  1.0113
 5015TIP3    H239241   0.010   4.304  17.744 -0.2211 -0.7210  1.3518
 5016TIP3   OH239242   2.999   3.542  18.270 -0.3900  0.9511 -0.6871
 5016TIP3    H139243   2.906   3.546  18.295 -0.3299  0.1819 -0.3028
 5016TIP3    H239244   3.035   3.474  18.326  0.3283  0.9822 -1.1083
 5017TIP3   OH239245   3.094   1.490  17.717 -0.3008 -0.0414  0.4789
 5017TIP3    H139246   3.069   1.405  17.679 -1.9938  1.6466 -2.5818
 5017TIP3    H239247   3.014   1.542  17.713  1.5949  3.0097 -1.8103
 5018TIP3   OH239248   2.018   6.445  16.704  0.3100 -0.2873  0.3124
 5018TIP3    H139249   2.003   6.523  16.759 -0.5331  0.0125 -0.3288
 5018TIP3    H239250   2.108   6.456  16.672  0.7355 -0.3488  1.4223
 5019TIP3   OH239251   0.935   8.253  17.315  0.0636  0.1280  0.7087
 5019TIP3    H139252   0.975   8.166  17.310 -0.6497 -0.1864  0.2989
 5019TIP3    H239253   0.975   8.302  17.243  0.8540  0.3243  1.2539
 5020TIP3   OH239254   0.528   5.469  17.413 -0.5764 -0.0246 -0.3568
 5020TIP3    H139255   0.503   5.391  17.363 -0.5274 -0.2159 -0.0861
 5020TIP3    H239256   0.568   5.527  17.348 -0.6403 -0.2124 -0.5676
 5021TIP3   OH239257   1.704   3.184  17.538 -0.0660  0.5489  0.3210
 5021TIP3    H139258   1.675   3.145  17.620  2.1191  1.8460  1.8264
 5021TIP3    H239259   1.624   3.194  17.486 -1.2674 -1.8294  1.5819
 5022TIP3   OH239260   3.237   5.196  17.397 -0.2764 -0.2402  0.9750
 5022TIP3    H139261   3.314   5.205  17.341 -0.7202 -0.9063  0.2375
 5022TIP3    H239262   3.219   5.285  17.428 -1.6993  0.7474 -2.2309
 5023TIP3   OH239263   8.272   7.977  17.469 -0.2686 -0.4839  0.2450
 5023TIP3    H139264   8.276   7.918  17.545  1.2165  0.5082  0.9744
 5023TIP3    H239265   8.327   8.051  17.493 -0.0268  0.0141 -1.6830
 5024TIP3   OH239266   4.526   8.112  18.289 -0.0428  0.8069 -0.6909
 5024TIP3    H139267   4.504   8.110  18.382 -0.0981  1.3321 -0.6851
 5024TIP3    H239268   4.621   8.100  18.286 -0.2602 -1.3109 -0.7069
 5025TIP3   OH239269   0.475   1.959  18.647  0.0898 -0.5605  0.1016
 5025TIP3    H139270   0.383   1.959  18.673 -0.5662 -0.0384 -1.9928
 5025TIP3    H239271   0.472   1.957  18.551  2.2410  0.8423 -0.0523
 5026TIP3   OH239272   5.884   0.984  17.365  0.0468 -0.1316 -0.2703
 5026TIP3    H139273   5.834   0.917  17.411 -0.8692  1.1806  0.7133
 5026TIP3    H239274   5.820   1.030  17.312  1.0596 -1.5167 -2.8667
 5027TIP3   OH239275   5.217   5.539  17.750 -0.1133  0.1822  0.4571
 5027TIP3    H139276   5.123   5.518  17.752 -0.2805  0.9655  1.5096
 5027TIP3    H239277   5.220   5.634  17.738  0.5525  0.1732  0.5128
 5028TIP3   OH239278   5.430   1.348  17.131  0.2432 -0.2586  0.0355
 5028TIP3    H139279   5.511   1.373  17.176  0.6871 -0.4952 -0.6205
 5028TIP3    H239280   5.404   1.267  17.174  1.2732 -1.0896 -0.8479
 5029TIP3   OH239281   4.543   0.992  18.104 -0.2220 -0.6271  0.1785
 5029TIP3    H139282   4.548   1.019  18.012 -0.4593 -0.4703  0.2115
 5029TIP3    H239283   4.633   0.969  18.127 -0.2691 -1.2946 -0.2833
 5030TIP3   OH239284   6.872   1.579  18.911 -0.2891  0.1411  0.2346
 5030TIP3    H139285   6.848   1.589  19.004 -0.5441  0.1177  0.1723
 5030TIP3    H239286   6.873   1.669  18.878 -1.8985  0.0408 -0.1553
 5031TIP3   OH239287   3.303   6.167  17.521  0.9996 -0.3665  0.2652
 5031TIP3    H139288   3.348   6.121  17.592 -0.2986  0.2360  1.5273
 5031TIP3    H239289   3.353   6.248  17.510  0.9557 -0.2669  0.7896
 5032TIP3   OH239290   3.301   5.738  17.113 -0.4716  0.1962 -0.4052
 5032TIP3    H139291   3.330   5.666  17.169 -0.8532 -0.8911 -1.5555
 5032TIP3    H239292   3.314   5.817  17.166 -1.3765 -0.8246  1.4249
 5033TIP3   OH239293   0.170   0.768  17.816  0.6165  0.1012 -0.0196
 5033TIP3    H139294   0.210   0.853  17.832  0.2786  0.4942 -1.1893
 5033TIP3    H239295   0.139   0.740  17.903  1.6648  0.6713  0.5506
 5034TIP3   OH239296   6.488   5.608  18.463 -0.7757  0.4138 -0.5193
 5034TIP3    H139297   6.517   5.520  18.439 -1.5038 -0.3310  1.1758
 5034TIP3    H239298   6.392   5.602  18.463 -0.8405  1.2937 -0.6290
 5035TIP3   OH239299   6.831   6.408  17.229  0.2321  0.2707 -0.2648
 5035TIP3    H139300   6.873   6.338  17.178 -0.4021 -1.5398  1.5766
 5035TIP3    H239301   6.904   6.460  17.263  0.8072 -0.4453 -0.3764
 5036TIP3   OH239302   5.338   7.308  18.026 -1.0088 -0.0801  0.0422
 5036TIP3    H139303   5.347   7.251  18.103  1.1887  0.2552  0.1206
 5036TIP3    H239304   5.255   7.283  17.986 -0.8338 -2.2757  0.9251
 5037TIP3   OH239305   1.491   7.716  17.515  0.0953  1.0138 -0.5601
 5037TIP3    H139306   1.489   7.623  17.540  1.4707  1.5417  1.7657
 5037TIP3    H239307   1.553   7.719  17.442  1.2519  0.2635  0.3446
 5038TIP3   OH239308   5.761   0.427  18.379  0.5215  0.1357  0.2513
 5038TIP3    H139309   5.762   0.517  18.348 -1.7460  1.1214  2.6774
 5038TIP3    H239310   5.702   0.381  18.320 -0.7542  1.0398  0.7895
 5039TIP3   OH239311   2.387   6.246  16.493 -0.1026  0.2253 -0.4474
 5039TIP3    H139312   2.342   6.216  16.414 -1.3087 -0.3946  0.4364
 5039TIP3    H239313   2.443   6.172  16.518 -1.8714 -0.7974  0.8249
 5040TIP3   OH239314   3.047   1.882  18.518 -0.3939  0.2161  0.3158
 5040TIP3    H139315   3.083   1.829  18.446 -0.0150  0.6488  0.1808
 5040TIP3    H239316   3.007   1.957  18.475 -1.2863 -0.1454  0.4791
 5041TIP3   OH239317   1.101   8.322  18.543 -0.6578 -0.0041 -0.4593
 5041TIP3    H139318   1.101   8.349  18.635 -0.2826  0.0428 -0.4736
 5041TIP3    H239319   1.073   8.400  18.495  1.0008  0.5543 -0.5510
 5042TIP3   OH239320   7.615   1.136  17.939  0.1459 -0.2265  0.3699
 5042TIP3    H139321   7.581   1.223  17.961 -0.6016 -0.5799  0.6440
 5042TIP3    H239322   7.586   1.121  17.849  1.2090  0.2472 -0.0730
 5043TIP3   OH239323   6.564   4.858  17.374 -0.1418 -0.3114  0.0615
 5043TIP3    H139324   6.588   4.771  17.407  2.0157 -0.4605 -1.6970
 5043TIP3    H239325   6.497   4.841  17.308 -1.7041 -0.3304  1.5691
 5044TIP3   OH239326   0.266   3.867  18.773 -0.2838  0.0888 -0.7147
 5044TIP3    H139327   0.287   3.846  18.864 -0.5493 -0.8787 -0.8609
 5044TIP3    H239328   0.286   3.787  18.724 -4.0509 -0.9492 -0.8906
 5045TIP3   OH239329   4.025   7.828  18.103 -0.5552  0.0143 -0.0451
 5045TIP3    H139330   3.936   7.850  18.074 -0.1598  2.3899  0.3812
 5045TIP3    H239331   4.079   7.839  18.024 -0.1090  2.3568  0.5354
 5046TIP3   OH239332   1.232   4.836  18.385  0.8088  0.0411 -0.1757
 5046TIP3    H139333   1.140   4.855  18.404  1.3296  0.1183  2.6566
 5046TIP3    H239334   1.270   4.920  18.362  0.5236  0.3149  0.3453
 5047TIP3   OH239335   6.375   3.296  17.632  0.6807  0.6197  0.3526
 5047TIP3    H139336   6.369   3.222  17.572  0.3400  1.2366 -0.3976
 5047TIP3    H239337   6.310   3.278  17.699 -0.3842  0.8812 -0.5736
 5048TIP3   OH239338   1.463   6.008  18.587  0.4523 -0.0258 -0.2964
 5048TIP3    H139339   1.549   6.019  18.627  0.6174 -0.1786 -0.6006
 5048TIP3    H239340   1.468   6.058  18.505  0.1078  0.3177 -0.1147
 5049TIP3   OH239341   0.558   0.180  17.443 -0.3968 -0.3291  0.0033
 5049TIP3    H139342   0.558   0.130  17.525  1.0447  0.1780  0.3432
 5049TIP3    H239343   0.475   0.227  17.444  0.2700  0.9795  2.0226
 5050TIP3   OH239344   0.108   3.452  18.710  0.4969  0.4744 -0.0123
 5050TIP3    H139345   0.094   3.420  18.620  0.8032 -1.1536  0.4887
 5050TIP3    H239346   0.160   3.384  18.752 -0.0988  0.9534  1.5747
 5051TIP3   OH239347   6.593   4.342  18.054 -0.6495 -0.0056  0.1405
 5051TIP3    H139348   6.631   4.291  17.982  0.3970 -0.0056  0.6700
 5051TIP3    H239349   6.569   4.277  18.119  1.7471  0.1876  1.3111
 5052TIP3   OH239350   6.205   4.641  17.324 -0.0016 -0.2953  0.2940
 5052TIP3    H139351   6.189   4.640  17.419  1.5094 -0.6619  0.5854
 5052TIP3    H239352   6.125   4.608  17.285 -0.4959 -0.5471  1.4818
 5053TIP3   OH239353   8.036   6.910  18.825  0.6217  0.3762  0.4336
 5053TIP3    H139354   8.088   6.958  18.761 -2.1779  1.9506 -0.8582
 5053TIP3    H239355   7.992   6.978  18.876 -0.8322 -0.8083  0.8557
 5054TIP3   OH239356   8.332   8.373  18.696  0.5047 -0.2448 -0.3991
 5054TIP3    H139357   8.281   8.293  18.678 -0.0132 -0.2596  1.0528
 5054TIP3    H239358   8.273   8.429  18.746  1.9420 -0.3355  1.5108
 5055TIP3   OH239359   3.390   7.758  17.818 -0.4484  0.2515  0.0326
 5055TIP3    H139360   3.323   7.691  17.830  0.8733 -1.0336  0.4995
 5055TIP3    H239361   3.424   7.742  17.730 -0.1627  0.3392  0.1264
 5056TIP3   OH239362   0.527   3.846  18.535 -0.1008 -0.1321  0.2945
 5056TIP3    H139363   0.438   3.816  18.554  0.4521 -2.3640 -0.3254
 5056TIP3    H239364   0.578   3.765  18.527  1.3218  0.8966 -2.6087
 5057TIP3   OH239365   7.404   3.616  18.838  0.1373 -0.1195  0.5509
 5057TIP3    H139366   7.381   3.641  18.928  1.6735 -1.6250  1.4174
 5057TIP3    H239367   7.346   3.669  18.783 -1.2219  0.4520  2.4295
 5058TIP3   OH239368   0.497   2.719  17.935 -0.3334 -0.2438  0.5238
 5058TIP3    H139369   0.408   2.753  17.934 -0.1521  0.2762  1.1289
 5058TIP3    H239370   0.534   2.750  18.018  0.6512  0.2032 -0.0602
 5059TIP3   OH239371   0.628   3.358  18.967 -0.1681  0.2763 -0.5148
 5059TIP3    H139372   0.690   3.285  18.968 -0.5014 -0.0075 -0.5550
 5059TIP3    H239373   0.602   3.367  18.875 -3.2910 -2.2568 -0.0318
 5060TIP3   OH239374   3.324   0.192  16.891 -0.4202 -0.1643 -0.6764
 5060TIP3    H139375   3.240   0.221  16.927 -0.3126 -0.0942 -0.4802
 5060TIP3    H239376   3.301   0.122  16.830 -0.7690  0.8333 -1.7545
 5061TIP3   OH239377   6.139   1.067  17.089 -0.9454 -0.1630 -0.2520
 5061TIP3    H139378   6.107   1.111  17.010  1.1328 -0.1674 -1.1650
 5061TIP3    H239379   6.106   0.977  17.081 -1.3775  0.0273 -0.7197
 5062TIP3   OH239380   6.863   1.675  16.996 -0.3262 -0.0853 -0.3361
 5062TIP3    H139381   6.943   1.646  16.953  0.3725 -0.6061  1.2591
 5062TIP3    H239382   6.816   1.594  17.017 -0.5144  0.1406  0.1330
 5063TIP3   OH239383   3.130   5.872  16.717  0.0064 -0.2050 -0.1634
 5063TIP3    H139384   3.136   5.828  16.632 -0.0937 -0.0740 -0.2390
 5063TIP3    H239385   3.060   5.937  16.705  0.9918  0.8398 -0.4331
 5064TIP3   OH239386   3.448   3.550  18.116  0.5360 -0.3712 -0.2300
 5064TIP3    H139387   3.435   3.491  18.042 -0.6859 -1.4367  0.8014
 5064TIP3    H239388   3.360   3.571  18.145  0.9948  0.5474  0.5430
 5065TIP3   OH239389   7.263   6.941  17.507 -0.5203 -0.2298  0.7233
 5065TIP3    H139390   7.341   6.973  17.461 -1.1703 -1.6245 -1.5272
 5065TIP3    H239391   7.205   7.017  17.510 -0.0897  0.1460 -0.0029
 5066TIP3   OH239392   2.248   6.469  16.563  0.6486 -0.4128  0.4682
 5066TIP3    H139393   2.288   6.386  16.539 -0.5463 -0.6242 -1.0200
 5066TIP3    H239394   2.227   6.510  16.478 -0.5920  0.4808  1.1747
 5067TIP3   OH239395   1.219   0.575  17.089  0.1745 -0.0971  0.1049
 5067TIP3    H139396   1.167   0.637  17.038 -1.8171 -1.8681 -0.1253
 5067TIP3    H239397   1.310   0.601  17.073 -0.5354  1.8903 -1.0442
 5068TIP3   OH239398   3.190   3.339  18.411 -0.3585  0.2674  0.3807
 5068TIP3    H139399   3.259   3.307  18.353 -0.4436 -0.4413  0.6537
 5068TIP3    H239400   3.197   3.283  18.489 -1.6864 -0.2915  0.1271
 5069TIP3   OH239401   2.172   5.734  17.435 -0.3424 -0.0008 -0.0289
 5069TIP3    H139402   2.254   5.740  17.484 -0.7406  1.4449  0.5053
 5069TIP3    H239403   2.198   5.748  17.344  0.3610 -2.4241 -0.2915
 5070TIP3   OH239404   1.648   2.676  18.231  0.3913 -0.1930  0.2259
 5070TIP3    H139405   1.628   2.754  18.180 -1.5553 -1.3264 -0.8872
 5070TIP3    H239406   1.669   2.709  18.318  2.3787  1.7141 -0.8839
 5071TIP3   OH239407   5.578   4.321  17.243  0.0460  0.3087  0.0846
 5071TIP3    H139408   5.557   4.324  17.336 -1.9144  0.1901 -0.3174
 5071TIP3    H239409   5.631   4.241  17.233 -0.7159 -0.3204  0.9197
 5072TIP3   OH239410   5.427   0.295  17.009 -0.5850  0.1331  0.1300
 5072TIP3    H139411   5.363   0.364  16.988 -0.4225  0.0776 -0.5796
 5072TIP3    H239412   5.381   0.213  16.988 -0.1593  0.1083 -0.7739
 5073TIP3   OH239413   6.334   6.226  18.161  0.1040  0.0493  0.0507
 5073TIP3    H139414   6.281   6.147  18.152  0.0653  0.0889 -0.0720
 5073TIP3    H239415   6.314   6.278  18.083  0.2902  0.0835  0.0238
 5074TIP3   OH239416   7.485   0.320  17.762 -0.0839 -0.6365 -0.5077
 5074TIP3    H139417   7.523   0.248  17.813  0.8662  0.9500  1.1524
 5074TIP3    H239418   7.430   0.366  17.825  1.4410  1.6191 -0.7144
 5075TIP3   OH239419   4.190   4.466  18.438  0.0089 -0.3408 -0.3917
 5075TIP3    H139420   4.155   4.445  18.524 -0.1498 -1.5765 -0.7487
 5075TIP3    H239421   4.259   4.401  18.424  0.9085  0.6395 -0.6708
 5076TIP3   OH239422   7.730   0.629  16.918 -0.5021  0.7766 -0.2100
 5076TIP3    H139423   7.778   0.691  16.864  0.4650 -0.0115 -0.2839
 5076TIP3    H239424   7.638   0.644  16.896 -0.1004 -0.4926 -3.1915
 5077TIP3   OH239425   1.319   3.717  18.032  0.4224  0.2235 -0.0335
 5077TIP3    H139426   1.333   3.622  18.025 -0.7303  0.1226 -1.3334
 5077TIP3    H239427   1.244   3.726  18.090  0.6055  0.3485  0.1858
 5078TIP3   OH239428   6.899   6.547  16.815  0.5603 -0.0976 -0.0762
 5078TIP3    H139429   6.941   6.462  16.803  0.1167 -0.1622 -1.2984
 5078TIP3    H239430   6.951   6.607  16.762 -0.3379 -0.0108 -0.8904
 5079TIP3   OH239431   8.243   4.591  17.770  0.1682  0.1258  0.0006
 5079TIP3    H139432   8.163   4.539  17.765  0.9850 -1.0623 -1.2117
 5079TIP3    H239433   8.313   4.532  17.742  1.2932  1.5453 -0.3319
 5080TIP3   OH239434   3.687   1.191  18.037  0.2302  0.1407  0.3244
 5080TIP3    H139435   3.669   1.137  17.960  1.6718 -0.0837  0.1217
 5080TIP3    H239436   3.782   1.202  18.037  0.0128  2.5276  0.4772
 5081TIP3   OH239437   6.709   1.832  18.625 -0.1501  0.7384 -0.1937
 5081TIP3    H139438   6.719   1.852  18.718 -1.0432  0.8742 -0.1183
 5081TIP3    H239439   6.798   1.813  18.595  0.1738  0.8946  0.6391
 5082TIP3   OH239440   2.639   6.669  16.676 -0.6249 -0.2551 -0.5237
 5082TIP3    H139441   2.545   6.685  16.689 -0.6645 -0.4657 -0.5422
 5082TIP3    H239442   2.681   6.751  16.703 -0.8945  0.3326 -1.7993
 5083TIP3   OH239443   7.984   1.822  17.157  0.3365 -0.6825 -0.2345
 5083TIP3    H139444   7.923   1.827  17.083  0.2386 -2.0888 -0.2734
 5083TIP3    H239445   8.026   1.736  17.147  0.9834 -0.5019  0.8405
 5084TIP3   OH239446   6.753   2.684  17.037 -0.1543  0.6773  0.5080
 5084TIP3    H139447   6.803   2.651  17.112  1.4724  1.1983 -0.3121
 5084TIP3    H239448   6.728   2.605  16.989  0.9250  0.4591  0.2851
 5085TIP3   OH239449   2.839   8.308  17.421  0.0069  0.3318  0.3472
 5085TIP3    H139450   2.844   8.389  17.471  1.2103  1.4734 -1.5160
 5085TIP3    H239451   2.770   8.324  17.356  1.9132  0.8805 -1.6350
 5086TIP3   OH239452   4.794   3.726  17.488  0.3145 -0.1947 -0.1747
 5086TIP3    H139453   4.726   3.744  17.553 -0.8443  0.7509 -1.6022
 5086TIP3    H239454   4.746   3.700  17.409  1.5774  0.7711 -1.3070
 5087TIP3   OH239455   6.970   6.449  19.067 -0.2587 -0.4317  0.6189
 5087TIP3    H139456   6.902   6.515  19.083  0.5884  0.6473 -0.0913
 5087TIP3    H239457   7.016   6.443  19.151 -0.0334  0.2529  0.5507
 5088TIP3   OH239458   1.001   0.504  18.897 -0.0131 -0.2138 -0.5583
 5088TIP3    H139459   1.036   0.539  18.979 -1.1099  1.9235 -0.9303
 5088TIP3    H239460   1.078   0.466  18.853  1.1388  1.0503  0.2611
 5089TIP3   OH239461   6.956   6.785  16.363 -0.4367 -0.1239 -0.1420
 5089TIP3    H139462   6.866   6.818  16.368 -0.9883 -1.6605  0.7036
 5089TIP3    H239463   7.009   6.851  16.407 -1.0402  1.1039 -1.1999
 5090TIP3   OH239464   6.187   0.770  18.023  0.4235 -0.5313 -0.1736
 5090TIP3    H139465   6.202   0.686  18.067  0.9986 -0.6365 -0.5583
 5090TIP3    H239466   6.165   0.745  17.933 -1.2966 -0.3486  0.1610
 5091TIP3   OH239467   2.655   2.698  17.430  0.5048  0.3062  0.5954
 5091TIP3    H139468   2.695   2.783  17.410 -1.5152  1.2990  0.5547
 5091TIP3    H239469   2.684   2.679  17.519  2.2214  0.2571  0.0656
 5092TIP3   OH239470   2.705   0.144  17.072 -0.1988 -0.7393  0.3467
 5092TIP3    H139471   2.795   0.161  17.100 -0.2224 -1.1434  0.6725
 5092TIP3    H239472   2.686   0.216  17.011  1.5228 -2.4927 -2.4886
 5093TIP3   OH239473   5.720   1.426  18.669 -0.0866  0.1755 -0.4311
 5093TIP3    H139474   5.727   1.420  18.574  0.1225  1.2400 -0.4859
 5093TIP3    H239475   5.693   1.516  18.686 -1.7894 -0.4416  0.4378
 5094TIP3   OH239476   2.925   5.466  18.405 -0.0893  0.3660 -0.0496
 5094TIP3    H139477   2.999   5.501  18.455  0.3944 -0.5116 -0.1233
 5094TIP3    H239478   2.854   5.527  18.421  0.1769  0.3354  1.3749
 5095TIP3   OH239479   5.076   8.090  18.524 -0.7042  0.2984 -0.1497
 5095TIP3    H139480   4.983   8.071  18.535 -0.7293 -0.1408 -1.0596
 5095TIP3    H239481   5.118   8.051  18.600 -1.1383 -0.4612 -0.2949
 5096TIP3   OH239482   6.381   4.902  17.634  0.1141  0.3535  0.5298
 5096TIP3    H139483   6.354   4.960  17.562 -0.6643 -1.9740 -1.1473
 5096TIP3    H239484   6.472   4.880  17.613  1.3992  2.9988  2.6701
 5097TIP3   OH239485   3.594   0.911  17.514  0.7193  0.2479 -0.0334
 5097TIP3    H139486   3.522   0.958  17.557  1.7474  1.2324  0.6756
 5097TIP3    H239487   3.651   0.885  17.585 -0.0054 -2.5262 -0.3693
 5098TIP3   OH239488   7.317   0.937  16.725  0.3269 -1.1006 -0.0021
 5098TIP3    H139489   7.332   0.947  16.631 -2.7785  1.8879 -0.3463
 5098TIP3    H239490   7.355   1.016  16.764  0.0434 -1.4732  1.0661
 5099TIP3   OH239491   1.643   3.171  17.970  0.1685  0.3645 -0.1539
 5099TIP3    H139492   1.597   3.202  18.048 -1.2232 -0.1627 -0.7240
 5099TIP3    H239493   1.702   3.103  18.002 -2.1045 -1.5692  0.2226
 5100TIP3   OH239494   0.668   1.962  17.217  0.2871 -0.0802 -0.5184
 5100TIP3    H139495   0.712   2.046  17.230 -0.2950  0.2856 -0.8992
 5100TIP3    H239496   0.619   1.972  17.136  1.7629 -1.4451 -1.6603
 5101TIP3   OH239497   1.184   2.007  17.712 -0.3643  0.3199  0.6619
 5101TIP3    H139498   1.114   1.957  17.670  1.2409 -1.0123 -0.5684
 5101TIP3    H239499   1.203   1.958  17.793  0.6844 -0.7078 -0.1652
 5102TIP3   OH239500   0.462   6.437  17.616 -0.3672  0.4248 -0.7591
 5102TIP3    H139501   0.468   6.531  17.632 -0.9619  0.3135  0.2442
 5102TIP3    H239502   0.503   6.424  17.531 -0.1221  1.5667 -0.8319
 5103TIP3   OH239503   4.787   5.499  18.543  0.1141  0.7326 -0.4901
 5103TIP3    H139504   4.734   5.579  18.541 -0.8985  0.0770 -1.0618
 5103TIP3    H239505   4.749   5.448  18.614  1.7291  1.3605  0.8934
 5104TIP3   OH239506   7.137   5.578  18.514  0.0950 -0.3769 -0.3591
 5104TIP3    H139507   7.125   5.608  18.604  1.5307 -2.1856  0.5293
 5104TIP3    H239508   7.228   5.602  18.493 -0.0411 -0.4861 -1.1020
 5105TIP3   OH239509   6.782   4.419  18.339 -0.4102 -0.1564 -0.5822
 5105TIP3    H139510   6.766   4.492  18.279 -0.6373 -0.0318 -0.3751
 5105TIP3    H239511   6.702   4.414  18.391 -0.3379 -0.4634 -0.4985
 5106TIP3   OH239512   0.134   7.218  18.317 -0.3570  0.2062 -0.0862
 5106TIP3    H139513   0.159   7.210  18.225  0.1035  2.1063 -0.1727
 5106TIP3    H239514   0.216   7.232  18.364 -0.7987  2.1115  0.2076
 5107TIP3   OH239515   5.589   0.964  18.021  0.0082 -0.0401  0.2445
 5107TIP3    H139516   5.623   0.970  18.110  0.6418 -0.7176  0.0516
 5107TIP3    H239517   5.661   0.993  17.965  0.4596 -1.8680 -0.1875
 5108TIP3   OH239518   6.668   2.830  18.241  0.0767  0.0460  0.3057
 5108TIP3    H139519   6.611   2.903  18.216 -0.2818 -0.4181 -0.2649
 5108TIP3    H239520   6.636   2.803  18.327 -1.8574 -1.4097 -0.7621
 5109TIP3   OH239521   3.644   0.635  18.341 -0.3272  0.6317  0.3328
 5109TIP3    H139522   3.559   0.680  18.341 -0.6603  0.0814 -1.1381
 5109TIP3    H239523   3.679   0.649  18.429 -1.4803  1.7372  0.6504
 5110TIP3   OH239524   4.937   5.082  18.543 -0.3797  0.3865 -0.3240
 5110TIP3    H139525   4.989   5.135  18.482  1.1321 -0.2288  0.3838
 5110TIP3    H239526   4.895   5.016  18.487  1.1258 -0.2769 -0.7206
 5111TIP3   OH239527   5.609   8.263  17.391  0.5567 -0.4501  0.0345
 5111TIP3    H139528   5.679   8.202  17.414 -0.2910 -0.9646  1.4268
 5111TIP3    H239529   5.534   8.208  17.369 -0.4897 -0.0190  2.1569
 5112TIP3   OH239530   6.480   1.252  18.015 -1.0115  0.4049 -0.3934
 5112TIP3    H139531   6.535   1.201  18.074 -1.0247  1.7474  0.8255
 5112TIP3    H239532   6.534   1.265  17.937 -0.2744  0.2339  0.0871
 5113TIP3   OH239533   3.739   6.813  18.724  0.7648 -0.0544  0.4021
 5113TIP3    H139534   3.766   6.824  18.815 -0.5426  0.6467  0.7252
 5113TIP3    H239535   3.798   6.870  18.674 -0.7298  2.3298  1.2132
 5114TIP3   OH239536   7.848   6.952  16.853  0.1925  0.1556 -0.3091
 5114TIP3    H139537   7.836   6.901  16.773  0.5766 -2.6806  1.3122
 5114TIP3    H239538   7.902   6.897  16.909  0.3315  2.2320  1.7588
 5115TIP3   OH239539   3.643   3.065  18.499 -0.0378 -0.1097 -0.2521
 5115TIP3    H139540   3.718   3.066  18.439 -0.3905  0.1872 -0.6963
 5115TIP3    H239541   3.681   3.082  18.585  0.1498  2.7585 -0.7972
 5116TIP3   OH239542   6.427   7.416  17.231 -0.4727  0.0843  0.2124
 5116TIP3    H139543   6.368   7.341  17.232  0.2910 -0.5464 -0.9967
 5116TIP3    H239544   6.400   7.468  17.155  1.3271 -0.8969 -1.1618
 5117TIP3   OH239545   2.524   3.674  18.030  0.2908 -0.0651  0.0073
 5117TIP3    H139546   2.613   3.642  18.040  1.1683  2.6594  2.0241
 5117TIP3    H239547   2.490   3.680  18.119 -0.6359  2.0920 -0.4220
 5118TIP3   OH239548   6.200   3.830  16.900 -0.1223  0.5695  0.5087
 5118TIP3    H139549   6.148   3.904  16.868  0.7226 -0.7547 -4.9134
 5118TIP3    H239550   6.285   3.841  16.857  0.9292 -2.1343  1.6896
 5119TIP3   OH239551   4.912   6.208  18.408 -0.1980 -0.0377 -0.0136
 5119TIP3    H139552   4.867   6.292  18.414  1.6123  0.9711  0.1730
 5119TIP3    H239553   4.952   6.208  18.321 -0.5879 -0.9354 -0.2037
 5120TIP3   OH239554   3.699   6.447  17.547  0.0026  0.2745 -0.2712
 5120TIP3    H139555   3.706   6.469  17.454 -0.6727  1.1753 -0.1138
 5120TIP3    H239556   3.691   6.531  17.592  2.0494 -0.0233  0.7822
 5121TIP3   OH239557   7.324   6.227  18.236 -0.5760 -0.4392  0.2745
 5121TIP3    H139558   7.383   6.179  18.294 -0.0617 -0.7372 -0.4766
 5121TIP3    H239559   7.299   6.164  18.168  0.5572  0.4591 -1.0536
 5122TIP3   OH239560   7.655   8.079  18.551  0.2043  0.0575 -0.2222
 5122TIP3    H139561   7.708   8.099  18.629  1.9155 -1.5617 -0.8913
 5122TIP3    H239562   7.645   8.163  18.507  1.6416  0.5334  0.3028
 5123TIP3   OH239563   5.539   3.864  18.549 -0.2384  0.4644  0.3632
 5123TIP3    H139564   5.492   3.869  18.633  1.7210 -0.8353  1.6194
 5123TIP3    H239565   5.586   3.947  18.543  0.3781  0.1833  1.0751
 5124TIP3   OH239566   2.171   1.027  18.350  0.2088 -0.6707 -0.0355
 5124TIP3    H139567   2.219   0.958  18.305 -1.3973 -0.9824 -1.3851
 5124TIP3    H239568   2.085   0.989  18.368  0.0853  0.1957  1.3696
 5125TIP3   OH239569   8.441   2.636  18.963  0.0316  0.2522 -0.2265
 5125TIP3    H139570   8.516   2.587  18.930 -1.3665 -2.2039 -0.0532
 5125TIP3    H239571   8.424   2.599  19.050 -1.5175  0.4884 -0.3877
 5126TIP3   OH239572   2.827   2.607  18.173 -0.1856  0.0949  0.1666
 5126TIP3    H139573   2.912   2.600  18.129  0.4274  1.6846  1.0176
 5126TIP3    H239574   2.771   2.546  18.125  1.2413 -0.4731 -0.8708
 5127TIP3   OH239575   6.120   1.396  17.584 -0.1324 -0.4471  0.7642
 5127TIP3    H139576   6.164   1.311  17.582  0.2549 -0.2492  0.8440
 5127TIP3    H239577   6.140   1.432  17.670 -0.2449 -0.2492  0.7102
 5128TIP3   OH239578   0.782   7.864  17.581  0.4010 -0.5434  0.4995
 5128TIP3    H139579   0.715   7.809  17.541  0.4237 -0.9051  0.9557
 5128TIP3    H239580   0.792   7.938  17.521  0.0824 -0.8327  0.0919
 5129TIP3   OH239581   3.402   5.788  18.225 -0.3324 -0.4762 -0.1645
 5129TIP3    H139582   3.382   5.720  18.160 -0.4804 -0.9859  0.4072
 5129TIP3    H239583   3.388   5.745  18.309  3.4390 -0.9790  0.3414
 5130TIP3   OH239584   4.495   3.386  18.618 -0.3775 -0.2426  0.2389
 5130TIP3    H139585   4.511   3.376  18.524 -3.8249  0.7588 -0.5968
 5130TIP3    H239586   4.506   3.297  18.654 -0.7351 -0.9937 -1.4223
 5131TIP3   OH239587   0.976   1.445  18.082  0.5570  0.6208  0.2062
 5131TIP3    H139588   0.996   1.425  18.173  1.8222  1.0156  0.0298
 5131TIP3    H239589   0.890   1.405  18.067  0.9812 -0.7203  1.1496
 5132TIP3   OH239590   6.681   6.280  19.145  0.5233  0.1670 -0.0145
 5132TIP3    H139591   6.616   6.280  19.074 -0.0004  0.2003  0.4606
 5132TIP3    H239592   6.764   6.263  19.101  0.3958  1.5011 -0.8175
 5133TIP3   OH239593   0.823   7.050  17.458  0.1659  0.2839  0.7570
 5133TIP3    H139594   0.863   6.963  17.446  0.3257  0.6734 -2.2128
 5133TIP3    H239595   0.843   7.072  17.549  1.9098 -1.9107  1.0130
 5134TIP3   OH239596   2.537   0.399  17.852 -0.0349 -0.5501 -0.3492
 5134TIP3    H139597   2.453   0.354  17.861 -0.0759 -0.2553  0.8356
 5134TIP3    H239598   2.602   0.338  17.887  0.1042 -0.3225 -0.2049
 5135TIP3   OH239599   2.602   6.066  18.642  0.4631  0.0750  0.3723
 5135TIP3    H139600   2.558   5.983  18.621 -0.5537  0.2595  1.6443
 5135TIP3    H239601   2.536   6.133  18.624  0.3228  0.3847  1.9221
 5136TIP3   OH239602   4.575   5.467  18.737  0.3625  0.3706  0.1612
 5136TIP3    H139603   4.539   5.416  18.810  0.7763  1.4656  1.1614
 5136TIP3    H239604   4.570   5.558  18.767  0.2248  0.8741 -1.3318
 5137TIP3   OH239605   0.153   4.975  18.522  0.4279 -0.2086 -0.9452
 5137TIP3    H139606   0.246   4.958  18.502 -0.0495 -1.4685 -2.2534
 5137TIP3    H239607   0.152   4.990  18.617  1.9962  0.1293 -0.9370
 5138TIP3   OH239608   0.295   3.741  18.512  0.3005 -0.5391 -0.3238
 5138TIP3    H139609   0.304   3.686  18.433 -0.9948 -0.4281 -0.5672
 5138TIP3    H239610   0.201   3.760  18.517  0.4078 -0.3229  1.1080
 5139TIP3   OH239611   4.804   6.436  17.170  0.6523  0.2366 -0.1405
 5139TIP3    H139612   4.716   6.406  17.195 -0.4202  2.2282 -1.3376
 5139TIP3    H239613   4.814   6.521  17.213  1.4387  0.6531 -1.1089
 5140TIP3   OH239614   2.333   4.142  18.073  0.2750 -0.5363 -0.1534
 5140TIP3    H139615   2.319   4.056  18.032  0.1696 -0.0375 -1.2005
 5140TIP3    H239616   2.409   4.178  18.027  0.7895 -0.3687  0.7982
 5141TIP3   OH239617   0.477   7.362  18.075  0.3626  0.3826 -0.3963
 5141TIP3    H139618   0.405   7.299  18.069  0.6509 -0.2271  1.7016
 5141TIP3    H239619   0.446   7.428  18.138  1.9642 -0.4675  1.3799
 5142TIP3   OH239620   7.305   3.878  17.755 -0.5046 -0.0866  0.4471
 5142TIP3    H139621   7.258   3.945  17.705  0.3572 -0.0658 -0.3701
 5142TIP3    H239622   7.333   3.814  17.689  0.9535  0.1170  0.8317
 5143TIP3   OH239623   3.685   2.975  17.373 -0.2068 -0.2997 -0.2967
 5143TIP3    H139624   3.735   3.037  17.427 -0.2074 -0.4205 -0.1547
 5143TIP3    H239625   3.725   2.980  17.286 -1.8316  1.8290 -1.0012
 5144TIP3   OH239626   7.852   6.743  17.333 -0.0860 -0.0110  0.0321
 5144TIP3    H139627   7.898   6.768  17.413 -0.8483  0.3814  0.3508
 5144TIP3    H239628   7.765   6.781  17.342 -1.2009 -2.4417  0.3684
 5145TIP3   OH239629   4.035   7.200  18.317 -0.1358 -0.0118 -0.3551
 5145TIP3    H139630   4.018   7.291  18.292  0.6919  0.0966 -0.5516
 5145TIP3    H239631   3.959   7.152  18.284 -1.5978  0.8720  1.5312
 5146TIP3   OH239632   4.963   1.215  16.964  0.1425 -0.3248 -0.0359
 5146TIP3    H139633   5.044   1.252  16.930  0.5104 -1.1196 -0.0621
 5146TIP3    H239634   4.894   1.273  16.933  0.5326 -0.6672 -1.6043
 5147TIP3   OH239635   3.704   4.257  16.857  0.0600  0.3726  0.8729
 5147TIP3    H139636   3.624   4.205  16.857 -0.2316  0.8182  0.8557
 5147TIP3    H239637   3.683   4.334  16.804  0.7021  0.1779  0.3217
 5148TIP3   OH239638   0.821   5.258  18.670 -0.6042 -0.3026  0.2429
 5148TIP3    H139639   0.866   5.277  18.752  1.9742 -3.3281 -0.2820
 5148TIP3    H239640   0.748   5.201  18.694  0.6009 -1.8133  0.4542
 5149TIP3   OH239641   5.109   0.967  16.908  0.1049  0.0542 -0.0878
 5149TIP3    H139642   5.044   1.021  16.952  0.6901  0.3058  0.4895
 5149TIP3    H239643   5.082   0.966  16.817  0.9580  2.6634 -0.4486
 5150TIP3   OH239644   1.177   6.497  17.232 -0.2002  0.3142 -0.1412
 5150TIP3    H139645   1.181   6.486  17.327  1.1024 -0.8640 -0.3029
 5150TIP3    H239646   1.116   6.430  17.203 -0.0323  0.1893 -0.2054
 5151TIP3   OH239647   2.987   2.874  18.599  0.3488  0.3218  0.2410
 5151TIP3    H139648   2.915   2.841  18.544  0.3278  0.2708  0.2983
 5151TIP3    H239649   3.037   2.795  18.621 -0.3585  0.1537  1.3351
 5152TIP3   OH239650   6.847   6.790  17.294 -0.1129  0.2088  0.0234
 5152TIP3    H139651   6.882   6.723  17.236 -0.3530 -1.1922  1.4282
 5152TIP3    H239652   6.917   6.854  17.304  0.7145 -0.6698 -0.0817
 5153TIP3   OH239653   5.505   5.251  18.709  0.1087 -0.0602 -0.0727
 5153TIP3    H139654   5.489   5.345  18.699  1.1121  0.0128 -1.1021
 5153TIP3    H239655   5.418   5.215  18.728 -0.1786  1.1494  1.1229
 5154TIP3   OH239656   5.350   0.225  16.716  0.3556 -0.2707 -0.0136
 5154TIP3    H139657   5.287   0.233  16.787  0.6934 -0.2965  0.2908
 5154TIP3    H239658   5.372   0.132  16.714  0.1949 -0.3042 -0.2882
 5155TIP3   OH239659   1.506   0.993  18.406 -0.6173 -0.2295 -0.0110
 5155TIP3    H139660   1.412   1.010  18.403 -0.5021  0.5272  0.4368
 5155TIP3    H239661   1.541   1.038  18.328 -0.7711 -1.5974 -0.9108
 5156TIP3   OH239662   7.477   1.828  18.149 -0.3409 -0.0079  0.5719
 5156TIP3    H139663   7.536   1.807  18.221  1.2707  0.4146 -0.5574
 5156TIP3    H239664   7.402   1.871  18.190 -0.5145 -1.7684  2.1943
 5157TIP3   OH239665   5.130   1.571  18.275  0.7397 -0.1925 -0.5063
 5157TIP3    H139666   5.143   1.508  18.347 -1.5072  0.7712  0.8388
 5157TIP3    H239667   5.087   1.519  18.207  2.4880 -1.0095 -1.0492
 5158TIP3   OH239668   1.343   6.176  18.788  0.0493 -0.6872  0.5270
 5158TIP3    H139669   1.271   6.128  18.747 -0.5930 -0.2848  1.1565
 5158TIP3    H239670   1.382   6.226  18.716 -1.3698  0.3856  0.4568
 5159TIP3   OH239671   7.903   0.289  17.982 -0.3345  0.2573  0.1580
 5159TIP3    H139672   7.924   0.360  17.921 -0.7794  0.1086 -0.1772
 5159TIP3    H239673   7.832   0.240  17.939  0.4269 -0.8026  0.0701
 5160TIP3   OH239674   3.424   7.962  18.243  0.0082  0.1063  0.0181
 5160TIP3    H139675   3.424   7.892  18.308  2.5105 -0.2726 -0.2744
 5160TIP3    H239676   3.455   8.039  18.290 -1.1776  0.6349 -0.0365
 5161TIP3   OH239677   7.436   6.944  16.854 -0.0623 -0.1013  0.4471
 5161TIP3    H139678   7.423   6.859  16.812 -1.3007 -0.4102  1.3909
 5161TIP3    H239679   7.351   6.987  16.848  0.2503  0.6083  0.9775
 5162TIP3   OH239680   5.879   2.230  17.405  0.2321  0.5858 -0.2077
 5162TIP3    H139681   5.854   2.301  17.345  0.8511  0.1022 -1.0539
 5162TIP3    H239682   5.950   2.184  17.360  0.1714 -0.2751  0.5469
 5163TIP3   OH239683   5.490   6.912  18.237 -0.4461  0.3829 -0.5322
 5163TIP3    H139684   5.487   6.841  18.301  0.4398 -0.6523 -1.6070
 5163TIP3    H239685   5.453   6.988  18.284  2.0948  0.2493  1.9303
 5164TIP3   OH239686   3.019   2.063  16.653 -0.4151  0.1470 -0.6927
 5164TIP3    H139687   3.024   2.154  16.623 -0.8590  0.1792 -0.6864
 5164TIP3    H239688   2.960   2.067  16.728  1.6635  0.2661  1.0147
 5165TIP3   OH239689   3.221   5.363  18.382  0.0769 -0.3898 -0.0069
 5165TIP3    H139690   3.285   5.402  18.442  1.1481 -1.4947 -0.3949
 5165TIP3    H239691   3.187   5.287  18.428  0.0588 -0.5890 -0.3436
 5166TIP3   OH239692   6.751   8.091  18.556 -0.2643 -0.2279  0.4394
 5166TIP3    H139693   6.702   8.124  18.632 -2.9227 -0.7961 -0.8952
 5166TIP3    H239694   6.720   8.144  18.483  1.9792  0.0585 -0.3547
 5167TIP3   OH239695   1.329   8.156  17.366 -0.2165 -0.0187 -0.5884
 5167TIP3    H139696   1.321   8.099  17.442 -0.2913 -0.2893 -0.7965
 5167TIP3    H239697   1.417   8.193  17.373 -1.0571  1.8289  0.9241
 5168TIP3   OH239698   2.456   3.871  17.694 -0.7709 -0.2266  0.0811
 5168TIP3    H139699   2.501   3.859  17.610 -0.8321  0.7905 -0.1056
 5168TIP3    H239700   2.412   3.787  17.710  1.6961 -1.5229  0.6015
 5169TIP3   OH239701   0.536   5.181  18.663  0.2493  0.0793  0.5514
 5169TIP3    H139702   0.489   5.189  18.745 -0.8611  0.2918 -0.0821
 5169TIP3    H239703   0.502   5.252  18.608  0.3630 -0.5478 -0.3667
 5170TIP3   OH239704   5.202   3.505  18.104  0.4458 -0.3527 -0.3098
 5170TIP3    H139705   5.177   3.415  18.083  0.4889 -0.5718  0.5440
 5170TIP3    H239706   5.288   3.517  18.063  0.4863 -0.7344 -0.3341
 5171TIP3   OH239707   5.062   8.420  17.462 -0.4662  0.6293  0.0714
 5171TIP3    H139708   5.097   8.473  17.390  0.9442  1.7255  1.4971
 5171TIP3    H239709   5.117   8.342  17.463 -1.5503 -0.1823 -1.0483
 5172TIP3   OH239710   3.420   0.436  16.915 -0.7147 -0.3538  0.7760
 5172TIP3    H139711   3.368   0.491  16.857  0.0591 -0.9483 -0.5196
 5172TIP3    H239712   3.415   0.349  16.877  0.6957 -0.5545  0.9785
 5173TIP3   OH239713   2.734   6.652  16.393  0.1936  0.2140 -0.6198
 5173TIP3    H139714   2.728   6.653  16.488 -0.5205 -0.8523 -0.6337
 5173TIP3    H239715   2.655   6.696  16.363 -1.3813 -2.4351 -0.7043
 5174TIP3   OH239716   7.165   8.369  16.646 -0.1026  0.3702 -0.1991
 5174TIP3    H139717   7.235   8.336  16.589  0.9579  1.1612  0.6040
 5174TIP3    H239718   7.099   8.300  16.645  1.2906 -1.0344  0.0888
 5175TIP3   OH239719   4.527   2.821  16.308 -0.2120 -0.2734 -0.2815
 5175TIP3    H139720   4.598   2.884  16.295  0.2147 -1.0423 -1.8448
 5175TIP3    H239721   4.450   2.876  16.327  0.2275  0.7093 -1.2350
 5176TIP3   OH239722   4.990   1.928  16.759 -0.2511 -0.0697 -0.6704
 5176TIP3    H139723   5.060   1.993  16.753  0.2286 -0.5421 -0.2503
 5176TIP3    H239724   5.016   1.870  16.830 -1.8499  0.6736  0.5874
 5177TIP3   OH239725   2.872   8.421  18.240  0.2240  0.6766  0.8253
 5177TIP3    H139726   2.909   8.337  18.267 -0.5785 -0.5136 -1.4930
 5177TIP3    H239727   2.802   8.437  18.303  0.6553 -0.1764  1.5457
 5178TIP3   OH239728   6.025   5.542  18.153  0.6438 -0.3825  0.0054
 5178TIP3    H139729   6.108   5.589  18.164  0.9432 -0.6078 -1.1296
 5178TIP3    H239730   6.051   5.452  18.132  0.0904 -0.6839  0.5803
 5179TIP3   OH239731   1.616   6.088  16.958 -0.1774  0.1168  0.6758
 5179TIP3    H139732   1.559   6.121  16.888  0.9099 -0.9964 -0.8140
 5179TIP3    H239733   1.607   5.993  16.954  2.6942 -0.2323 -0.5742
 5180TIP3   OH239734   3.690   8.209  18.148 -0.3440  0.0499 -0.4187
 5180TIP3    H139735   3.710   8.301  18.168 -0.5806  0.1166 -0.4818
 5180TIP3    H239736   3.624   8.185  18.213  1.1624 -0.6899  0.9040
 5181TIP3   OH239737   1.650   2.022  17.660 -0.1812 -0.3242 -0.0064
 5181TIP3    H139738   1.712   2.057  17.596  1.1234  2.1529  2.4536
 5181TIP3    H239739   1.564   2.051  17.629  0.4657  1.2078 -0.4341
 5182TIP3   OH239740   4.158   6.908  18.611  0.1422  0.0342  0.0720
 5182TIP3    H139741   4.130   6.871  18.695  0.3147 -0.3452 -0.0353
 5182TIP3    H239742   4.078   6.946  18.574 -0.0389 -0.2373  0.1818
 5183TIP3   OH239743   2.441   0.039  18.600  0.4870 -0.4482  0.3723
 5183TIP3    H139744   2.411  -0.051  18.609 -0.9058 -0.1905 -1.1966
 5183TIP3    H239745   2.363   0.092  18.611  0.5113  0.3270 -2.3360
 5184TIP3   OH239746   5.581   5.998  18.089 -0.3775 -0.4349  0.0402
 5184TIP3    H139747   5.595   6.086  18.123  0.5504 -0.9263  0.9799
 5184TIP3    H239748   5.669   5.965  18.069 -0.7792 -0.7886 -1.2868
 5185TIP3   OH239749   0.606   4.796  18.343 -0.2212  0.0930 -0.0432
 5185TIP3    H139750   0.550   4.858  18.390 -0.2833  1.0020 -1.2589
 5185TIP3    H239751   0.693   4.836  18.345 -0.4683  0.8318 -1.7784
 5186TIP3   OH239752   5.570   1.166  18.700 -0.6194  0.6609 -0.0317
 5186TIP3    H139753   5.491   1.198  18.658 -0.6627 -0.2778 -0.6829
 5186TIP3    H239754   5.616   1.246  18.727 -2.6360  1.2307  2.0606
 5187TIP3   OH239755   8.115   3.549  17.055 -0.3027  0.0339  0.4599
 5187TIP3    H139756   8.205   3.522  17.039  0.1111  1.0768  0.9939
 5187TIP3    H239757   8.100   3.622  16.995 -1.4687 -1.3728 -1.0716
 5188TIP3   OH239758   0.219   3.879  18.199  1.0941  0.3225 -0.7415
 5188TIP3    H139759   0.286   3.815  18.222  0.1837 -0.8953 -1.3776
 5188TIP3    H239760   0.164   3.885  18.277  1.4623  0.7189 -0.5066
 5189TIP3   OH239761   5.747   7.989  17.071 -0.0486  0.2383  0.3227
 5189TIP3    H139762   5.790   7.904  17.083 -1.0836 -0.7702 -2.2061
 5189TIP3    H239763   5.667   7.983  17.123  1.0456  0.6893  2.1234
 5190TIP3   OH239764   1.091   3.437  18.827 -0.1443  0.3453  0.7873
 5190TIP3    H139765   1.049   3.405  18.907  2.0379  0.4165  2.0516
 5190TIP3    H239766   1.139   3.362  18.793 -1.3589  0.2139 -0.7264
 5191TIP3   OH239767   7.708   2.423  18.622 -0.3066  0.1950  0.4702
 5191TIP3    H139768   7.771   2.474  18.673 -0.2729  0.8772 -0.2375
 5191TIP3    H239769   7.632   2.480  18.614 -0.5832 -0.1846  0.3589
 5192TIP3   OH239770   0.635   7.235  17.388  0.2853  0.0223 -0.5062
 5192TIP3    H139771   0.550   7.197  17.367 -1.6824  2.5693  2.0643
 5192TIP3    H239772   0.688   7.162  17.418 -0.8053 -1.6794 -2.4466
 5193TIP3   OH239773   6.519   2.646  18.947 -0.8226 -0.3320 -0.5271
 5193TIP3    H139774   6.454   2.604  18.890 -1.0131  0.2830 -0.7738
 5193TIP3    H239775   6.486   2.734  18.960 -1.2128 -0.7003  1.2383
 5194TIP3   OH239776   1.369   3.762  18.361 -0.1355 -0.0843  0.2564
 5194TIP3    H139777   1.284   3.735  18.397  0.0339 -0.1330  0.6308
 5194TIP3    H239778   1.379   3.853  18.388  0.7819 -0.6213  1.8909
 5195TIP3   OH239779   3.023   3.697  18.645 -0.1928 -0.0771 -0.1593
 5195TIP3    H139780   2.984   3.610  18.649 -0.0580 -0.1172  0.3444
 5195TIP3    H239781   3.109   3.683  18.604 -0.6734  0.0059 -1.2326
 5196TIP3   OH239782   7.503   5.562  16.886  0.6348 -0.3074 -0.2688
 5196TIP3    H139783   7.576   5.614  16.852  0.8425 -0.6688 -0.3826
 5196TIP3    H239784   7.535   5.472  16.883  0.6567 -0.3464  0.8849
 5197TIP3   OH239785   1.750   7.621  17.111  0.3041  0.3061 -0.2198
 5197TIP3    H139786   1.839   7.613  17.077  0.1596  1.0773 -0.8095
 5197TIP3    H239787   1.700   7.555  17.062  0.0331  1.6070 -1.7876
 5198TIP3   OH239788   4.192   0.943  17.238 -0.8737  0.0183 -0.4285
 5198TIP3    H139789   4.217   0.972  17.326 -0.4401 -1.7870  0.0823
 5198TIP3    H239790   4.097   0.935  17.242 -0.8879  0.2621 -0.2282
 5199TIP3   OH239791   7.995   5.595  17.168  0.3199 -0.0444 -0.0735
 5199TIP3    H139792   8.050   5.673  17.176 -1.1949  1.0771 -0.1510
 5199TIP3    H239793   7.922   5.623  17.111 -1.2881 -0.8980  1.4659
 5200TIP3   OH239794   0.975   6.693  18.503 -0.5476  0.2119 -0.5735
 5200TIP3    H139795   0.892   6.720  18.465 -1.1814 -0.3005  0.3945
 5200TIP3    H239796   1.008   6.770  18.549  0.9592  1.3076 -3.2693
 5201TIP3   OH239797   7.124   3.238  18.948 -0.2901 -0.3595 -0.3643
 5201TIP3    H139798   7.094   3.326  18.970 -0.2677 -0.7228  1.2143
 5201TIP3    H239799   7.113   3.232  18.853 -0.0038  1.4358 -0.5376
 5202TIP3   OH239800   0.715   7.302  18.661 -0.2258 -0.2319 -0.5573
 5202TIP3    H139801   0.705   7.317  18.567  0.1692 -1.4880 -0.8280
 5202TIP3    H239802   0.744   7.386  18.696 -1.3900  0.5549 -1.3787
 5203TIP3   OH239803   8.002   2.344  18.086 -0.0740  0.4821  0.3891
 5203TIP3    H139804   8.081   2.356  18.034 -1.1579 -0.6539 -1.6435
 5203TIP3    H239805   7.992   2.249  18.093 -2.3571  0.5106 -1.2866
 5204TIP3   OH239806   3.045   6.206  16.479  0.5175  0.2898  0.0241
 5204TIP3    H139807   3.037   6.285  16.426 -0.2676 -0.1865 -0.5756
 5204TIP3    H239808   3.084   6.237  16.561  0.0592  1.3297 -0.1287
 5205TIP3   OH239809   7.592   4.334  18.522  0.0011 -0.1517 -0.4384
 5205TIP3    H139810   7.513   4.349  18.574 -1.2671 -0.8617 -2.0969
 5205TIP3    H239811   7.656   4.304  18.586 -1.5388 -1.1348  0.7187
 5206TIP3   OH239812   6.392   6.596  17.617 -0.6381  0.4484  0.3473
 5206TIP3    H139813   6.484   6.622  17.628 -0.5467  0.9675 -1.3197
 5206TIP3    H239814   6.344   6.679  17.621 -0.9375  0.2733  0.3590
 5207TIP3   OH239815   6.752   4.200  18.582 -0.1946 -0.5920 -0.0223
 5207TIP3    H139816   6.760   4.183  18.488 -0.7373  0.5227 -0.2826
 5207TIP3    H239817   6.701   4.280  18.588  2.6068  1.2486  1.1553
 5208TIP3   OH239818   0.634   3.959  17.718  0.5100  0.0553 -0.3243
 5208TIP3    H139819   0.553   3.921  17.685  0.9287 -0.7364 -0.4621
 5208TIP3    H239820   0.644   4.041  17.669 -0.2583  0.2172 -0.2221
 5209TIP3   OH239821   0.637   0.912  18.019 -0.3228  0.0516  0.1686
 5209TIP3    H139822   0.701   0.949  17.958  0.6105 -0.5980  0.7355
 5209TIP3    H239823   0.589   0.848  17.966  0.1911 -0.1966 -0.0078
 5210TIP3   OH239824   1.960   7.214  18.541 -0.6886  0.3947  0.5214
 5210TIP3    H139825   2.043   7.254  18.513 -0.7339  0.2134  0.1265
 5210TIP3    H239826   1.958   7.130  18.496 -1.2330  0.5295  0.2945
 5211TIP3   OH239827   7.482   5.462  17.413 -0.1331  0.4129 -0.3029
 5211TIP3    H139828   7.409   5.437  17.356 -0.1776  0.4882 -0.2788
 5211TIP3    H239829   7.465   5.416  17.495  0.1945 -0.0930 -0.5139
 5212TIP3   OH239830   7.773   5.656  18.299  0.2996  0.5271  0.3559
 5212TIP3    H139831   7.863   5.662  18.268  0.3336  1.2063  0.5734
 5212TIP3    H239832   7.720   5.654  18.219  0.4034  2.0148  0.2192
 5213TIP3   OH239833   6.915   4.661  18.927  0.1411 -0.5467 -0.0273
 5213TIP3    H139834   6.932   4.645  18.834  1.0956 -1.5374  0.3017
 5213TIP3    H239835   6.824   4.636  18.939 -0.1310  0.0281 -0.7812
 5214TIP3   OH239836   0.927   3.284  16.884 -0.3369  0.3127 -0.2299
 5214TIP3    H139837   0.881   3.368  16.888  1.2317  1.2534 -1.0743
 5214TIP3    H239838   1.018   3.305  16.905  0.2013 -1.0690 -1.0611
 5215TIP3   OH239839   7.381   4.382  17.138 -0.0511  0.1546 -0.0677
 5215TIP3    H139840   7.306   4.344  17.092 -0.3622  0.8414 -0.1357
 5215TIP3    H239841   7.457   4.359  17.084 -0.3332  0.3545 -0.5550
 5216TIP3   OH239842   5.418   1.888  17.686  0.7188 -0.1103 -0.3231
 5216TIP3    H139843   5.328   1.922  17.694  0.7542 -0.0706 -0.0850
 5216TIP3    H239844   5.406   1.794  17.673  0.6245 -0.0277 -0.8396
 5217TIP3   OH239845   2.159   2.714  16.960 -0.2264 -0.0156  0.4443
 5217TIP3    H139846   2.093   2.658  17.002 -0.8398  1.2583  1.2664
 5217TIP3    H239847   2.242   2.679  16.990 -0.5031 -1.4841 -0.3852
 5218TIP3   OH239848   5.617   8.056  18.657  0.2380 -0.0268 -0.1729
 5218TIP3    H139849   5.642   8.003  18.581 -1.2143 -0.8139 -0.1398
 5218TIP3    H239850   5.700   8.088  18.692  0.9085  1.1034 -2.5848
 5219TIP3   OH239851   6.140   7.682  17.563  0.1641  0.2808  0.2474
 5219TIP3    H139852   6.109   7.770  17.586 -0.5667  0.8165 -2.4179
 5219TIP3    H239853   6.143   7.682  17.467 -0.2538 -2.7337  0.1328
 5220TIP3   OH239854   2.880   2.082  18.355 -0.0290 -0.4603 -0.2399
 5220TIP3    H139855   2.807   2.077  18.294 -0.6556  1.5814  0.2892
 5220TIP3    H239856   2.852   2.143  18.422  1.3602 -1.2664  1.1417
 5221TIP3   OH239857   7.835   6.299  16.854  0.0386  0.5409  0.2746
 5221TIP3    H139858   7.920   6.262  16.877  0.7762  1.7357 -0.4451
 5221TIP3    H239859   7.845   6.393  16.868 -1.4248  0.6262  0.9355
 5222TIP3   OH239860   2.771   0.542  18.084 -0.4088  0.0932 -0.3548
 5222TIP3    H139861   2.747   0.534  17.992  1.8950 -1.7454 -0.8947
 5222TIP3    H239862   2.746   0.458  18.123  2.8381 -1.0860 -0.4958
 5223TIP3   OH239863   7.370   5.883  17.875  0.4535 -0.1248  0.0141
 5223TIP3    H139864   7.384   5.796  17.913  0.6991  0.3529  1.0499
 5223TIP3    H239865   7.454   5.906  17.836  0.6366 -0.0110  0.4686
 5224TIP3   OH239866   0.699   6.224  18.703  0.4604 -0.0974  0.1345
 5224TIP3    H139867   0.716   6.231  18.609 -1.1972 -2.0308 -0.3837
 5224TIP3    H239868   0.779   6.186  18.740  1.1026  0.6380 -0.4803
 5225TIP3   OH239869   3.668   1.318  18.756 -0.0921 -0.2869  0.0534
 5225TIP3    H139870   3.677   1.412  18.743 -0.2240 -0.5100 -1.9949
 5225TIP3    H239871   3.735   1.296  18.820  0.7586  1.0159 -0.3531
 5226TIP3   OH239872   1.511   6.216  17.211 -0.3014 -0.3194  0.2735
 5226TIP3    H139873   1.434   6.172  17.247 -1.2744  0.1921 -1.1072
 5226TIP3    H239874   1.539   6.161  17.138  0.0133  0.0321  0.1233
 5227TIP3   OH239875   6.912   3.653  16.590  0.8416  0.2851  0.2071
 5227TIP3    H139876   6.897   3.651  16.495  1.4067  0.8507  0.0975
 5227TIP3    H239877   6.896   3.563  16.619  2.6319 -0.3894 -0.7384
 5228TIP3   OH239878   6.994   0.304  18.115 -0.3167  0.0271  0.0517
 5228TIP3    H139879   7.009   0.398  18.103  0.7794  0.0359  1.2200
 5228TIP3    H239880   6.925   0.299  18.181 -1.4145 -0.0233 -1.0508
 5229TIP3   OH239881   7.807   5.452  17.873  0.2675 -0.1256  0.0024
 5229TIP3    H139882   7.713   5.444  17.888  0.3913 -0.9082  0.3931
 5229TIP3    H239883   7.814   5.482  17.782 -0.3716  0.5262  0.1573
 5230TIP3   OH239884   2.392   2.396  18.659 -0.1920  0.1899 -0.8567
 5230TIP3    H139885   2.403   2.345  18.740 -1.0079  0.9761 -0.2258
 5230TIP3    H239886   2.301   2.424  18.661 -0.3621 -0.1991 -2.3231
 5231TIP3   OH239887   7.751   1.792  19.099  0.3323 -0.0677 -0.9338
 5231TIP3    H139888   7.834   1.756  19.065  0.8810 -1.0240  1.2314
 5231TIP3    H239889   7.778   1.848  19.172 -0.9420 -1.3326  0.5792
 5232TIP3   OH239890   3.720   4.208  18.778 -0.1576 -0.2314 -0.3773
 5232TIP3    H139891   3.659   4.263  18.827  1.0627  1.3540 -0.5799
 5232TIP3    H239892   3.735   4.255  18.696 -1.7428 -2.5656 -2.1560
 5233TIP3   OH239893   5.142   6.261  16.776 -0.8296 -0.0564 -0.1378
 5233TIP3    H139894   5.082   6.186  16.773  0.3543 -1.0767  0.7366
 5233TIP3    H239895   5.111   6.314  16.850 -0.2503 -0.9579  0.7710
 5234TIP3   OH239896   1.911   1.885  17.657  0.1513 -0.0967  0.0269
 5234TIP3    H139897   1.859   1.805  17.659  1.6129 -1.1152 -0.4606
 5234TIP3    H239898   1.867   1.945  17.717  0.4619 -2.2131  2.5550
 5235TIP3   OH239899   8.007   7.333  16.751 -0.3549 -0.0493 -0.0624
 5235TIP3    H139900   7.939   7.300  16.692  0.1923  1.3262 -1.5508
 5235TIP3    H239901   7.965   7.334  16.837 -1.4406 -1.3940 -0.5342
 5236TIP3   OH239902   5.797   3.466  16.781  0.1196  0.0236  0.1919
 5236TIP3    H139903   5.788   3.538  16.843  1.9531 -0.0637  0.6105
 5236TIP3    H239904   5.876   3.419  16.810  0.1486 -0.9214 -1.3141
 5237TIP3   OH239905   2.039   3.605  18.008 -0.6575 -0.0524 -0.4082
 5237TIP3    H139906   2.090   3.651  18.074 -1.5001  0.2203  0.0777
 5237TIP3    H239907   2.022   3.671  17.941 -2.2381  0.5310  0.4958
 5238TIP3   OH239908   0.983   7.042  18.225 -0.1280  0.6850  0.0382
 5238TIP3    H139909   0.975   7.115  18.163 -0.4218  0.4940 -0.1547
 5238TIP3    H239910   1.067   7.002  18.205 -1.3327 -1.0255 -2.0892
 5239TIP3   OH239911   1.283   6.091  17.816  0.2804 -0.0544 -0.2657
 5239TIP3    H139912   1.323   6.016  17.772  0.6287 -0.7580  1.1843
 5239TIP3    H239913   1.283   6.161  17.750  3.2963 -0.2010 -0.5545
 5240TIP3   OH239914   6.277   5.358  16.863  0.0104  1.0683  0.2840
 5240TIP3    H139915   6.209   5.305  16.822  0.8289 -0.8197  1.2085
 5240TIP3    H239916   6.241   5.382  16.948  0.3230  0.3824  0.6225
 5241TIP3   OH239917   5.967   3.098  17.982 -0.2227 -1.2190  0.9109
 5241TIP3    H139918   5.872   3.096  17.997 -0.5975  0.8815 -0.6869
 5241TIP3    H239919   6.002   3.147  18.056 -0.6703 -0.2650  0.5083
 5242TIP3   OH239920   0.358   5.753  17.538  0.2214  0.3866  0.8243
 5242TIP3    H139921   0.446   5.772  17.505  0.0884  0.7635  0.6848
 5242TIP3    H239922   0.369   5.672  17.589  0.4635 -0.0726  0.0508
 5243TIP3   OH239923   1.207   4.582  18.292 -0.0095  0.1591 -0.5471
 5243TIP3    H139924   1.207   4.675  18.316 -0.4090  0.3156 -1.1458
 5243TIP3    H239925   1.127   4.548  18.332 -1.4130  0.7144 -2.6997
 5244TIP3   OH239926   3.694   1.100  17.781  0.1755  0.1547 -0.8205
 5244TIP3    H139927   3.611   1.066  17.749 -0.4962  1.7738 -0.9201
 5244TIP3    H239928   3.752   1.024  17.784 -1.7587 -1.3673  0.8479
 5245TIP3   OH239929   1.487   4.060  18.993  0.2003 -0.1398  0.5615
 5245TIP3    H139930   1.461   4.019  19.075 -0.0620 -1.3866 -0.1232
 5245TIP3    H239931   1.416   4.121  18.973 -0.6364 -1.1507  0.3604
 5246TIP3   OH239932   6.994   7.254  18.991 -0.3265 -0.0559 -0.1006
 5246TIP3    H139933   6.977   7.326  18.930 -1.1014 -0.0841  0.0795
 5246TIP3    H239934   7.024   7.299  19.071  0.9345 -0.0321 -0.5614
 5247TIP3   OH239935   2.382   6.691  17.908 -0.4412  0.5476 -0.1302
 5247TIP3    H139936   2.361   6.748  17.982 -0.7792  0.1825  0.0643
 5247TIP3    H239937   2.356   6.604  17.938 -1.1422  0.4790 -0.9023
 5248TIP3   OH239938   0.432   5.501  17.662 -0.2318 -0.1087  0.1338
 5248TIP3    H139939   0.452   5.423  17.714 -1.1496 -0.4981 -0.0607
 5248TIP3    H239940   0.439   5.471  17.571 -2.4687 -0.5378  0.0349
 5249TIP3   OH239941   5.784   4.157  19.108  0.0462  0.2101 -0.2860
 5249TIP3    H139942   5.851   4.203  19.158 -0.1216 -0.8473  0.9503
 5249TIP3    H239943   5.701   4.187  19.146 -0.0590 -1.4404  0.9030
 5250TIP3   OH239944   7.826   5.114  17.836  0.0052  0.2542  0.0314
 5250TIP3    H139945   7.913   5.096  17.801 -0.0773 -1.0160  0.4493
 5250TIP3    H239946   7.776   5.144  17.760  0.3967 -0.4672 -0.5215
 5251TIP3   OH239947   8.242   5.915  16.393 -0.1008 -0.4787 -0.0269
 5251TIP3    H139948   8.197   5.993  16.427  1.0632  0.4218 -0.4658
 5251TIP3    H239949   8.196   5.895  16.312 -1.0520 -0.8735  0.6015
 5252TIP3   OH239950   0.566   4.779  17.399 -0.0459 -0.6916 -0.1988
 5252TIP3    H139951   0.517   4.859  17.415 -1.2791 -1.1960 -1.2191
 5252TIP3    H239952   0.587   4.745  17.486 -1.4420 -0.3977  0.2741
 5253TIP3   OH239953   1.888   7.144  17.718  0.4077  0.1552 -0.2169
 5253TIP3    H139954   1.875   7.190  17.635  0.6589 -1.8701 -1.4450
 5253TIP3    H239955   1.818   7.177  17.774 -0.8575  0.3162 -1.7977
 5254TIP3   OH239956   6.194   2.331  18.153  0.4214  0.3457 -0.5206
 5254TIP3    H139957   6.164   2.327  18.062  1.7140 -2.1437 -0.9406
 5254TIP3    H239958   6.141   2.266  18.199  0.9082  0.3679  0.0989
 5255TIP3   OH239959   7.127   7.838  18.305  0.0371  0.2578 -0.1734
 5255TIP3    H139960   7.036   7.814  18.291  0.6597 -1.8183 -0.9899
 5255TIP3    H239961   7.173   7.806  18.227  1.6830 -0.0881  0.8823
 5256TIP3   OH239962   3.427   2.820  18.506  0.1349  0.5800  0.0459
 5256TIP3    H139963   3.417   2.817  18.601 -2.0715 -0.4452 -0.1610
 5256TIP3    H239964   3.370   2.891  18.478 -0.2947  0.0002 -0.5936
 5257TIP3   OH239965   1.830   7.128  17.408  0.1254  0.0519 -0.2870
 5257TIP3    H139966   1.817   7.126  17.313  0.6745  0.4387 -0.3768
 5257TIP3    H239967   1.744   7.105  17.444 -0.0344 -0.3072 -0.8776
 5258TIP3   OH239968   0.350   4.418  18.167  0.4070  0.1119 -0.4025
 5258TIP3    H139969   0.410   4.407  18.240 -0.1565 -0.2925  0.0070
 5258TIP3    H239970   0.280   4.473  18.202 -0.9212 -1.7585  0.0134
 5259TIP3   OH239971   7.881   1.436  18.856  0.5526 -0.0035  0.3227
 5259TIP3    H139972   7.911   1.490  18.929 -0.0876  0.5270  0.2150
 5259TIP3    H239973   7.845   1.500  18.793  1.8679 -0.3651 -0.8436
 5260TIP3   OH239974   4.520   4.387  18.874 -0.2460  0.6129  0.2069
 5260TIP3    H139975   4.506   4.447  18.947  0.3189 -0.8154  1.5512
 5260TIP3    H239976   4.608   4.352  18.888 -0.3690 -0.1539 -0.8097
 5261TIP3   OH239977   2.317   4.102  17.771  0.2258 -0.2900  0.2814
 5261TIP3    H139978   2.361   4.030  17.726  1.1894  0.5749 -0.2022
 5261TIP3    H239979   2.382   4.134  17.834 -0.2022  0.1443  0.5084
 5262TIP3   OH239980   8.286   7.330  16.691  0.4079 -0.4052 -0.0472
 5262TIP3    H139981   8.299   7.238  16.665 -0.9719 -1.3112  2.1541
 5262TIP3    H239982   8.191   7.338  16.703  0.5535  1.1968  0.2414
 5263TIP3   OH239983   7.078   0.554  17.801  0.5357  0.0942  0.3049
 5263TIP3    H139984   7.077   0.594  17.889  0.8993 -0.6967  0.6766
 5263TIP3    H239985   7.068   0.628  17.742 -1.0220  0.5249  1.0507
 5264TIP3   OH239986   0.955   0.772  17.314 -0.5088  0.4143 -0.2446
 5264TIP3    H139987   0.984   0.804  17.228 -0.7593 -1.3370 -1.0280
 5264TIP3    H239988   1.032   0.727  17.349  0.0640  2.3329  1.1581
 5265TIP3   OH239989   1.551   3.201  17.110 -0.0670  0.2229  0.1668
 5265TIP3    H139990   1.564   3.285  17.068  2.2230  0.1220  0.5710
 5265TIP3    H239991   1.464   3.208  17.151 -1.0991  1.3608 -2.0258
 5266TIP3   OH239992   7.144   6.379  17.601  0.7927 -0.0083  0.1454
 5266TIP3    H139993   7.098   6.366  17.518 -1.1427  1.2599  0.9396
 5266TIP3    H239994   7.119   6.468  17.628  0.5701 -0.7205  2.5247
 5267TIP3   OH239995   0.615   2.159  18.334 -0.0960  0.3793 -0.5577
 5267TIP3    H139996   0.547   2.092  18.333  1.1560 -1.0990  1.8973
 5267TIP3    H239997   0.574   2.234  18.375 -0.0660 -0.8429  1.8689
 5268TIP3   OH239998   0.988   2.211  17.506  0.1262 -0.3961 -0.4429
 5268TIP3    H139999   1.068   2.200  17.456  1.1973 -2.0590  1.4669
 5268TIP3    H240000   1.011   2.183  17.595 -2.6343 -1.3030  0.1049
 5269TIP3   OH240001   1.914   6.122  16.869 -0.0617  0.2622  0.2626
 5269TIP3    H140002   1.969   6.138  16.792  0.1052 -0.3483  0.2467
 5269TIP3    H240003   1.828   6.155  16.844 -0.2050 -0.6291 -0.4987
 5270TIP3   OH240004   8.374   1.048  16.988  0.1348 -0.0925  0.0220
 5270TIP3    H140005   8.382   1.129  17.038  3.5573 -0.4110  0.2755
 5270TIP3    H240006   8.406   0.980  17.048 -0.8104 -1.3417 -0.8360
 5271TIP3   OH240007   5.496   0.665  17.388  0.0532  0.0063  0.2240
 5271TIP3    H140008   5.495   0.647  17.294  0.5083  1.0746  0.0028
 5271TIP3    H240009   5.414   0.628  17.421  1.1132 -2.8721 -0.0915
 5272TIP3   OH240010   1.846   6.577  18.676  0.2493  0.0500  0.0438
 5272TIP3    H140011   1.823   6.512  18.609 -2.0014 -0.1134  0.9004
 5272TIP3    H240012   1.867   6.524  18.753  2.5070  0.2527 -0.3575
 5273TIP3   OH240013   6.904   1.294  18.819  0.2852  0.6113  0.2395
 5273TIP3    H140014   6.822   1.249  18.800  0.4797  0.0359  0.7321
 5273TIP3    H240015   6.877   1.381  18.847 -0.3247 -0.2308  2.4880
 5274TIP3   OH240016   5.301   8.289  17.623 -0.1286 -0.3338  0.1276
 5274TIP3    H140017   5.294   8.243  17.539 -1.6669 -0.0647  0.0836
 5274TIP3    H240018   5.306   8.382  17.600 -0.2331 -0.2806  0.3090
 5275TIP3   OH240019   7.429   1.525  16.914  0.3479 -0.1819 -0.2047
 5275TIP3    H140020   7.435   1.602  16.969  1.1277 -0.8814  0.7215
 5275TIP3    H240021   7.493   1.464  16.950  0.1878 -1.0321 -1.2927
 5276TIP3   OH240022   0.785   5.831  17.871  0.1373 -0.6446 -0.1115
 5276TIP3    H140023   0.711   5.788  17.828  0.5429 -0.4147 -1.0622
 5276TIP3    H240024   0.744   5.891  17.934 -0.5139 -0.0988 -1.0307
 5277TIP3   OH240025   2.410   5.209  17.188 -0.3499 -0.0171 -0.8163
 5277TIP3    H140026   2.483   5.164  17.231 -0.3482  0.6018 -0.1564
 5277TIP3    H240027   2.392   5.284  17.244 -2.2276 -0.7633 -0.3752
 5278TIP3   OH240028   6.111   7.135  16.341 -0.2469 -0.0219  0.5882
 5278TIP3    H140029   6.173   7.155  16.412  1.6608  0.6430 -1.1568
 5278TIP3    H240030   6.165   7.092  16.274 -2.0889 -1.0780 -0.2830
 5279TIP3   OH240031   1.845   7.580  18.681  0.2700  0.1399  0.5785
 5279TIP3    H140032   1.851   7.557  18.588  0.7904  0.5544  0.5024
 5279TIP3    H240033   1.900   7.515  18.725  1.8330  1.2434  0.3534
 5280TIP3   OH240034   5.500   3.902  18.814 -0.2046  0.0697 -0.2930
 5280TIP3    H140035   5.565   3.883  18.882 -0.6357  0.3268  0.1974
 5280TIP3    H240036   5.474   3.817  18.780  0.0830 -0.0547 -0.2049
 5281TIP3   OH240037   6.423   8.054  16.965 -0.2627  0.4510  0.0508
 5281TIP3    H140038   6.401   8.037  16.873 -0.5715  1.1297 -0.0085
 5281TIP3    H240039   6.513   8.087  16.962 -0.4550  0.9712 -0.0656
 5282TIP3   OH240040   5.725   8.017  17.736 -0.5645 -0.3687  0.2138
 5282TIP3    H140041   5.639   8.046  17.764 -1.1794 -2.3010  0.5065
 5282TIP3    H240042   5.772   7.998  17.817 -0.1307 -0.0703  0.0405
 5283TIP3   OH240043   0.248   2.587  19.358 -0.1753 -0.5468 -0.2389
 5283TIP3    H140044   0.329   2.555  19.398  0.6607 -0.0758 -1.4632
 5283TIP3    H240045   0.269   2.676  19.330 -1.5372  0.0444  0.5372
 5284TIP3   OH240046   0.299   5.852  19.085  0.1389  0.0137 -0.5124
 5284TIP3    H140047   0.318   5.946  19.089  1.3421 -0.2249 -0.2357
 5284TIP3    H240048   0.204   5.846  19.091  0.1048  1.1776  0.2415
 5285TIP3   OH240049   3.519   7.726  17.526 -0.4125  0.6427  0.6382
 5285TIP3    H140050   3.544   7.658  17.588  0.6546  1.0707  0.6968
 5285TIP3    H240051   3.465   7.681  17.461 -0.3971 -0.0882  1.1312
 5286TIP3   OH240052   2.087   5.542  16.971  0.1511 -0.4125 -0.2040
 5286TIP3    H140053   2.108   5.499  17.054 -0.4541  0.8256  0.6307
 5286TIP3    H240054   2.051   5.473  16.916  2.2135 -1.6433 -0.1050
 5287TIP3   OH240055   5.846   7.046  17.878 -0.4296 -0.4639 -0.5140
 5287TIP3    H140056   5.934   7.017  17.855  0.0670  0.7469 -0.1703
 5287TIP3    H240057   5.830   7.006  17.964 -0.1645 -0.5615 -0.5094
 5288TIP3   OH240058   3.248   3.856  18.095  0.3965  0.5080  0.2994
 5288TIP3    H140059   3.225   3.765  18.115  2.5177  0.0366  0.8688
 5288TIP3    H240060   3.164   3.901  18.088 -0.7160 -1.4807  0.0242
 5289TIP3   OH240061   7.590   6.844  17.324 -0.4321  0.3175  0.2751
 5289TIP3    H140062   7.570   6.932  17.357  0.2238  1.1587 -1.4086
 5289TIP3    H240063   7.588   6.854  17.229 -0.5169 -1.5558  0.0528
 5290TIP3   OH240064   7.192   3.237  18.135  0.0190 -0.0145 -0.0578
 5290TIP3    H140065   7.202   3.315  18.081 -0.4697  0.6645  0.8177
 5290TIP3    H240066   7.141   3.177  18.080  2.0395 -0.5256 -1.5043
 5291TIP3   OH240067   3.485   7.156  16.947  0.3382 -0.9298 -0.8933
 5291TIP3    H140068   3.474   7.065  16.973 -1.4093 -0.1017  1.5959
 5291TIP3    H240069   3.402   7.198  16.969  1.2065  1.3525 -1.6628
 5292TIP3   OH240070   5.215   7.575  18.015 -0.2039  0.9349 -0.0888
 5292TIP3    H140071   5.243   7.650  17.963 -1.1091  0.0381 -1.9375
 5292TIP3    H240072   5.293   7.519  18.020  0.0662  1.3200  0.0905
 5293TIP3   OH240073   8.411   5.221  17.473  0.4927  0.5662  0.3055
 5293TIP3    H140074   8.372   5.229  17.386 -2.1247  0.3092  1.3694
 5293TIP3    H240075   8.387   5.302  17.518  3.4841  1.5875  0.2632
 5294TIP3   OH240076   7.130   1.242  17.655 -0.1108 -0.3240 -0.0891
 5294TIP3    H140077   7.222   1.267  17.643 -0.1866  1.7086  2.5080
 5294TIP3    H240078   7.081   1.314  17.616 -0.5266 -0.0661  0.8950
 5295TIP3   OH240079   7.893   2.046  18.514 -0.0784  0.2482 -0.4371
 5295TIP3    H140080   7.964   2.103  18.487 -0.4626  0.7283 -0.4555
 5295TIP3    H240081   7.817   2.077  18.463 -0.8869  1.3345  1.3261
 5296TIP3   OH240082   6.726   8.399  17.283 -0.2133 -0.4397  0.5202
 5296TIP3    H140083   6.764   8.363  17.203 -0.6807 -0.7624  0.4363
 5296TIP3    H240084   6.633   8.411  17.262  0.1365  2.1688  0.0630
 5297TIP3   OH240085   6.015   4.601  17.137 -0.0557  0.5668  0.0160
 5297TIP3    H140086   5.938   4.582  17.190  0.2945  2.9122  1.5119
 5297TIP3    H240087   5.998   4.687  17.100  1.2299  0.4699 -0.8520
 5298TIP3   OH240088   0.745   1.165  17.215 -0.2932 -0.1024 -0.3733
 5298TIP3    H140089   0.771   1.231  17.279 -0.0047 -0.2238 -0.3649
 5298TIP3    H240090   0.691   1.104  17.265 -0.8603  0.3172 -0.4602
 5299TIP3   OH240091   8.084   4.698  17.070 -0.0453  0.1604 -0.2710
 5299TIP3    H140092   8.138   4.650  17.132  2.3883  0.7400 -1.7532
 5299TIP3    H240093   8.148   4.747  17.016 -1.9819  0.0279 -2.9073
 5300TIP3   OH240094   7.599   6.917  18.757  0.5547 -0.4405 -0.5613
 5300TIP3    H140095   7.652   6.847  18.794  0.7616 -0.0640 -0.1275
 5300TIP3    H240096   7.619   6.993  18.812 -1.6279 -0.6466  0.6343
 5301TIP3   OH240097   1.685   8.400  18.402 -0.3334 -0.6645  0.0999
 5301TIP3    H140098   1.677   8.496  18.402  0.3240 -0.5990 -0.7352
 5301TIP3    H240099   1.671   8.375  18.494 -2.1971  0.0611  0.0675
 5302TIP3   OH240100   7.100   3.492  17.458  0.1907  0.1521 -0.3420
 5302TIP3    H140101   7.072   3.442  17.534 -0.7473 -2.4460 -2.2602
 5302TIP3    H240102   7.190   3.462  17.441  0.3668  0.6608 -0.3489
 5303TIP3   OH240103   4.030   5.502  18.511  0.3583 -0.5695 -0.5481
 5303TIP3    H140104   3.953   5.559  18.509  0.6256 -0.1406  0.7570
 5303TIP3    H240105   4.074   5.519  18.428 -1.3219 -1.3664 -1.6577
 5304TIP3   OH240106   8.402   2.457  18.123  0.1094  0.0773  0.2109
 5304TIP3    H140107   8.488   2.415  18.124  0.7200  1.2709  1.9078
 5304TIP3    H240108   8.383   2.475  18.215 -0.6567  2.4345 -0.3424
 5305TIP3   OH240109   8.434   3.830  18.813 -0.0230 -0.1120 -0.6322
 5305TIP3    H140110   8.516   3.865  18.779 -0.1889 -0.2149 -1.1427
 5305TIP3    H240111   8.450   3.818  18.906 -0.2916  2.3405 -0.1814
 5306TIP3   OH240112   1.237   6.950  17.285  0.7022  0.2619  0.4264
 5306TIP3    H140113   1.235   6.978  17.193  2.4319  1.0001  0.5697
 5306TIP3    H240114   1.292   6.871  17.284  1.4149  0.7349  0.9042
 5307TIP3   OH240115   7.722   6.793  16.660  0.1035  0.1165 -0.6981
 5307TIP3    H140116   7.652   6.832  16.608 -0.2189 -0.0400 -0.3889
 5307TIP3    H240117   7.687   6.790  16.749  0.5134  0.0584 -0.5343
 5308TIP3   OH240118   5.442   6.735  18.011  0.2435  0.1587  0.2837
 5308TIP3    H140119   5.351   6.758  17.995  0.6208  0.6903 -1.3051
 5308TIP3    H240120   5.462   6.774  18.096 -1.5439 -1.7068  1.6440
 5309TIP3   OH240121   6.540   6.836  17.992 -0.2340  0.3195 -0.3639
 5309TIP3    H140122   6.530   6.924  17.954  1.2550  1.2326  1.1976
 5309TIP3    H240123   6.450   6.810  18.014 -0.7690  1.1667 -1.4549
 5310TIP3   OH240124   1.816   3.757  18.185  0.2256 -0.1004 -0.3710
 5310TIP3    H140125   1.854   3.737  18.099  0.3759 -0.6352 -0.1814
 5310TIP3    H240126   1.733   3.801  18.164 -0.7378 -2.0159 -0.8336
 5311TIP3   OH240127   5.782   0.301  16.322 -0.1029 -0.0756  0.4283
 5311TIP3    H140128   5.695   0.275  16.350 -0.4899 -0.0609 -0.7066
 5311TIP3    H240129   5.768   0.383  16.273  0.1834 -1.3414 -1.9101
 5312TIP3   OH240130   8.423   7.192  17.531 -0.4992 -0.2906  0.4247
 5312TIP3    H140131   8.479   7.199  17.608  0.1135 -0.5643  0.0121
 5312TIP3    H240132   8.336   7.219  17.562 -0.3561 -0.7927  1.3136
 5313TIP3   OH240133   0.000   2.375  17.278  0.2669  0.1927 -0.5629
 5313TIP3    H140134  -0.068   2.387  17.344  1.4637 -1.1472  0.9680
 5313TIP3    H240135  -0.022   2.294  17.234 -0.7240  1.2573 -2.1247
 5314TIP3   OH240136   4.522   3.328  17.880 -0.3507  0.3774 -0.4088
 5314TIP3    H140137   4.543   3.253  17.825 -1.5576  0.6755 -1.3188
 5314TIP3    H240138   4.460   3.379  17.828 -1.3019  0.8258  1.0977
 5315TIP3   OH240139   1.835   2.728  18.719 -0.1004 -0.5031  0.1820
 5315TIP3    H140140   1.909   2.701  18.774 -0.7843 -2.3501  0.2531
 5315TIP3    H240141   1.846   2.822  18.710  1.7349 -0.5912  0.9726
 5316TIP3   OH240142   6.507   2.914  18.859 -0.4524  0.6578  0.3179
 5316TIP3    H140143   6.478   2.998  18.822 -0.4178  0.5562  0.0647
 5316TIP3    H240144   6.582   2.889  18.806 -0.5596  0.3865  0.2976
 5317TIP3   OH240145   8.010   5.922  18.337 -0.5138  0.0283 -0.1795
 5317TIP3    H140146   7.922   5.935  18.302 -0.5372  1.3509  0.3095
 5317TIP3    H240147   8.043   6.010  18.353  0.2313 -0.4817  1.3033
 5318TIP3   OH240148   3.172   7.248  17.960 -0.1672  0.1177  0.4096
 5318TIP3    H140149   3.110   7.264  17.889 -0.8671 -3.9519 -0.1547
 5318TIP3    H240150   3.251   7.219  17.916  0.5946  0.8419  1.2645
 5319TIP3   OH240151   4.139   3.182  16.718  0.4081  0.0257  0.1637
 5319TIP3    H140152   4.164   3.100  16.675  0.3933  0.3013 -0.3840
 5319TIP3    H240153   4.179   3.251  16.664  2.5519  0.3370  2.0103
 5320TIP3   OH240154   7.333   8.244  18.876  0.1559 -0.5714 -0.1415
 5320TIP3    H140155   7.258   8.225  18.821 -0.4370  0.0285  0.4471
 5320TIP3    H240156   7.309   8.209  18.962 -0.3295  1.3876  0.5823
 5321TIP3   OH240157   6.248   5.432  18.405  0.4329  0.3635 -0.0060
 5321TIP3    H140158   6.232   5.414  18.313 -0.2567 -1.1652  0.3849
 5321TIP3    H240159   6.177   5.389  18.451  1.1256  0.5390  1.2890
 5322TIP3   OH240160   4.748   0.339  18.225  0.4985  0.0984 -0.2297
 5322TIP3    H140161   4.791   0.422  18.203  0.9889 -0.0398  0.1758
 5322TIP3    H240162   4.672   0.364  18.277  0.4126  0.3145 -0.4589
 5323TIP3   OH240163   7.817   6.848  16.247 -0.1906 -0.0079  0.2228
 5323TIP3    H140164   7.826   6.909  16.320  0.3261  0.4559 -0.2163
 5323TIP3    H240165   7.883   6.780  16.263  0.0915  0.2264  0.0651
 5324TIP3   OH240166   0.633   4.575  19.289 -0.9671 -1.0878  0.0125
 5324TIP3    H140167   0.561   4.531  19.334 -2.1282  0.4783 -0.2230
 5324TIP3    H240168   0.591   4.622  19.217  0.1976  0.3164  0.1959
 5325TIP3   OH240169   2.417   4.470  17.895 -0.8317  0.3935 -1.1006
 5325TIP3    H140170   2.404   4.540  17.831  2.3630  2.4177  0.1702
 5325TIP3    H240171   2.339   4.473  17.950 -1.9395  1.1482 -2.6342
 5326TIP3   OH240172   7.169   5.270  18.790  0.2943 -0.4628 -0.6220
 5326TIP3    H140173   7.183   5.175  18.795 -0.6830 -0.5930 -0.1529
 5326TIP3    H240174   7.220   5.298  18.714  0.7334 -1.3372 -0.6570
 5327TIP3   OH240175   6.634   1.593  17.502 -0.2744 -0.2798 -0.3369
 5327TIP3    H140176   6.686   1.647  17.443  0.3063 -1.6012 -1.0949
 5327TIP3    H240177   6.560   1.563  17.449  0.3141 -1.5763 -0.4699
 5328TIP3   OH240178   1.058   0.904  17.086  0.7186 -0.0510  0.0099
 5328TIP3    H140179   1.104   0.890  17.003  1.5470 -1.1449  0.6211
 5328TIP3    H240180   1.051   0.999  17.094 -2.6091  0.1356 -3.0019
 5329TIP3   OH240181   4.745   2.509  17.618  0.7598  0.1299 -0.4497
 5329TIP3    H140182   4.737   2.529  17.525  0.0887 -0.9446 -0.6414
 5329TIP3    H240183   4.819   2.448  17.623 -1.6625 -3.0776 -0.8734
 5330TIP3   OH240184   8.162   5.220  18.039 -0.5186  1.2846 -0.0030
 5330TIP3    H140185   8.216   5.201  17.962  0.4499 -0.7715  1.0811
 5330TIP3    H240186   8.128   5.308  18.023 -0.5464  0.8713 -2.8550
 5331TIP3   OH240187   4.601   5.995  18.681  0.2912  0.0939  0.2773
 5331TIP3    H140188   4.507   5.985  18.690  0.0910  0.9650 -0.6175
 5331TIP3    H240189   4.621   6.077  18.726  0.4665  0.3962 -0.3341
 5332TIP3   OH240190   1.019   7.538  18.008 -0.1570  0.2976 -0.2758
 5332TIP3    H140191   1.062   7.574  18.085 -0.4042  0.0973 -0.0390
 5332TIP3    H240192   1.005   7.613  17.950 -0.0574  0.4662 -0.0809
 5333TIP3   OH240193   4.010   8.446  16.750 -0.0854 -0.0501  0.3747
 5333TIP3    H140194   4.026   8.423  16.659  1.2932 -2.1756  1.0790
 5333TIP3    H240195   4.090   8.489  16.779 -0.0613 -0.4220  0.8746
 5334TIP3   OH240196   4.003   6.524  17.720 -0.0464  0.1714  0.0813
 5334TIP3    H140197   3.953   6.606  17.722 -2.3573 -1.0801 -1.6857
 5334TIP3    H240198   3.956   6.465  17.778  0.1413 -0.6435 -0.5709
 5335TIP3   OH240199   1.687   7.665  18.050  0.3230  0.0343 -0.2283
 5335TIP3    H140200   1.602   7.627  18.028  0.3922  0.7140 -1.8260
 5335TIP3    H240201   1.678   7.694  18.141 -1.1822  0.1585 -0.3910
 5336TIP3   OH240202   6.267   7.678  18.412  0.6337  0.6407 -0.0050
 5336TIP3    H140203   6.218   7.622  18.351  0.6558  1.3983 -0.7226
 5336TIP3    H240204   6.295   7.618  18.481 -0.3750 -0.0193 -0.1369
 5337TIP3   OH240205   3.808   4.310  18.545 -0.2002  0.3916  0.2128
 5337TIP3    H140206   3.833   4.391  18.501  0.9277 -0.8345 -1.5293
 5337TIP3    H240207   3.786   4.250  18.474  2.0297 -1.7799  1.2404
 5338TIP3   OH240208   6.358   2.563  16.862 -0.2269 -0.3317  0.3803
 5338TIP3    H140209   6.419   2.611  16.807  0.4155 -1.2175  0.2929
 5338TIP3    H240210   6.372   2.471  16.839 -3.0759 -0.4874 -1.1545
 5339TIP3   OH240211   6.545   4.117  18.211 -0.0570 -0.0157  0.4076
 5339TIP3    H140212   6.633   4.142  18.240  0.7891 -0.9780 -1.1619
 5339TIP3    H240213   6.553   4.024  18.190 -1.8790 -0.5004  1.6788
 5340TIP3   OH240214   5.732   3.052  19.038  0.0518 -1.0689 -0.5006
 5340TIP3    H140215   5.652   3.083  18.995  0.7236  1.0582 -0.3635
 5340TIP3    H240216   5.702   2.984  19.098 -1.7566 -0.0195 -0.1091
 5341TIP3   OH240217   0.501   1.256  17.418  0.3522 -0.0751 -0.0474
 5341TIP3    H140218   0.476   1.340  17.379 -1.2228 -0.2403  0.5132
 5341TIP3    H240219   0.538   1.279  17.503 -1.7263  0.0038  0.8852
 5342TIP3   OH240220   5.253   1.821  18.201 -0.0160  0.6205 -0.1090
 5342TIP3    H140221   5.227   1.827  18.109  0.5145 -0.0513 -0.3141
 5342TIP3    H240222   5.207   1.744  18.235  0.1309  0.6072  0.0641
 5343TIP3   OH240223   2.242   8.037  17.599  0.5222  0.4498 -0.3316
 5343TIP3    H140224   2.298   8.044  17.676 -2.0082  1.8826  1.5595
 5343TIP3    H240225   2.291   8.078  17.528  2.5938 -0.1416  0.7038
 5344TIP3   OH240226   0.417   6.095  17.552 -0.6468 -0.1332 -0.7942
 5344TIP3    H140227   0.464   6.169  17.513  1.6097 -0.1285  1.6616
 5344TIP3    H240228   0.443   6.019  17.500  0.9042  0.1184 -0.4247
 5345TIP3   OH240229   0.578   0.011  17.646 -0.5402  0.6455 -0.2494
 5345TIP3    H140230   0.557   0.017  17.739  0.2656  1.0431 -0.0883
 5345TIP3    H240231   0.612  -0.078  17.634 -0.3863  0.6861 -0.1104
 5346TIP3   OH240232   3.992   4.358  17.685  0.4356  0.1233 -0.2901
 5346TIP3    H140233   4.066   4.298  17.675 -0.0987 -0.4257 -0.9886
 5346TIP3    H240234   3.932   4.314  17.745  0.2744  0.1825 -0.4058
 5347TIP3   OH240235   1.134   2.473  17.421 -0.3680  0.1033 -0.2886
 5347TIP3    H140236   1.195   2.543  17.445 -0.0100 -0.1770 -0.3745
 5347TIP3    H240237   1.190   2.399  17.397 -0.7290  0.0542 -1.0123
 5348TIP3   OH240238   4.602   3.406  16.974 -0.6738  0.2255  0.5068
 5348TIP3    H140239   4.617   3.434  16.884 -1.5971 -0.1460  0.2236
 5348TIP3    H240240   4.674   3.346  16.993 -0.4065  0.4013  0.0621
 5349TIP3   OH240241   1.849   7.803  17.591  0.1007  0.3919 -0.0793
 5349TIP3    H140242   1.770   7.798  17.644  0.7529 -1.5080  0.8120
 5349TIP3    H240243   1.823   7.765  17.507 -0.5290  2.0106 -0.6600
 5350TIP3   OH240244   0.598   4.499  18.296  0.5233 -0.3097  0.2863
 5350TIP3    H140245   0.587   4.588  18.329 -2.6975 -0.6536  0.4646
 5350TIP3    H240246   0.605   4.509  18.201 -0.2008  0.1376  0.2747
 5351TIP3   OH240247   3.955   0.719  17.604  0.7772  0.3834  0.1609
 5351TIP3    H140248   3.952   0.663  17.526 -1.9966  2.3950 -1.3432
 5351TIP3    H240249   3.965   0.807  17.570 -0.6214  1.3430  2.0349
 5352TIP3   OH240250   2.028   3.217  17.644 -0.2678  0.5846  0.1227
 5352TIP3    H140251   2.120   3.194  17.633 -0.0981  0.1813  2.0880
 5352TIP3    H240252   1.984   3.176  17.569  1.2951  2.1042 -1.7560
 5353TIP3   OH240253   3.419   1.825  17.168  0.7060  0.7649  0.4413
 5353TIP3    H140254   3.446   1.894  17.108 -0.4286 -1.1752 -2.5456
 5353TIP3    H240255   3.461   1.746  17.134 -0.1645 -0.4900  2.1184
 5354TIP3   OH240256   2.479   1.625  18.438  0.1330 -0.7041 -0.3143
 5354TIP3    H140257   2.391   1.626  18.476 -0.1683 -2.0828 -0.9171
 5354TIP3    H240258   2.468   1.663  18.351  0.0610 -1.1723 -0.5130
 5355TIP3   OH240259   8.249   3.284  18.393 -0.2813  0.2813 -0.0097
 5355TIP3    H140260   8.212   3.364  18.432  1.1160  0.4672  0.9947
 5355TIP3    H240261   8.173   3.227  18.379 -1.3461  1.8611 -0.9754
 5356TIP3   OH240262   0.742   4.581  18.677 -0.1128 -0.2330  0.2635
 5356TIP3    H140263   0.780   4.639  18.611  1.4083 -2.2688 -0.8009
 5356TIP3    H240264   0.812   4.518  18.695 -1.5586 -1.5321  1.5669
 5357TIP3   OH240265   5.240   2.206  16.999 -0.1991  0.0962  0.5046
 5357TIP3    H140266   5.202   2.293  16.984  0.1995  0.4008  1.1792
 5357TIP3    H240267   5.175   2.160  17.052 -0.6773 -0.2351 -0.3638
 5358TIP3   OH240268   4.857   8.229  16.786  0.1688 -0.1235  0.0153
 5358TIP3    H140269   4.851   8.322  16.764 -0.3199  0.1001  1.0659
 5358TIP3    H240270   4.785   8.213  16.846  0.1681 -1.2208 -0.2527
 5359TIP3   OH240271   5.933   2.920  16.429  0.5466 -0.3272  0.4189
 5359TIP3    H140272   6.021   2.884  16.446  0.7142  0.9966  2.9291
 5359TIP3    H240273   5.950   3.009  16.397  0.0839 -1.1271 -2.2910
 5360TIP3   OH240274   0.583   2.554  18.378 -0.2687  0.4995 -0.2271
 5360TIP3    H140275   0.661   2.500  18.369 -0.2069  0.6192 -0.4303
 5360TIP3    H240276   0.521   2.500  18.427 -0.0730  0.3898 -0.1019
 5361TIP3   OH240277   0.030   3.889  18.451 -0.0747  0.4849  0.6320
 5361TIP3    H140278  -0.050   3.886  18.503 -0.0782  0.1320  0.6057
 5361TIP3    H240279   0.065   3.978  18.465  0.2046  0.2283  1.6443
 5362TIP3   OH240280   2.198   8.362  18.357 -0.2042 -0.0714  0.1749
 5362TIP3    H140281   2.261   8.317  18.414  0.8994  0.8908 -0.2464
 5362TIP3    H240282   2.249   8.389  18.281 -1.2605  0.2597 -0.4423
 5363TIP3   OH240283   7.404   5.640  18.484 -0.0775  0.6074 -0.1951
 5363TIP3    H140284   7.491   5.646  18.524  0.0885  0.2204 -0.4774
 5363TIP3    H240285   7.370   5.729  18.486 -0.7779  0.3569  2.3131
 5364TIP3   OH240286   8.027   4.483  18.572  0.1216  0.7776 -0.5016
 5364TIP3    H140287   7.959   4.476  18.639 -0.8868  2.6031 -1.2800
 5364TIP3    H240288   8.056   4.574  18.577 -0.0996  1.0124 -2.6515
 5365TIP3   OH240289   2.879   2.391  18.811  0.4052  0.1233 -0.1438
 5365TIP3    H140290   2.821   2.411  18.885 -1.3812  0.9933 -1.6978
 5365TIP3    H240291   2.869   2.465  18.752  1.0639 -0.9774 -1.6987
 5366TIP3   OH240292   6.953   7.399  17.341  0.0241  0.4193 -0.5918
 5366TIP3    H140293   6.913   7.417  17.426  0.4787  0.9610 -0.4853
 5366TIP3    H240294   6.900   7.328  17.304  0.0319 -0.0531  0.2817
 5367TIP3   OH240295   3.570   3.651  17.027 -0.5212  0.0892  0.4226
 5367TIP3    H140296   3.538   3.612  16.946  0.4774  1.2532 -0.5818
 5367TIP3    H240297   3.622   3.582  17.069  0.4054 -0.0075 -0.8284
 5368TIP3   OH240298   2.046   6.841  19.139 -0.2325 -0.1414  0.5615
 5368TIP3    H140299   2.037   6.905  19.210  0.2702 -0.9941  1.4233
 5368TIP3    H240300   1.965   6.848  19.090  0.1818  1.8368  0.0356
 5369TIP3   OH240301   2.984   3.498  17.603  0.2402 -0.4476  0.1231
 5369TIP3    H140302   2.982   3.592  17.620 -1.4181 -0.4653  0.1916
 5369TIP3    H240303   2.967   3.490  17.509  1.5219 -0.6619 -0.1138
 5370TIP3   OH240304   6.328   4.623  18.928 -0.7514  0.1590 -0.3003
 5370TIP3    H140305   6.409   4.600  18.975 -1.2736 -0.5866  0.2594
 5370TIP3    H240306   6.258   4.593  18.986 -1.4184 -0.3843 -1.3579
 5371TIP3   OH240307   7.957   6.813  17.062  0.2674  0.2433 -0.0337
 5371TIP3    H140308   7.915   6.784  17.143  0.0988  1.4170  0.3140
 5371TIP3    H240309   8.050   6.790  17.074 -0.2769 -3.1705 -1.1652
 5372TIP3   OH240310   0.716   3.682  17.515  0.1373  0.3591  0.3943
 5372TIP3    H140311   0.628   3.668  17.550  0.4781 -1.7239  0.5594
 5372TIP3    H240312   0.703   3.703  17.423 -0.5398 -0.6428  0.2400
 5373TIP3   OH240313   4.664   1.376  17.242 -0.0329 -0.3955 -0.0515
 5373TIP3    H140314   4.673   1.442  17.310  1.5138 -0.6309 -0.0096
 5373TIP3    H240315   4.643   1.427  17.163 -0.6492 -0.0304  0.3345
 5374TIP3   OH240316   7.820   7.542  18.286 -0.2114  0.4342 -0.0283
 5374TIP3    H140317   7.800   7.629  18.253  2.2624  0.6476 -1.1583
 5374TIP3    H240318   7.790   7.544  18.377 -0.8512  2.2131 -0.2401
 5375TIP3   OH240319   3.748   6.690  18.405  0.4160 -0.2834  0.1450
 5375TIP3    H140320   3.807   6.764  18.395  0.1635 -0.1827 -0.7042
 5375TIP3    H240321   3.666   6.720  18.364  0.1228 -0.8064  0.3438
 5376TIP3   OH240322   0.076   3.201  17.245 -0.4850  0.1035  0.9945
 5376TIP3    H140323   0.074   3.270  17.311  0.3765 -0.1901  1.3396
 5376TIP3    H240324   0.145   3.226  17.184  1.9002 -1.8024  2.6999
 5377TIP3   OH240325   0.780   3.176  18.279  0.3585 -0.0958 -0.2263
 5377TIP3    H140326   0.730   3.179  18.360 -0.4209  4.3166 -0.6353
 5377TIP3    H240327   0.714   3.178  18.209  1.0407  0.2694 -0.8763
 5378TIP3   OH240328   7.519   0.488  17.162  0.1476 -0.4364 -0.0220
 5378TIP3    H140329   7.447   0.550  17.167  0.1808 -0.3288 -0.8034
 5378TIP3    H240330   7.478   0.406  17.133  0.2822 -0.4797 -0.0892
 5379TIP3   OH240331   3.953   3.943  17.561  0.0342 -0.0846  0.8558
 5379TIP3    H140332   3.859   3.951  17.548  0.0970  0.7654  0.8732
 5379TIP3    H240333   3.976   4.020  17.614  0.7930 -0.0823  0.5352
 5380TIP3   OH240334   1.052   2.040  18.186 -0.1010  0.0179 -0.2851
 5380TIP3    H140335   0.963   2.075  18.193  0.1215  0.5042  0.0891
 5380TIP3    H240336   1.051   1.991  18.104 -0.1156  1.7909 -1.4016
 5381TIP3   OH240337   5.908   3.411  17.145  0.1055 -0.2704 -0.0338
 5381TIP3    H140338   5.961   3.385  17.221  0.0021 -0.4671 -0.0280
 5381TIP3    H240339   5.966   3.467  17.094  1.7063 -3.4147 -1.9572
 5382TIP3   OH240340   0.734   2.110  18.703 -0.2852  0.1034  0.0787
 5382TIP3    H140341   0.681   2.056  18.645 -1.2923 -1.7883  2.5777
 5382TIP3    H240342   0.676   2.179  18.732  0.6935  2.0819 -2.2623
 5383TIP3   OH240343   5.032   1.411  17.228 -0.1438 -0.1064  0.3127
 5383TIP3    H140344   5.082   1.422  17.146  0.3787 -0.5813  0.5580
 5383TIP3    H240345   4.961   1.475  17.221  0.8752  1.0567  0.2371
 5384TIP3   OH240346   4.525   3.519  17.493  0.2828  0.0889 -0.3648
 5384TIP3    H140347   4.470   3.564  17.430  0.1749  0.8761  0.2641
 5384TIP3    H240348   4.475   3.520  17.574  1.5290  1.6131  0.4582
 5385TIP3   OH240349   4.513   0.970  17.349  0.2648 -0.1778 -0.6739
 5385TIP3    H140350   4.608   0.973  17.361  0.8769 -1.4294 -4.0389
 5385TIP3    H240351   4.478   1.035  17.409  3.1519 -0.3317  1.3355
 5386TIP3   OH240352   8.190   6.506  17.121 -0.4784  0.0083 -0.0857
 5386TIP3    H140353   8.103   6.511  17.159 -0.4717 -0.1876 -0.0446
 5386TIP3    H240354   8.209   6.595  17.091 -0.5551  0.1226  0.2054
 5387TIP3   OH240355   0.557   8.182  18.775 -0.0741 -0.1211 -0.0312
 5387TIP3    H140356   0.652   8.184  18.764  0.0431 -1.1128  0.7108
 5387TIP3    H240357   0.533   8.090  18.763 -1.0699  0.2669 -1.1805
 5388TIP3   OH240358   5.484   6.183  18.694  0.2563 -0.0736 -0.1895
 5388TIP3    H140359   5.549   6.240  18.735  0.4860  0.3407 -1.0851
 5388TIP3    H240360   5.439   6.140  18.767  1.2532 -0.0472  0.4532
 5389TIP3   OH240361   7.036   7.735  18.743  1.0722  0.2712 -0.3210
 5389TIP3    H140362   7.121   7.773  18.718  1.3547 -0.6689 -0.8021
 5389TIP3    H240363   7.059   7.660  18.798  0.5079  0.7442  0.5866
 5390TIP3   OH240364   7.652   0.092  18.526 -0.1378 -0.1090  0.5409
 5390TIP3    H140365   7.735   0.125  18.492 -0.0009 -0.0053  0.9741
 5390TIP3    H240366   7.658  -0.003  18.516  0.3201 -0.1509  1.2198
 5391TIP3   OH240367   5.941   7.471  12.668  0.2230  0.7424  0.1129
 5391TIP3    H140368   6.018   7.505  12.622  0.8504 -0.5058  0.1907
 5391TIP3    H240369   5.900   7.412  12.605 -0.3224  0.9310  0.2897
 5392TIP3   OH240370   5.331   2.036  11.760 -0.0334  0.3468  0.2364
 5392TIP3    H140371   5.242   2.003  11.762  0.3385 -0.7033  0.0782
 5392TIP3    H240372   5.325   2.118  11.710 -0.5792 -0.8261 -1.7414
 5393TIP3   OH240373   8.313   2.333  12.469  0.0723  0.2614  0.0820
 5393TIP3    H140374   8.329   2.271  12.398  1.1417 -0.1317  0.6327
 5393TIP3    H240375   8.309   2.278  12.548 -1.8822  0.5917  0.2744
 5394TIP3   OH240376   7.514   7.447  11.617  0.5182  0.2203  0.1936
 5394TIP3    H140377   7.573   7.442  11.692  0.9889  1.0508 -0.1032
 5394TIP3    H240378   7.444   7.505  11.646 -1.8010 -3.0071  1.5897
 5395TIP3   OH240379   5.866   5.523  12.248 -0.3600  0.0778 -0.2276
 5395TIP3    H140380   5.885   5.481  12.164 -0.1183  0.6949 -0.4948
 5395TIP3    H240381   5.899   5.613  12.237  2.6354 -0.6652  1.6066
 5396TIP3   OH240382   2.884   1.735  11.682 -0.2931  0.2389  0.5670
 5396TIP3    H140383   2.948   1.791  11.727  1.0855  0.2845 -1.3426
 5396TIP3    H240384   2.823   1.797  11.641 -0.8343  0.2289  1.3446
 5397TIP3   OH240385   2.057   6.101  12.734  0.3168  0.0450  0.0728
 5397TIP3    H140386   1.973   6.144  12.716 -0.2386 -0.4198  1.4068
 5397TIP3    H240387   2.045   6.011  12.704 -0.2383 -0.4413  1.6415
 5398TIP3   OH240388   3.071   4.829  11.550 -0.0532 -0.7731 -0.1970
 5398TIP3    H140389   3.070   4.787  11.636  1.1209  1.0085  0.7616
 5398TIP3    H240390   3.132   4.777  11.498 -0.1521 -1.3992  0.3044
 5399TIP3   OH240391   6.336   2.676  13.334  0.4120 -0.3860  0.1577
 5399TIP3    H140392   6.288   2.595  13.323 -1.3902  0.5837  0.5166
 5399TIP3    H240393   6.339   2.715  13.247 -0.7242  0.2137  0.3709
 5400TIP3   OH240394   1.805   8.314  12.762  0.0106 -0.1695  0.1760
 5400TIP3    H140395   1.821   8.220  12.755 -1.3084 -0.4106  0.0578
 5400TIP3    H240396   1.718   8.320  12.802  0.4649  1.0174  1.0252
 5401TIP3   OH240397   4.927   6.531  12.282 -0.0274 -0.1260 -0.4081
 5401TIP3    H140398   5.003   6.574  12.321 -0.0658 -0.7394  0.3617
 5401TIP3    H240399   4.961   6.446  12.251 -0.2791 -0.1712 -0.5645
 5402TIP3   OH240400   4.695   1.191  12.887  0.3261 -0.5268  0.1357
 5402TIP3    H140401   4.614   1.242  12.894  0.1534 -0.6200 -1.0347
 5402TIP3    H240402   4.695   1.136  12.965 -1.3780 -1.4248 -0.4472
 5403TIP3   OH240403   1.012   1.558  11.670  0.8040  0.1737 -0.0015
 5403TIP3    H140404   1.073   1.626  11.641 -1.2934  2.5521  0.8212
 5403TIP3    H240405   1.068   1.494  11.714  2.8032  2.0247  0.3583
 5404TIP3   OH240406   1.800   6.164  12.662 -0.1596  0.0808  0.0144
 5404TIP3    H140407   1.820   6.241  12.608  0.1294  0.7609  1.0736
 5404TIP3    H240408   1.707   6.173  12.683 -0.5157 -0.6704 -1.0849
 5405TIP3   OH240409   3.338   1.519  13.689  0.6989 -0.2202  0.1978
 5405TIP3    H140410   3.248   1.548  13.676  0.4954 -0.8600  0.1387
 5405TIP3    H240411   3.385   1.598  13.716  0.0816  0.0743  0.4251
 5406TIP3   OH240412   0.269   7.096  13.636 -0.4899  0.2450 -0.1973
 5406TIP3    H140413   0.183   7.134  13.657 -0.1472  0.9117  0.0507
 5406TIP3    H240414   0.257   7.002  13.646 -0.8653  0.4133  1.1166
 5407TIP3   OH240415   0.323   3.343  13.054 -0.2001  0.1030 -0.5064
 5407TIP3    H140416   0.269   3.371  12.979 -2.3200 -0.2800  0.7953
 5407TIP3    H240417   0.290   3.256  13.076  0.6965  0.0306  0.6055
 5408TIP3   OH240418   6.790   6.933  12.298  0.3104 -0.4262  0.0623
 5408TIP3    H140419   6.872   6.924  12.345 -0.5326  1.3564  2.0321
 5408TIP3    H240420   6.732   6.980  12.358 -2.5059 -2.4281 -0.8215
 5409TIP3   OH240421   1.982   0.319  12.449  0.6231  0.2060 -0.2469
 5409TIP3    H140422   1.937   0.235  12.457 -0.2603  0.6291 -0.5269
 5409TIP3    H240423   1.962   0.365  12.530  2.3431 -0.3951  0.5689
 5410TIP3   OH240424   4.903   5.556  11.959  0.0344  0.2814  0.4674
 5410TIP3    H140425   4.871   5.595  11.878 -0.3604 -0.9647 -0.0059
 5410TIP3    H240426   4.824   5.539  12.010  0.2309  0.4747  0.8410
 5411TIP3   OH240427   4.719   0.465  11.574  0.0773  0.4407 -0.2098
 5411TIP3    H140428   4.699   0.554  11.601  0.9139  1.0843 -1.6179
 5411TIP3    H240429   4.800   0.473  11.523  0.5723 -1.2221  0.2347
 5412TIP3   OH240430   3.629   0.101  11.488  0.6799 -0.0007  0.1197
 5412TIP3    H140431   3.669   0.184  11.459  2.0504 -0.6371  0.1147
 5412TIP3    H240432   3.680   0.075  11.564  1.7974 -1.9887 -1.2189
 5413TIP3   OH240433   4.383   6.170  12.409  0.1186  0.2137 -0.7021
 5413TIP3    H140434   4.299   6.150  12.448 -1.1335 -0.1974 -3.4008
 5413TIP3    H240435   4.444   6.106  12.447 -1.0071 -0.2089  0.4396
 5414TIP3   OH240436   6.508   0.251  13.129  0.7488  0.0747  0.4414
 5414TIP3    H140437   6.436   0.296  13.174  0.7547  0.2014  0.3257
 5414TIP3    H240438   6.587   0.288  13.168  0.7611 -0.9825  1.4850
 5415TIP3   OH240439   1.651   1.862  11.983 -0.8072 -0.2321 -0.3102
 5415TIP3    H140440   1.648   1.942  11.931 -0.3265  0.1719  0.2553
 5415TIP3    H240441   1.673   1.893  12.072 -0.9029 -0.9638 -0.0274
 5416TIP3   OH240442   7.438   2.587  11.309  0.0732 -0.0615 -0.5071
 5416TIP3    H140443   7.477   2.526  11.371  3.0519  0.6587 -1.5201
 5416TIP3    H240444   7.445   2.543  11.224  0.4922  0.8986 -0.9833
 5417TIP3   OH240445   5.782   6.799  12.807 -0.4281 -0.4931 -0.2829
 5417TIP3    H140446   5.750   6.861  12.741  2.8826  2.4647  0.5733
 5417TIP3    H240447   5.816   6.855  12.877  0.3906 -3.4148  1.8241
 5418TIP3   OH240448   4.326   2.028  12.685  0.2695 -0.0698 -0.2015
 5418TIP3    H140449   4.413   2.042  12.649 -0.1945  2.1871 -0.5881
 5418TIP3    H240450   4.306   2.109  12.733 -1.5446 -0.5906  0.0042
 5419TIP3   OH240451   6.736   6.909  12.034  0.3217 -0.0551 -0.0356
 5419TIP3    H140452   6.721   7.003  12.024  0.6620 -0.0004 -0.0641
 5419TIP3    H240453   6.756   6.898  12.127 -0.1694 -0.1666  0.0578
 5420TIP3   OH240454   3.681   0.223  12.440  0.7832  0.0069  0.5173
 5420TIP3    H140455   3.750   0.246  12.377 -1.0903 -0.1499 -1.7510
 5420TIP3    H240456   3.717   0.150  12.490  2.3222  0.0463 -0.4633
 5421TIP3   OH240457   5.929   6.178  11.826 -0.2952 -0.1697 -0.2860
 5421TIP3    H140458   5.906   6.149  11.915 -0.4863  2.0055  0.4387
 5421TIP3    H240459   5.849   6.163  11.775  0.1019 -2.2932 -0.3804
 5422TIP3   OH240460   6.999   7.632  12.463 -0.0244 -0.7311  0.1058
 5422TIP3    H140461   6.983   7.719  12.499  1.0518 -0.6673  0.4475
 5422TIP3    H240462   6.939   7.575  12.511 -0.6947 -0.1979 -0.0804
 5423TIP3   OH240463   8.422   4.210  12.237 -0.0570 -0.1358 -0.0357
 5423TIP3    H140464   8.342   4.193  12.188  1.0867  0.7916 -2.3967
 5423TIP3    H240465   8.447   4.125  12.273  0.7116 -1.7549 -3.8641
 5424TIP3   OH240466   6.153   1.900  12.376  0.3892  0.0330  0.1106
 5424TIP3    H140467   6.202   1.919  12.296  0.3844  1.5994  0.4460
 5424TIP3    H240468   6.081   1.963  12.375 -1.8227 -2.3155 -0.4906
 5425TIP3   OH240469   7.802   3.525  13.072  0.0799 -0.2649 -0.1446
 5425TIP3    H140470   7.708   3.524  13.090  0.1777 -2.2310  0.4627
 5425TIP3    H240471   7.838   3.585  13.137 -0.8199  1.1353 -0.8915
 5426TIP3   OH240472   5.131   3.209  12.949  0.9846  0.0955 -0.1120
 5426TIP3    H140473   5.145   3.297  12.985  1.8374  0.5116 -1.3846
 5426TIP3    H240474   5.046   3.214  12.906  1.3911  0.5692 -0.8904
 5427TIP3   OH240475   3.041   8.317  13.000  0.4017 -0.3063  0.9483
 5427TIP3    H140476   2.965   8.317  12.941 -0.4863  1.1746  2.0347
 5427TIP3    H240477   3.005   8.343  13.085  1.8503 -1.2848  1.9105
 5428TIP3   OH240478   4.373   5.100  13.232  0.0165 -0.1690  0.3988
 5428TIP3    H140479   4.344   5.171  13.289 -2.4497  0.5967 -1.6271
 5428TIP3    H240480   4.433   5.141  13.171  0.6277 -0.4193  0.8253
 5429TIP3   OH240481   3.266   5.754  11.556  0.0572 -0.0374 -0.3058
 5429TIP3    H140482   3.212   5.746  11.478 -1.5297  0.7478  0.6496
 5429TIP3    H240483   3.290   5.664  11.578  1.4466 -0.1903 -2.2619
 5430TIP3   OH240484   0.015   3.543  11.547  0.2924 -0.0108 -0.3930
 5430TIP3    H140485  -0.060   3.502  11.590 -0.6671  1.3296 -0.7447
 5430TIP3    H240486  -0.019   3.624  11.510  1.8457  0.4652 -0.8624
 5431TIP3   OH240487   2.302   7.037  11.852  0.2756 -0.3000 -0.4014
 5431TIP3    H140488   2.303   6.985  11.772  1.6388 -0.4659 -0.3087
 5431TIP3    H240489   2.273   6.977  11.920 -0.2746 -0.3272 -0.6541
 5432TIP3   OH240490   5.130   6.938  12.858 -0.6519  0.0679  0.2775
 5432TIP3    H140491   5.053   6.937  12.915  1.0077 -0.1709  2.7054
 5432TIP3    H240492   5.135   6.849  12.823 -0.7747 -0.2991  1.1598
 5433TIP3   OH240493   3.559   5.955  12.333 -0.0491 -0.2585  0.0603
 5433TIP3    H140494   3.550   5.887  12.267  1.3501  0.1913 -0.6464
 5433TIP3    H240495   3.569   6.036  12.283 -0.6262  0.3151  0.8623
 5434TIP3   OH240496   6.955   3.295  11.742  0.4395  0.3229  0.0773
 5434TIP3    H140497   6.927   3.246  11.819 -2.3447 -0.5279 -1.3471
 5434TIP3    H240498   7.027   3.349  11.773  2.5454 -3.2754  2.2254
 5435TIP3   OH240499   2.074   1.155  12.400 -0.0376  0.0798 -0.0601
 5435TIP3    H140500   2.016   1.088  12.364  0.6229 -1.2486  1.2603
 5435TIP3    H240501   2.035   1.238  12.372 -2.0408 -0.7909  0.0212
 5436TIP3   OH240502   7.093   0.918  12.335  0.3602 -0.1250 -0.3483
 5436TIP3    H140503   7.098   0.832  12.292 -0.7016 -0.8499  0.9043
 5436TIP3    H240504   7.135   0.978  12.274  2.1037 -1.7118 -0.7827
 5437TIP3   OH240505   7.547   4.616  12.320  0.3718  0.0891 -0.0146
 5437TIP3    H140506   7.455   4.639  12.305  0.5707  0.3233 -0.9353
 5437TIP3    H240507   7.567   4.653  12.406  0.3176  2.3955 -0.9064
 5438TIP3   OH240508   2.860   6.436  12.664 -0.1998 -0.4355  0.0038
 5438TIP3    H140509   2.769   6.418  12.688  0.8292 -3.6534  2.2613
 5438TIP3    H240510   2.873   6.387  12.583 -0.0811 -1.4793  0.6310
 5439TIP3   OH240511   0.809   3.455  12.849  0.0335 -0.1898  0.5603
 5439TIP3    H140512   0.760   3.426  12.926 -1.1244 -2.4825 -0.9417
 5439TIP3    H240513   0.783   3.546  12.836 -0.8251 -0.1963  2.0404
 5440TIP3   OH240514   5.608   0.288  13.061 -0.1923 -0.2848 -0.1899
 5440TIP3    H140515   5.587   0.321  13.148 -1.0668 -0.3702 -0.3630
 5440TIP3    H240516   5.691   0.242  13.073  0.4107  0.8724  0.3086
 5441TIP3   OH240517   4.952   3.342  11.856  0.1179 -0.4824  0.2588
 5441TIP3    H140518   4.981   3.417  11.804 -0.8287  0.7651  1.4834
 5441TIP3    H240519   5.033   3.297  11.881  0.6815 -0.0216 -0.6859
 5442TIP3   OH240520   0.129   4.634  12.584  0.4285 -0.4404 -0.2074
 5442TIP3    H140521   0.093   4.652  12.497  0.0145  1.1632  0.2493
 5442TIP3    H240522   0.106   4.544  12.602 -1.4409 -0.1242 -0.8562
 5443TIP3   OH240523   7.441   4.744  13.839  0.0812  0.0587  0.5895
 5443TIP3    H140524   7.510   4.719  13.901 -1.5234  0.8900  2.8549
 5443TIP3    H240525   7.392   4.663  13.824 -0.7639  0.2455  2.1363
 5444TIP3   OH240526   6.355   5.429  12.760 -0.5699  0.5068  0.4656
 5444TIP3    H140527   6.375   5.453  12.670  0.1974 -0.2042  0.4371
 5444TIP3    H240528   6.368   5.510  12.809 -1.5715  1.0465 -0.1330
 5445TIP3   OH240529   0.011   1.359  12.243  0.0169 -0.2653  0.0645
 5445TIP3    H140530   0.037   1.450  12.239  0.3161 -0.3529  0.0052
 5445TIP3    H240531  -0.049   1.354  12.318 -1.3100  0.3045 -0.9156
 5446TIP3   OH240532   4.306   5.100  11.930 -0.3557  0.2442 -0.3287
 5446TIP3    H140533   4.252   5.048  11.870  1.1007 -0.8878 -0.7199
 5446TIP3    H240534   4.361   5.153  11.873  1.1367 -0.9401 -0.0423
 5447TIP3   OH240535   2.240   3.840  11.713  0.4072 -0.5916 -0.2204
 5447TIP3    H140536   2.244   3.758  11.663 -0.3836 -1.5758  1.2500
 5447TIP3    H240537   2.324   3.883  11.695  1.1966 -2.1133 -0.4090
 5448TIP3   OH240538   2.524   2.993  12.741 -0.2852 -0.1721  0.2319
 5448TIP3    H140539   2.496   2.903  12.727  0.5858 -0.6594  1.4846
 5448TIP3    H240540   2.461   3.029  12.803 -0.1594 -0.1830  0.3676
 5449TIP3   OH240541   6.764   2.093  12.492  0.1396  0.6087  0.4548
 5449TIP3    H140542   6.750   2.068  12.401  0.2514  1.4150  0.2052
 5449TIP3    H240543   6.840   2.042  12.520 -1.2049 -1.2902  0.7934
 5450TIP3   OH240544   6.284   2.175  13.547  0.2864  0.0079 -0.3644
 5450TIP3    H140545   6.191   2.200  13.551  0.3235  0.2087 -0.7632
 5450TIP3    H240546   6.330   2.257  13.530  0.3900 -0.3476 -1.9680
 5451TIP3   OH240547   3.223   3.835  13.651  0.3845  0.1412  0.6074
 5451TIP3    H140548   3.147   3.835  13.593  0.1107  1.0405  0.9596
 5451TIP3    H240549   3.269   3.916  13.632  2.6661 -1.4669 -1.3877
 5452TIP3   OH240550   4.799   8.006  13.092 -0.3040 -1.0150 -0.0346
 5452TIP3    H140551   4.713   7.967  13.076  0.4248 -2.7507  0.0603
 5452TIP3    H240552   4.810   8.001  13.187 -0.3550 -0.1949  0.0211
 5453TIP3   OH240553   0.788   6.058  12.990 -0.3475  0.8785 -0.3708
 5453TIP3    H140554   0.859   6.022  12.938 -1.4482 -1.9921 -0.0674
 5453TIP3    H240555   0.712   6.056  12.932 -0.5005  2.8075 -0.3171
 5454TIP3   OH240556   2.416   5.900  11.995  0.4890  0.0633  0.4284
 5454TIP3    H140557   2.431   5.820  12.045  0.4311  0.4891  1.1475
 5454TIP3    H240558   2.325   5.923  12.013  0.8590  0.9572  1.2299
 5455TIP3   OH240559   0.231   0.808  11.928  0.2403  0.1102  0.0062
 5455TIP3    H140560   0.262   0.878  11.871 -0.7676 -0.3443 -1.1431
 5455TIP3    H240561   0.138   0.799  11.906 -1.3791  2.5527  4.4003
 5456TIP3   OH240562   4.696   1.290  11.792  0.0199 -0.7315 -0.3638
 5456TIP3    H140563   4.635   1.250  11.729  0.0164 -0.4881 -0.5167
 5456TIP3    H240564   4.675   1.247  11.875 -0.8479 -0.1477 -0.2642
 5457TIP3   OH240565   7.871   3.730  12.139  0.4020 -0.3070 -0.1283
 5457TIP3    H140566   7.834   3.684  12.213  0.6966 -0.0053  0.2105
 5457TIP3    H240567   7.833   3.687  12.062 -1.4280  0.6112  0.1994
 5458TIP3   OH240568   8.048   1.999  11.632 -0.4448 -0.2922  0.5652
 5458TIP3    H140569   8.136   2.031  11.653 -0.5568  0.5554 -0.1892
 5458TIP3    H240570   8.040   1.917  11.680  0.1675  0.4123  1.9112
 5459TIP3   OH240571   4.041   1.408  12.816 -0.4435  0.5040 -0.5992
 5459TIP3    H140572   4.021   1.318  12.789 -1.5440  0.4197  0.4348
 5459TIP3    H240573   4.040   1.458  12.735 -2.2559  0.0090 -0.9177
 5460TIP3   OH240574   6.121   3.090  12.184 -0.2728 -0.1581 -0.4294
 5460TIP3    H140575   6.061   3.160  12.212  2.2885  1.1618  2.3617
 5460TIP3    H240576   6.200   3.137  12.158  1.4226 -1.9145  1.2546
 5461TIP3   OH240577   3.830   2.710  12.500 -0.0115 -0.0895  0.4310
 5461TIP3    H140578   3.857   2.730  12.589  1.6739  3.1046 -0.6327
 5461TIP3    H240579   3.762   2.774  12.479 -2.0077 -2.1885  0.0236
 5462TIP3   OH240580   6.069   7.205  12.880  0.2001  0.0995  0.1681
 5462TIP3    H140581   6.163   7.218  12.885  0.1671  0.3400  0.1730
 5462TIP3    H240582   6.046   7.225  12.789 -0.1165  1.8896  0.6052
 5463TIP3   OH240583   6.024   8.178  12.244  0.3121 -0.3208  0.3421
 5463TIP3    H140584   5.955   8.221  12.294 -0.6015  0.7350 -1.7211
 5463TIP3    H240585   6.101   8.234  12.256  0.0855 -0.0398  0.4837
 5464TIP3   OH240586   4.221   8.081  13.489  0.4240 -0.1485 -0.2156
 5464TIP3    H140587   4.128   8.103  13.490  0.0311 -1.6237 -0.8104
 5464TIP3    H240588   4.264   8.157  13.526 -0.8647  1.2732 -1.5006
 5465TIP3   OH240589   5.640   5.863  12.507  0.1101 -0.1326 -0.2134
 5465TIP3    H140590   5.677   5.925  12.444 -1.6868 -0.1621 -1.3599
 5465TIP3    H240591   5.701   5.789  12.507  0.7597  0.3899 -1.0370
 5466TIP3   OH240592   6.093   1.236  11.713 -0.6714 -0.0259 -1.2366
 5466TIP3    H140593   6.177   1.255  11.671 -0.8102  1.5759 -0.8650
 5466TIP3    H240594   6.112   1.240  11.807 -0.8753 -1.1382 -1.1327
 5467TIP3   OH240595   8.046   5.276  11.780 -0.1109  0.2302 -0.3996
 5467TIP3    H140596   8.119   5.304  11.836 -0.9559 -0.7676  1.2708
 5467TIP3    H240597   8.043   5.181  11.789 -1.7515  0.2672 -0.2477
 5468TIP3   OH240598   3.059   2.899  11.911 -0.0184 -0.1835  0.1025
 5468TIP3    H140599   3.086   2.834  11.976  0.6381  1.0853  1.1493
 5468TIP3    H240600   2.964   2.904  11.921  0.2234  1.1966  2.1963
 5469TIP3   OH240601   8.110   4.458  13.310  0.4100 -0.2543  0.1456
 5469TIP3    H140602   8.138   4.368  13.324 -0.2639 -0.6604 -0.9341
 5469TIP3    H240603   8.029   4.450  13.259  0.7595  0.9709 -0.6423
 5470TIP3   OH240604   5.951   0.533  12.207 -0.4907  0.1075  0.7350
 5470TIP3    H140605   5.954   0.607  12.147  0.6580 -1.4870 -1.2870
 5470TIP3    H240606   5.860   0.506  12.207 -0.6888  0.7531  0.5421
 5471TIP3   OH240607   5.143   0.873  11.814  0.1614  0.4107 -0.7133
 5471TIP3    H140608   5.189   0.863  11.897  0.8490 -0.8863 -1.2164
 5471TIP3    H240609   5.063   0.921  11.836  0.6918  0.7495  0.5552
 5472TIP3   OH240610   2.622   2.134  13.818 -0.3625 -1.0247  0.1822
 5472TIP3    H140611   2.672   2.189  13.880  1.1625 -2.1291 -0.0096
 5472TIP3    H240612   2.659   2.047  13.829 -2.0736 -1.8345 -0.2342
 5473TIP3   OH240613   2.090   7.649  12.765 -0.3209 -0.0482  0.0020
 5473TIP3    H140614   2.117   7.710  12.696 -0.3835  0.7066  0.6263
 5473TIP3    H240615   2.048   7.705  12.831  0.1153 -0.7011  0.8470
 5474TIP3   OH240616   7.178   3.787  11.921  0.1666 -0.2321  0.1662
 5474TIP3    H140617   7.266   3.817  11.943 -0.6680  2.4815  0.2522
 5474TIP3    H240618   7.136   3.772  12.006 -0.2033  1.0336  0.2286
 5475TIP3   OH240619   5.346   0.515  11.630 -0.4485  0.5315 -0.0742
 5475TIP3    H140620   5.281   0.454  11.594  1.0370  0.0750 -2.2184
 5475TIP3    H240621   5.299   0.597  11.639 -1.6733 -0.1189 -0.2597
 5476TIP3   OH240622   7.373   4.626  11.864 -0.2517 -0.9302  0.1132
 5476TIP3    H140623   7.290   4.590  11.895 -0.6232 -0.0638  0.1544
 5476TIP3    H240624   7.375   4.715  11.900  0.6580 -0.9184  0.0463
 5477TIP3   OH240625   1.296   7.588  13.004  0.2247  0.6936  0.1069
 5477TIP3    H140626   1.318   7.618  13.092  1.8522  2.2354 -0.7583
 5477TIP3    H240627   1.380   7.570  12.963 -0.5508 -2.9476 -0.2720
 5478TIP3   OH240628   1.376   1.299  12.497  0.1248 -0.0221 -0.0406
 5478TIP3    H140629   1.350   1.320  12.587  1.1851 -1.8548  0.7359
 5478TIP3    H240630   1.364   1.205  12.490  0.6706 -0.0004 -1.6300
 5479TIP3   OH240631   3.601   4.513  11.911 -0.2157 -0.1762 -0.3433
 5479TIP3    H140632   3.611   4.468  11.827 -2.6045  0.0186 -0.8110
 5479TIP3    H240633   3.653   4.593  11.902  4.0350 -2.5584  0.4743
 5480TIP3   OH240634   2.218   2.677  12.956  0.3660 -0.3065  0.1564
 5480TIP3    H140635   2.278   2.610  12.924 -0.8705 -1.8625  0.9623
 5480TIP3    H240636   2.248   2.696  13.045  0.1724 -0.4700  0.2572
 5481TIP3   OH240637   5.786   5.571  14.037 -0.5548  0.5936 -0.0360
 5481TIP3    H140638   5.812   5.601  13.951  0.6790 -0.1208  0.0597
 5481TIP3    H240639   5.698   5.536  14.025 -1.5033  2.9409 -0.4036
 5482TIP3   OH240640   7.347   2.296  12.402 -0.1052 -0.1798  0.5289
 5482TIP3    H140641   7.365   2.357  12.330  0.1807  1.1895  1.7205
 5482TIP3    H240642   7.309   2.220  12.359 -1.2551  1.1534 -0.9512
 5483TIP3   OH240643   2.691   3.974  13.056  0.1797 -0.2607 -0.3599
 5483TIP3    H140644   2.595   3.974  13.055  0.1796 -0.4955 -1.1022
 5483TIP3    H240645   2.716   3.953  12.966  0.9345  1.9855 -0.7437
 5484TIP3   OH240646   6.585   5.034  12.272  0.4055  0.1863 -0.3038
 5484TIP3    H140647   6.572   4.991  12.188 -0.2630  0.4500 -0.3437
 5484TIP3    H240648   6.501   5.027  12.316  0.7365  0.0966  0.3259
 5485TIP3   OH240649   4.048   3.236  12.282 -0.3702  0.3487 -0.1699
 5485TIP3    H140650   4.080   3.167  12.224  0.6366  1.6219 -1.1614
 5485TIP3    H240651   4.127   3.268  12.327 -1.0259 -0.1084  1.3804
 5486TIP3   OH240652   8.316   1.944  12.860  0.3661  0.3006  0.4897
 5486TIP3    H140653   8.350   1.855  12.850 -1.4473 -0.3340 -0.8740
 5486TIP3    H240654   8.330   1.966  12.952  1.5018 -1.1034  0.6870
 5487TIP3   OH240655   4.569   0.712  13.444 -0.6332 -0.2963 -0.4680
 5487TIP3    H140656   4.636   0.706  13.377 -1.8608 -0.2239 -1.7516
 5487TIP3    H240657   4.573   0.802  13.475 -0.0068 -0.3542 -0.3645
 5488TIP3   OH240658   2.835   3.375  13.117 -0.3044  0.2243  0.1451
 5488TIP3    H140659   2.805   3.430  13.045 -0.0542 -1.2793 -1.1769
 5488TIP3    H240660   2.929   3.365  13.102 -0.1675  0.2583  0.9452
 5489TIP3   OH240661   8.214   0.544  12.809  0.0528  0.7394 -0.2906
 5489TIP3    H140662   8.198   0.466  12.756  0.6591 -0.2408  0.9235
 5489TIP3    H240663   8.130   0.562  12.851  0.1143  0.2620  0.0411
 5490TIP3   OH240664   4.570   6.146  11.782  0.1142 -0.0120 -0.3473
 5490TIP3    H140665   4.492   6.158  11.836  0.1254 -1.3496  0.0098
 5490TIP3    H240666   4.643   6.162  11.842  0.1408  1.3604 -0.7106
 5491TIP3   OH240667   4.430   1.607  12.224 -0.4704  0.1796 -0.3378
 5491TIP3    H140668   4.473   1.542  12.168  0.5282 -0.7100  1.3910
 5491TIP3    H240669   4.339   1.579  12.227 -0.3779 -0.2021 -0.8979
 5492TIP3   OH240670   6.733   6.004  12.820  0.0190  0.2254  0.2852
 5492TIP3    H140671   6.761   6.091  12.849 -2.2035  0.9462  0.4180
 5492TIP3    H240672   6.775   5.993  12.735  1.3525  0.8511  0.8153
 5493TIP3   OH240673   0.241   1.669  13.614 -0.3555  0.0067  0.5627
 5493TIP3    H140674   0.157   1.715  13.615 -1.5265 -2.0378  0.7987
 5493TIP3    H240675   0.256   1.644  13.705  0.6845  0.6340  0.5748
 5494TIP3   OH240676   7.096   7.627  13.303 -0.8489  0.0013  0.2771
 5494TIP3    H140677   7.146   7.585  13.373 -1.1088 -1.4507 -0.3802
 5494TIP3    H240678   7.023   7.670  13.347 -1.7122 -1.9312  0.8224
 5495TIP3   OH240679   0.026   5.035  12.668  0.1733  0.1415  0.0769
 5495TIP3    H140680  -0.033   5.103  12.636 -0.5016 -0.7690 -0.6686
 5495TIP3    H240681   0.108   5.051  12.621  0.4957  1.3021  0.9842
 5496TIP3   OH240682   7.621   3.323  12.135  0.4533  0.3342 -0.5731
 5496TIP3    H140683   7.617   3.331  12.040  1.5476 -1.5356 -0.8315
 5496TIP3    H240684   7.534   3.348  12.166  0.1679  1.2156 -2.0317
 5497TIP3   OH240685   1.496   0.745  12.335 -0.4675 -0.6898  0.4500
 5497TIP3    H140686   1.493   0.742  12.430 -0.6636 -0.8464  0.4412
 5497TIP3    H240687   1.565   0.683  12.311  1.4502  1.3141  0.5819
 5498TIP3   OH240688   4.449   4.526  13.436 -0.2420 -0.1274 -0.3791
 5498TIP3    H140689   4.449   4.485  13.522 -1.0608 -1.8652 -1.1596
 5498TIP3    H240690   4.435   4.619  13.453 -0.4874 -0.4578  1.3468
 5499TIP3   OH240691   3.716   2.469  14.245 -0.2068  0.3570 -0.3463
 5499TIP3    H140692   3.668   2.396  14.284 -1.5555  0.0043 -2.5354
 5499TIP3    H240693   3.665   2.494  14.168  0.4171  3.3780  0.0871
 5500TIP3   OH240694   1.216   2.314  12.804 -0.7737  0.1686  0.0383
 5500TIP3    H140695   1.194   2.290  12.714  0.1210  0.8932 -0.3867
 5500TIP3    H240696   1.182   2.403  12.815 -0.8853  0.0815  0.4266
 5501TIP3   OH240697   8.092   0.646  11.646  0.3687  0.4745  0.0675
 5501TIP3    H140698   8.077   0.739  11.662  0.4192  0.3535  0.8291
 5501TIP3    H240699   8.041   0.626  11.567  0.9783  1.3248 -0.5576
 5502TIP3   OH240700   1.752   2.576  13.613  0.0631 -0.0940  0.2333
 5502TIP3    H140701   1.738   2.593  13.520  0.9702 -0.1060  0.0816
 5502TIP3    H240702   1.821   2.639  13.638  0.7799 -0.9914  0.5679
 5503TIP3   OH240703   5.356   1.217  11.994  0.0515  0.4363  0.1207
 5503TIP3    H140704   5.316   1.289  12.043  0.8371  0.5635  0.5960
 5503TIP3    H240705   5.439   1.253  11.961  1.1112 -0.6212  1.4938
 5504TIP3   OH240706   3.018   8.275  12.534 -0.1286 -0.5891  0.3406
 5504TIP3    H140707   2.965   8.302  12.459 -0.9266  1.7479  1.6515
 5504TIP3    H240708   2.965   8.296  12.611  1.3266 -1.3610  1.6226
 5505TIP3   OH240709   6.107   5.974  12.168  0.3016 -0.4398 -0.5605
 5505TIP3    H140710   6.169   5.992  12.097  0.2423  2.9854  0.0831
 5505TIP3    H240711   6.120   6.045  12.230 -0.0273 -2.9974  2.6984
 5506TIP3   OH240712   3.907   7.260  13.144  0.4761  0.4602 -0.7961
 5506TIP3    H140713   3.892   7.242  13.052  0.2765 -0.4155 -0.5987
 5506TIP3    H240714   3.961   7.187  13.175  0.2844  0.5850 -0.1475
 5507TIP3   OH240715   0.848   7.583  12.208 -0.3624 -0.3352 -0.2750
 5507TIP3    H140716   0.787   7.534  12.263 -2.8096 -0.9926 -3.2409
 5507TIP3    H240717   0.846   7.672  12.243  0.4326 -1.2640  2.3150
 5508TIP3   OH240718   8.314   2.059  11.680  0.1347  0.5665 -0.3448
 5508TIP3    H140719   8.303   2.012  11.597 -0.3375 -0.4633  0.2783
 5508TIP3    H240720   8.408   2.068  11.690  0.3623 -2.0151  0.4364
 5509TIP3   OH240721   7.513   7.135  13.070 -0.1153  0.5179 -0.5559
 5509TIP3    H140722   7.485   7.160  13.158  0.4518  0.8638 -0.4679
 5509TIP3    H240723   7.503   7.039  13.068 -1.3307  0.6302 -0.5554
 5510TIP3   OH240724   0.622   1.544  12.497  0.1368  0.5170  0.2274
 5510TIP3    H140725   0.713   1.516  12.497  0.6707  2.0723 -1.2047
 5510TIP3    H240726   0.612   1.596  12.576  1.0053  1.7514 -0.4431
 5511TIP3   OH240727   5.685   4.370  12.207 -0.2801 -0.0872 -0.3967
 5511TIP3    H140728   5.599   4.332  12.190 -0.4564 -0.6991  1.5469
 5511TIP3    H240729   5.712   4.409  12.124 -1.4129 -1.8746 -1.6660
 5512TIP3   OH240730   0.441   6.600  13.813 -0.3035 -0.0521  0.2697
 5512TIP3    H140731   0.368   6.545  13.842 -0.3933  0.3970  0.9176
 5512TIP3    H240732   0.496   6.541  13.761 -0.9889 -0.4602 -0.0117
 5513TIP3   OH240733   3.896   1.521  13.533  0.0964  0.1420 -0.3989
 5513TIP3    H140734   3.991   1.528  13.534  0.1344 -0.1483  1.4593
 5513TIP3    H240735   3.879   1.435  13.494  0.5220  0.6872 -1.8334
 5514TIP3   OH240736   7.591   3.024  12.062 -0.0920 -0.3064  0.1888
 5514TIP3    H140737   7.520   3.032  12.125  1.3011  1.7794  1.6343
 5514TIP3    H240738   7.550   3.038  11.977 -1.7305 -1.4673  0.7443
 5515TIP3   OH240739   5.562   6.790  11.971 -0.3091 -0.0675  0.3606
 5515TIP3    H140740   5.537   6.752  11.887 -0.0260  0.7743 -0.1116
 5515TIP3    H240741   5.483   6.834  12.002 -0.6439 -1.0272  0.9187
 5516TIP3   OH240742   7.318   8.102  12.368 -0.0334  0.0893 -0.5998
 5516TIP3    H140743   7.407   8.117  12.399  0.8898 -1.9772 -2.0256
 5516TIP3    H240744   7.262   8.133  12.440  1.8448  0.2906  0.8608
 5517TIP3   OH240745   7.733   4.153  18.685  0.2733 -0.2763  0.1437
 5517TIP3    H140746   7.785   4.145  18.766 -0.3900 -1.7463  0.4551
 5517TIP3    H240747   7.723   4.063  18.655  0.5633  0.2578 -1.6451
 5518TIP3   OH240748   7.853   5.445  11.827  0.2589  0.5736  0.2886
 5518TIP3    H140749   7.789   5.434  11.756  1.5291  0.0228 -0.8282
 5518TIP3    H240750   7.923   5.384  11.805  1.3531  1.4442  1.2511
 5519TIP3   OH240751   7.541   4.695  13.014  0.2621 -0.2834 -0.4110
 5519TIP3    H140752   7.543   4.607  12.977  0.6425 -0.7609  0.6981
 5519TIP3    H240753   7.517   4.682  13.106 -2.9012  1.0483 -0.9337
 5520TIP3   OH240754   6.409   5.494  12.502 -0.2909 -0.6703  0.8014
 5520TIP3    H140755   6.340   5.455  12.449  0.5703  0.2665 -1.1028
 5520TIP3    H240756   6.488   5.445  12.478  0.2258  0.1698  0.7623
 5521TIP3   OH240757   5.574   0.980  12.157 -0.2329 -0.7035  0.3577
 5521TIP3    H140758   5.570   0.994  12.062  0.0005 -0.4740  0.3805
 5521TIP3    H240759   5.483   0.967  12.183 -0.6097  1.8063  0.4922
 5522TIP3   OH240760   2.655   1.257  13.110  0.1654 -0.4646 -0.1888
 5522TIP3    H140761   2.731   1.228  13.059  1.2868  1.3080  0.4066
 5522TIP3    H240762   2.670   1.220  13.197 -0.6563 -1.6861 -0.5348
 5523TIP3   OH240763   7.787   8.253  11.734 -0.2081 -0.2458 -0.6079
 5523TIP3    H140764   7.882   8.251  11.720  0.3453 -1.2213  2.4248
 5523TIP3    H240765   7.766   8.166  11.770 -1.9484  0.4944  0.2961
 5524TIP3   OH240766   7.419   0.384  12.473  0.3605  0.3726  0.3327
 5524TIP3    H140767   7.349   0.362  12.412  0.9404  1.9169 -0.9552
 5524TIP3    H240768   7.433   0.478  12.461  2.5338  0.1451  0.6603
 5525TIP3   OH240769   8.387   8.291  13.006  0.4536  0.5001 -0.3589
 5525TIP3    H140770   8.441   8.356  13.050  1.3912  0.2071 -1.0383
 5525TIP3    H240771   8.303   8.293  13.053  0.7592  1.5677  0.1740
 5526TIP3   OH240772   5.685   2.439  12.288 -0.0793  0.7551  0.2086
 5526TIP3    H140773   5.604   2.489  12.279  1.3325  2.8810 -2.1057
 5526TIP3    H240774   5.661   2.350  12.263 -1.9646  0.9742  1.0397
 5527TIP3   OH240775   0.967   7.966  11.599 -0.3321  0.1083 -0.1429
 5527TIP3    H140776   0.890   7.909  11.600  0.3538 -0.9802  2.5802
 5527TIP3    H240777   1.038   7.910  11.632  0.9555  1.8624  0.2121
 5528TIP3   OH240778   5.972   3.307  12.206  0.2084 -0.2266 -0.3989
 5528TIP3    H140779   5.971   3.382  12.147  0.6508 -0.4349 -0.6732
 5528TIP3    H240780   5.879   3.287  12.220 -0.0127  1.7507  1.4673
 5529TIP3   OH240781   6.947   3.226  17.355 -0.0241  0.2709 -0.2300
 5529TIP3    H140782   7.032   3.201  17.318  0.7581  2.5740 -0.1612
 5529TIP3    H240783   6.967   3.299  17.414 -1.7888 -0.6369  1.6217
 5530TIP3   OH240784   2.852   6.517  11.959 -0.1011  0.5033  0.5277
 5530TIP3    H140785   2.921   6.563  11.911  0.8711 -0.0601  1.3460
 5530TIP3    H240786   2.894   6.437  11.992 -1.4514 -0.4193  0.0943
 5531TIP3   OH240787   6.932   5.341  13.096  0.7583  0.0506 -0.2439
 5531TIP3    H140788   6.850   5.290  13.098  1.4437 -1.2585 -2.2961
 5531TIP3    H240789   6.911   5.418  13.044  0.6928 -0.0203 -0.3235
 5532TIP3   OH240790   5.598   0.525  12.844 -0.0803 -0.2452  0.0210
 5532TIP3    H140791   5.620   0.481  12.762 -1.8611 -0.9497 -0.1252
 5532TIP3    H240792   5.644   0.474  12.911  0.7420 -0.1451 -0.4538
 5533TIP3   OH240793   3.445   0.809  13.618 -0.4153 -0.0254  0.0753
 5533TIP3    H140794   3.382   0.756  13.570 -0.2739  1.5061 -1.9085
 5533TIP3    H240795   3.434   0.782  13.709  0.9138 -4.8210 -0.8747
 5534TIP3   OH240796   4.248   6.381  11.506  0.1354  0.0426 -0.0593
 5534TIP3    H140797   4.318   6.407  11.566 -0.4473 -1.3873  1.3356
 5534TIP3    H240798   4.192   6.324  11.559  0.1521 -2.1699 -2.2374
 5535TIP3   OH240799   7.882   6.130  11.480 -0.0102  0.1394 -0.6872
 5535TIP3    H140800   7.938   6.054  11.465 -0.3662 -0.3291  0.3143
 5535TIP3    H240801   7.941   6.195  11.519  0.2130  0.2558 -1.2107
 5536TIP3   OH240802   0.481   0.754  12.746  0.4666 -0.2844 -0.0617
 5536TIP3    H140803   0.432   0.751  12.664 -0.5879 -0.8060  0.5702
 5536TIP3    H240804   0.477   0.665  12.780 -0.4232  0.2585  1.3051
 5537TIP3   OH240805   4.296   2.945  12.525  0.4800  0.8795  0.8075
 5537TIP3    H140806   4.323   3.026  12.483  0.1336  1.5924  1.9161
 5537TIP3    H240807   4.214   2.921  12.481  1.0815  0.5951 -0.1786
 5538TIP3   OH240808   7.647   1.586  13.004 -0.3462 -0.6087  0.2313
 5538TIP3    H140809   7.627   1.649  12.935  0.9321 -0.5272 -0.0999
 5538TIP3    H240810   7.741   1.567  12.993 -0.7600 -2.9176  0.0286
 5539TIP3   OH240811   1.427   5.846  11.801 -0.4458 -0.8667  0.0479
 5539TIP3    H140812   1.480   5.770  11.777 -0.1275 -0.7629  0.4143
 5539TIP3    H240813   1.381   5.819  11.880  2.7223  0.6244  2.6432
 5540TIP3   OH240814   6.201   7.000  12.652 -0.6242 -0.2231  0.0567
 5540TIP3    H140815   6.231   7.038  12.569  0.4954 -1.2136 -0.0272
 5540TIP3    H240816   6.106   6.993  12.643 -0.6831  1.1036 -0.5170
 5541TIP3   OH240817   4.165   8.204  12.935 -0.0080 -0.1026  0.3810
 5541TIP3    H140818   4.208   8.190  13.020  1.0983 -0.2697 -0.1935
 5541TIP3    H240819   4.121   8.120  12.918 -0.4504  0.0154  0.8984
 5542TIP3   OH240820   0.452   4.917  11.688  0.3179  0.0173 -0.2463
 5542TIP3    H140821   0.441   4.823  11.702 -0.1808  0.3187  1.6429
 5542TIP3    H240822   0.365   4.947  11.659  0.9815 -0.3656 -2.9496
 5543TIP3   OH240823   6.965   6.610  13.517 -0.3086  0.6506 -0.0401
 5543TIP3    H140824   7.028   6.587  13.585 -0.3510 -0.4563 -0.3482
 5543TIP3    H240825   6.997   6.563  13.439 -1.6036 -0.1004 -0.1471
 5544TIP3   OH240826   6.682   6.667  13.445 -0.4568 -0.4918  0.6806
 5544TIP3    H140827   6.778   6.662  13.437 -0.6148 -1.7581 -1.2438
 5544TIP3    H240828   6.663   6.759  13.460  1.0008  0.0818 -0.6927
 5545TIP3   OH240829   6.746   8.321  11.708 -0.3840 -0.1301  0.8311
 5545TIP3    H140830   6.737   8.234  11.670  0.3620 -0.8246  2.1421
 5545TIP3    H240831   6.837   8.324  11.738 -0.9405  0.3002  2.6260
 5546TIP3   OH240832   7.929   4.745  11.724 -0.0859 -0.2166 -0.4961
 5546TIP3    H140833   7.929   4.682  11.796  0.4935  1.3478  0.9265
 5546TIP3    H240834   7.954   4.693  11.647 -0.0381 -1.7945  0.5335
 5547TIP3   OH240835   2.566   3.875  12.201  0.3781  0.2525  0.0206
 5547TIP3    H140836   2.479   3.907  12.177  0.7874  0.2215 -1.6426
 5547TIP3    H240837   2.626   3.931  12.152  1.2109 -1.1282 -0.5804
 5548TIP3   OH240838   2.406   2.730  11.615  0.0541  0.2587  0.0976
 5548TIP3    H140839   2.354   2.772  11.683 -0.2958  0.1569 -0.1067
 5548TIP3    H240840   2.465   2.799  11.584 -0.4473  0.5700 -0.1650
 5549TIP3   OH240841   4.931   0.389  12.432 -0.4209 -0.1240  0.1962
 5549TIP3    H140842   4.853   0.402  12.486  0.3236  0.1792  1.2246
 5549TIP3    H240843   4.987   0.332  12.485  0.6707  0.8330  0.1079
 5550TIP3   OH240844   0.629   6.628  13.546  0.1668  0.1793 -0.3005
 5550TIP3    H140845   0.556   6.591  13.497 -0.0389 -1.4689  1.1418
 5550TIP3    H240846   0.643   6.567  13.618  1.9013  1.3308  0.4149
 5551TIP3   OH240847   5.210   2.729  13.092 -0.2397  0.4143  0.5349
 5551TIP3    H140848   5.184   2.801  13.034 -1.2637 -1.5993 -1.6491
 5551TIP3    H240849   5.127   2.694  13.124  0.1607 -0.7975  0.2705
 5552TIP3   OH240850   6.503   3.077  13.011 -0.0055  0.0191  0.2221
 5552TIP3    H140851   6.428   3.136  13.020 -2.3405 -2.9319  1.7927
 5552TIP3    H240852   6.565   3.107  13.078 -0.8372  1.0541  0.5631
 5553TIP3   OH240853   6.143   1.574  13.091  0.2279  0.0094 -0.3506
 5553TIP3    H140854   6.062   1.531  13.115 -0.4709  0.5745 -1.6212
 5553TIP3    H240855   6.199   1.504  13.058  0.0237 -0.2819 -0.0865
 5554TIP3   OH240856   2.128   1.456  11.706 -0.3654  0.0350  0.2268
 5554TIP3    H140857   2.124   1.365  11.736 -1.9871 -0.1915 -0.5851
 5554TIP3    H240858   2.036   1.480  11.691  0.0483  1.7733  0.3085
 5555TIP3   OH240859   2.255   5.666  13.120 -0.2318 -0.3735 -0.5455
 5555TIP3    H140860   2.190   5.597  13.137 -1.8309  0.4462 -2.8041
 5555TIP3    H240861   2.312   5.665  13.197 -1.1555 -3.1056  0.2355
 5556TIP3   OH240862   4.715   2.957  12.233 -0.5176 -0.0156  0.0261
 5556TIP3    H140863   4.639   3.002  12.196  0.6332  1.3912 -0.7131
 5556TIP3    H240864   4.784   2.968  12.168  0.4261 -0.9543  0.8364
 5557TIP3   OH240865   2.087   3.684  13.535 -0.0467 -0.5059 -0.4182
 5557TIP3    H140866   2.131   3.661  13.616  0.0819  0.8275 -0.0824
 5557TIP3    H240867   2.130   3.765  13.507 -0.5264 -0.5982 -1.4714
 5558TIP3   OH240868   0.640   8.042  11.628 -0.4722  0.1845 -0.1870
 5558TIP3    H140869   0.556   8.071  11.662 -0.7917  0.9156 -1.5323
 5558TIP3    H240870   0.645   7.949  11.651 -1.3584  0.2841  0.4426
 5559TIP3   OH240871   3.580   1.708  13.330  0.0087  0.1807 -0.1583
 5559TIP3    H140872   3.493   1.722  13.368 -0.1455 -0.3823 -0.2938
 5559TIP3    H240873   3.628   1.661  13.399  0.4162  1.0616  0.1684
 5560TIP3   OH240874   1.172   1.256  13.292 -0.8671  0.0153  0.3039
 5560TIP3    H140875   1.198   1.291  13.377  1.1126  0.8256 -0.5606
 5560TIP3    H240876   1.244   1.198  13.267 -0.8124  0.7359 -1.3271
 5561TIP3   OH240877   7.822   1.531  13.690 -0.0807 -0.1520  0.0025
 5561TIP3    H140878   7.798   1.620  13.714 -1.0512 -0.2863 -0.4162
 5561TIP3    H240879   7.827   1.532  13.594  1.3517 -0.1987  0.0649
 5562TIP3   OH240880   2.007   0.488  11.936 -0.4052 -0.1433  0.4967
 5562TIP3    H140881   1.986   0.574  11.899  0.1709  0.1166  0.7572
 5562TIP3    H240882   1.988   0.496  12.029  3.4431  1.0813  1.3851
 5563TIP3   OH240883   7.372   7.627  13.208 -0.0901 -0.6675 -0.2101
 5563TIP3    H140884   7.419   7.616  13.291 -1.2911  1.6096  0.8562
 5563TIP3    H240885   7.280   7.612  13.230 -0.3763 -0.4807 -1.2330
 5564TIP3   OH240886   3.169   5.578  13.436  0.2541 -0.5991 -0.3962
 5564TIP3    H140887   3.151   5.640  13.505  0.0011 -1.9164  0.7690
 5564TIP3    H240888   3.257   5.600  13.406  0.2911  0.1021  0.2138
 5565TIP3   OH240889   3.755   1.203  12.162  0.2850 -0.2597 -0.6019
 5565TIP3    H140890   3.720   1.114  12.162 -1.1068  0.2461  0.6562
 5565TIP3    H240891   3.702   1.249  12.096  0.1615 -0.0640 -0.3660
 5566TIP3   OH240892   3.411   6.258  13.025  0.2980 -0.0618 -0.1485
 5566TIP3    H140893   3.472   6.216  12.965  0.6609 -0.2526  0.3457
 5566TIP3    H240894   3.417   6.207  13.105 -1.2147 -0.6535 -0.3819
 5567TIP3   OH240895   1.960   8.332  12.517 -0.2187  0.3079 -0.2912
 5567TIP3    H140896   2.050   8.345  12.549  0.5024  0.6936 -2.3540
 5567TIP3    H240897   1.912   8.300  12.594  1.5756  0.4741  0.9619
 5568TIP3   OH240898   3.782   7.731  11.941 -0.4943  0.1619 -0.3218
 5568TIP3    H140899   3.741   7.685  12.013 -0.5166 -1.0892 -1.0979
 5568TIP3    H240900   3.865   7.684  11.926  0.8155  2.0546  0.6118
 5569TIP3   OH240901   2.206   8.127  12.487  0.1207 -0.1147 -0.4791
 5569TIP3    H140902   2.292   8.093  12.464  0.5997  0.4368  0.4455
 5569TIP3    H240903   2.217   8.222  12.487 -0.7397  0.0039 -1.2801
 5570TIP3   OH240904   1.756   5.043  11.774  0.3853  0.2070  0.0484
 5570TIP3    H140905   1.677   4.992  11.791  1.1723 -0.7547  0.9221
 5570TIP3    H240906   1.732   5.132  11.802 -0.2098 -0.1884  0.8628
 5571TIP3   OH240907   2.455   2.713  12.705  0.2108 -0.1399  0.2750
 5571TIP3    H140908   2.409   2.639  12.744  0.2181 -0.8594 -1.0149
 5571TIP3    H240909   2.491   2.678  12.623  0.1489  1.3030 -0.4035
 5572TIP3   OH240910   3.223   3.182  13.025  0.7602  0.1940  0.3785
 5572TIP3    H140911   3.318   3.180  13.025  0.7628  0.1436 -0.0659
 5572TIP3    H240912   3.200   3.269  13.056  0.9333 -0.1221  1.4311
 5573TIP3   OH240913   0.356   1.253  12.755 -0.0270  0.1683 -0.2646
 5573TIP3    H140914   0.290   1.204  12.804  1.3241 -0.2576  1.2117
 5573TIP3    H240915   0.397   1.187  12.699  0.1962  0.0870 -0.0110
 5574TIP3   OH240916   7.865   4.008  12.689  0.1269 -0.3446 -0.3077
 5574TIP3    H140917   7.933   3.953  12.728  1.3076  1.3080  0.0514
 5574TIP3    H240918   7.834   4.063  12.761 -0.1969  0.2883 -0.9254
 5575TIP3   OH240919   6.487   7.516  12.171 -0.3805  0.1748 -0.2378
 5575TIP3    H140920   6.572   7.483  12.199 -1.1766 -2.8781 -1.0543
 5575TIP3    H240921   6.481   7.494  12.078 -1.5806  1.4257 -0.4912
 5576TIP3   OH240922   6.944   0.988  11.717 -0.7697 -0.6292 -0.2772
 5576TIP3    H140923   6.941   0.898  11.685  0.7256 -0.5553 -0.6966
 5576TIP3    H240924   6.872   0.993  11.781 -0.2079 -2.4314  0.5714
 5577TIP3   OH240925   3.912   3.406  11.753  0.6982 -0.6988 -0.4445
 5577TIP3    H140926   4.004   3.433  11.741  1.7720 -3.8477 -0.2521
 5577TIP3    H240927   3.914   3.352  11.832 -2.0490  1.7639  1.5238
 5578TIP3   OH240928   3.260   2.156  11.784  0.4767 -0.1371  0.2812
 5578TIP3    H140929   3.211   2.111  11.715  1.4533 -0.3102 -0.3163
 5578TIP3    H240930   3.276   2.243  11.749  0.1935  0.0752  0.6732
 5579TIP3   OH240931   3.629   3.516  12.082 -0.5634  0.4916 -0.2253
 5579TIP3    H140932   3.651   3.553  11.996 -0.3996 -0.8581 -0.7893
 5579TIP3    H240933   3.636   3.422  12.070  0.9667  0.3024  1.7027
 5580TIP3   OH240934   3.170   6.906  12.132 -0.2676 -0.5192  0.0286
 5580TIP3    H140935   3.230   6.914  12.057  0.5891 -1.3089  0.6053
 5580TIP3    H240936   3.140   6.995  12.148 -0.9736 -0.4231 -1.6470
 5581TIP3   OH240937   7.181   1.445  12.441 -0.2149 -0.0358  0.4438
 5581TIP3    H140938   7.250   1.510  12.457 -1.1068  0.8320  0.8451
 5581TIP3    H240939   7.229   1.365  12.420  0.9609  1.3466 -2.8145
 5582TIP3   OH240940   5.202   7.767  11.895  0.2624  0.2325 -0.2097
 5582TIP3    H140941   5.236   7.728  11.976 -0.1690 -3.0333 -1.4382
 5582TIP3    H240942   5.273   7.758  11.832 -0.6868 -0.9446 -1.1728
 5583TIP3   OH240943   4.403   7.980  11.504  0.4808  0.1630 -0.5351
 5583TIP3    H140944   4.335   7.935  11.454  0.8548  2.5437 -3.4930
 5583TIP3    H240945   4.355   8.030  11.570 -0.0371 -2.9716  1.6767
 5584TIP3   OH240946   2.833   5.330  11.501  0.0977  0.1189  0.0405
 5584TIP3    H140947   2.828   5.235  11.488 -0.7929  0.2351 -0.5305
 5584TIP3    H240948   2.927   5.347  11.515  0.3229 -0.7833 -0.2955
 5585TIP3   OH240949   7.881   5.215  12.304  0.3133  0.8147 -0.1839
 5585TIP3    H140950   7.787   5.197  12.296  0.5012 -0.9143  0.8242
 5585TIP3    H240951   7.896   5.292  12.250 -1.3625  0.0408 -1.8509
 5586TIP3   OH240952   0.750   4.926  11.611  0.4634 -0.0465  0.1400
 5586TIP3    H140953   0.754   4.830  11.608  0.7974 -0.0298  0.0313
 5586TIP3    H240954   0.659   4.945  11.634  0.3974 -0.3900  0.1752
 5587TIP3   OH240955   0.367   7.400  13.618 -0.9830 -0.3311  0.0327
 5587TIP3    H140956   0.288   7.440  13.654 -0.7651  2.3729 -2.1275
 5587TIP3    H240957   0.338   7.361  13.535 -0.0023  1.5505 -1.2749
 5588TIP3   OH240958   0.370   8.081  11.766 -0.6163 -0.4967 -0.2500
 5588TIP3    H140959   0.347   8.170  11.740  2.7381  0.7549  0.5473
 5588TIP3    H240960   0.288   8.033  11.763 -2.5520  2.5845 -0.8177
 5589TIP3   OH240961   6.238   7.646  11.325  0.1788 -0.1439  0.2331
 5589TIP3    H140962   6.331   7.648  11.303  0.5567 -0.3837  1.7267
 5589TIP3    H240963   6.217   7.552  11.330  0.1610 -0.0988  1.0808
 5590TIP3   OH240964   1.779   4.809  12.786 -0.5798  0.0813 -0.7605
 5590TIP3    H140965   1.756   4.788  12.876  0.2602 -0.1316 -0.5913
 5590TIP3    H240966   1.697   4.795  12.737 -0.8602 -0.4869 -0.1464
 5591TIP3   OH240967   2.957   5.015  11.852 -0.1458 -0.1099 -0.0021
 5591TIP3    H140968   2.932   4.937  11.902 -0.4340 -0.2104 -0.3001
 5591TIP3    H240969   2.877   5.041  11.806  0.6847 -1.5041 -2.4376
 5592TIP3   OH240970   4.738   5.682  11.703  0.5433  0.2848 -0.2558
 5592TIP3    H140971   4.757   5.595  11.668  0.6256  1.4056 -3.2388
 5592TIP3    H240972   4.811   5.737  11.674  0.1475  1.5153  0.9750
 5593TIP3   OH240973   0.234   7.386  12.870 -0.0330  0.6295  0.1684
 5593TIP3    H140974   0.266   7.304  12.833  1.1528  1.8238 -1.5775
 5593TIP3    H240975   0.291   7.454  12.834 -2.2723  2.4856 -0.1740
 5594TIP3   OH240976   2.589   3.829  11.924  0.1030 -0.2169 -0.5256
 5594TIP3    H140977   2.650   3.901  11.939  1.0307 -1.4378  2.3069
 5594TIP3    H240978   2.503   3.864  11.949  0.4889  0.0101  0.5050
 5595TIP3   OH240979   2.022   2.660  12.473 -0.3852 -0.1204  0.3937
 5595TIP3    H140980   2.062   2.746  12.462  0.2963 -0.3946  0.7344
 5595TIP3    H240981   2.087   2.598  12.439  0.0795 -0.6781  2.2247
 5596TIP3   OH240982   5.194   1.225  13.105  0.2126 -0.4449  0.3528
 5596TIP3    H140983   5.170   1.287  13.036 -2.6636 -2.3203 -0.5252
 5596TIP3    H240984   5.280   1.193  13.079  0.3923  0.8787 -0.8491
 5597TIP3   OH240985   6.645   5.889  13.577 -0.4381 -0.4654  0.3776
 5597TIP3    H140986   6.712   5.830  13.608 -0.0967 -0.5378 -0.4583
 5597TIP3    H240987   6.617   5.938  13.654 -0.2516 -1.2480  0.9427
 5598TIP3   OH240988   5.489   4.048  12.818  0.5638 -0.2658  0.4675
 5598TIP3    H140989   5.475   4.142  12.831 -0.8819 -0.1532 -1.4012
 5598TIP3    H240990   5.551   4.043  12.745 -0.3667 -0.7122 -0.3207
 5599TIP3   OH240991   4.086   4.573  12.244 -0.1767  0.1707 -0.2762
 5599TIP3    H140992   4.001   4.528  12.241 -0.0986  0.0791 -1.1229
 5599TIP3    H240993   4.109   4.571  12.337 -0.5594 -0.8318 -0.1852
 5600TIP3   OH240994   5.950   7.655  11.616 -0.3834 -0.4138  0.2881
 5600TIP3    H140995   6.015   7.719  11.588  0.3279 -0.6234  1.3625
 5600TIP3    H240996   6.002   7.582  11.650 -1.1859 -1.1476 -0.0229
 5601TIP3   OH240997   0.107   7.507  12.158 -0.0573 -0.8048  0.2673
 5601TIP3    H140998   0.056   7.564  12.101  0.1425 -0.0726  0.8106
 5601TIP3    H240999   0.042   7.465  12.214 -0.3580 -2.2748 -1.1134
 5602TIP3   OH241000   3.613   6.923  12.738 -0.1461  0.2108 -0.3699
 5602TIP3    H141001   3.633   6.958  12.825  0.4313  1.3790 -0.9471
 5602TIP3    H241002   3.602   6.829  12.752  1.9978  0.0418  0.6462
 5603TIP3   OH241003   0.916   5.218  12.554 -0.1683 -0.3773  0.1551
 5603TIP3    H141004   0.978   5.221  12.481 -0.9744 -1.5672 -0.6195
 5603TIP3    H241005   0.969   5.192  12.629  0.4483 -0.4247 -0.2856
 5604TIP3   OH241006   4.092   2.849  12.369 -0.1210  0.3115  0.5241
 5604TIP3    H141007   4.086   2.764  12.413 -1.9377  0.0654 -0.1087
 5604TIP3    H241008   4.002   2.868  12.343  0.4451  1.9030 -0.3544
 5605TIP3   OH241009   4.884   3.782  13.587 -0.5969  0.3228 -0.0307
 5605TIP3    H141010   4.818   3.852  13.587 -0.5475  0.4140  2.0567
 5605TIP3    H241011   4.844   3.712  13.639 -0.7708 -1.3879 -2.3036
 5606TIP3   OH241012   2.266   1.847  12.469  0.4260 -0.1427  0.1571
 5606TIP3    H141013   2.352   1.827  12.432  0.8662  1.1283  0.4403
 5606TIP3    H241014   2.260   1.942  12.464 -1.2932 -0.2613 -0.5428
 5607TIP3   OH241015   0.759   1.751  11.983  0.6611  0.8688  0.1860
 5607TIP3    H141016   0.705   1.743  11.905  0.1279  1.9129  0.4276
 5607TIP3    H241017   0.761   1.845  12.001  2.5650  0.8838  0.1789
 5608TIP3   OH241018   0.085   0.257  11.800 -0.0525  0.0244 -0.2426
 5608TIP3    H141019   0.054   0.218  11.719  0.1350 -1.1160  0.2166
 5608TIP3    H241020   0.033   0.215  11.869  0.8535 -0.1723  0.3393
 5609TIP3   OH241021   5.731   4.882  12.009 -0.0291  0.6257 -0.2869
 5609TIP3    H141022   5.775   4.962  11.981  1.6034  0.5858  1.9560
 5609TIP3    H241023   5.787   4.811  11.977  0.1878  0.4896  0.3844
 5610TIP3   OH241024   4.170   7.082  11.491 -0.1602  0.1715  0.0480
 5610TIP3    H141025   4.113   7.101  11.565 -1.1781  0.6698 -0.8425
 5610TIP3    H241026   4.246   7.038  11.530 -1.0853 -0.3880  1.2741
 5611TIP3   OH241027   6.802   3.431  12.456 -0.0399  0.3289  0.2053
 5611TIP3    H141028   6.774   3.476  12.536 -1.8629 -1.7249  0.8145
 5611TIP3    H241029   6.784   3.338  12.473 -1.8676 -0.0672 -3.1360
 5612TIP3   OH241030   6.618   7.401  12.424  0.0167  0.2376  0.3964
 5612TIP3    H141031   6.641   7.323  12.374  0.2409 -0.6121  1.7549
 5612TIP3    H241032   6.537   7.378  12.470 -0.5776  1.2475 -0.1001
 5613TIP3   OH241033   5.402   5.091  13.347  0.5391  0.1433  0.0767
 5613TIP3    H141034   5.346   5.159  13.385 -0.9541 -0.0949 -1.5615
 5613TIP3    H241035   5.362   5.008  13.373  0.4105 -0.0396 -0.6679
 5614TIP3   OH241036   7.147   7.995  11.718 -0.0581  0.2416 -0.3481
 5614TIP3    H141037   7.133   7.937  11.793  0.3452 -0.3638 -0.7248
 5614TIP3    H241038   7.241   8.012  11.718  0.1528 -0.7622 -1.4077
 5615TIP3   OH241039   5.964   5.744  12.133 -0.1100  0.1718 -0.5704
 5615TIP3    H141040   6.014   5.825  12.142  1.0951 -0.6688  0.7816
 5615TIP3    H241041   5.969   5.723  12.040 -3.3080  3.3304 -1.6592
 5616TIP3   OH241042   6.608   1.778  11.667  0.2993  0.0772 -0.4681
 5616TIP3    H141043   6.648   1.691  11.662  1.0158  0.3200  0.6176
 5616TIP3    H241044   6.680   1.839  11.648 -0.2115  0.4357 -1.2764
 5617TIP3   OH241045   0.998   4.515  11.440  0.4765 -0.2242  0.0339
 5617TIP3    H141046   1.009   4.428  11.477 -0.9076  0.2342  1.5892
 5617TIP3    H241047   0.995   4.500  11.345  1.7695 -1.6717  0.1803
 5618TIP3   OH241048   2.883   6.059  12.786  0.5778 -0.0699 -0.2466
 5618TIP3    H141049   2.808   6.078  12.729  1.4763  1.7815 -0.8872
 5618TIP3    H241050   2.915   6.145  12.812  2.3616 -0.8289  0.1880
 5619TIP3   OH241051   7.597   0.417  12.825  0.8171 -0.3794  0.5492
 5619TIP3    H141052   7.667   0.479  12.803  0.2924  0.6632  1.6280
 5619TIP3    H241053   7.519   0.455  12.785  0.9480 -1.9445 -1.3163
 5620TIP3   OH241054   1.943   2.412  12.270 -0.3420  0.0941 -0.6211
 5620TIP3    H141055   1.883   2.474  12.312 -2.3648 -0.7666 -2.0715
 5620TIP3    H241056   2.002   2.467  12.219  0.8619  1.0252  1.6320
 5621TIP3   OH241057   4.584   0.776  12.150  0.9205 -0.0552  0.4331
 5621TIP3    H141058   4.554   0.699  12.198  1.6424 -0.1470  0.7584
 5621TIP3    H241059   4.671   0.795  12.187  1.5378 -0.1799 -0.8906
 5622TIP3   OH241060   8.001   1.156  13.011  0.4922 -0.3220  0.1658
 5622TIP3    H141061   7.923   1.210  13.027 -0.5977 -2.0592  1.0388
 5622TIP3    H241062   8.062   1.181  13.081  0.8191  1.1645 -0.6170
 5623TIP3   OH241063   0.029   3.794  11.889  0.4045 -0.1279  0.2694
 5623TIP3    H141064   0.023   3.822  11.980  1.3909 -1.2083  0.6925
 5623TIP3    H241065  -0.052   3.745  11.873  0.3420 -0.1422  0.6351
 5624TIP3   OH241066   6.860   2.588  12.952 -0.0092  0.3305  0.4388
 5624TIP3    H141067   6.862   2.683  12.958 -1.6931  0.3074  3.7608
 5624TIP3    H241068   6.767   2.566  12.955  0.3176 -1.4397 -0.8775
 5625TIP3   OH241069   0.863   5.067  14.049 -0.5355  0.4167 -0.5433
 5625TIP3    H141070   0.930   5.018  14.001 -1.5398 -1.3252 -0.2373
 5625TIP3    H241071   0.789   5.007  14.057 -1.3314  1.5135  1.0388
 5626TIP3   OH241072   8.412   8.210  11.802 -0.1066 -0.0130 -0.1301
 5626TIP3    H141073   8.393   8.116  11.802 -0.8008  0.1270  0.0727
 5626TIP3    H241074   8.332   8.251  11.833  0.3436  0.6218  0.2198
 5627TIP3   OH241075   3.644   1.537  13.714 -0.0729  0.6089  0.1784
 5627TIP3    H141076   3.707   1.564  13.647  1.4400 -0.2538  1.2057
 5627TIP3    H241077   3.653   1.604  13.783 -0.3089  0.5032  0.3105
 5628TIP3   OH241078   4.729   4.732  14.074 -0.5057  0.4927 -0.3083
 5628TIP3    H141079   4.721   4.694  13.987 -1.7929  1.0082 -0.4397
 5628TIP3    H241080   4.677   4.676  14.131 -0.2282  0.5440  0.0034
 5629TIP3   OH241081   8.254   7.358  13.694 -0.3158 -0.1850  0.9146
 5629TIP3    H141082   8.227   7.286  13.751 -1.3205  0.1919  0.9389
 5629TIP3    H241083   8.185   7.363  13.627  0.0052  0.4300  0.6178
 5630TIP3   OH241084   0.257   3.473  11.632  0.3452 -0.4086  0.0921
 5630TIP3    H141085   0.314   3.534  11.585  0.7810 -1.1292 -0.3285
 5630TIP3    H241086   0.169   3.510  11.620  0.6110  0.1919 -0.0703
 5631TIP3   OH241087   8.221   0.893  13.112 -0.5335  0.2100  0.3541
 5631TIP3    H141088   8.157   0.936  13.168  0.8864  0.2072  2.0470
 5631TIP3    H241089   8.224   0.803  13.144  0.0032  0.1053  0.0209
 5632TIP3   OH241090   1.528   7.502  12.855 -0.1618  0.0404 -0.1501
 5632TIP3    H141091   1.509   7.418  12.816  0.3517  0.2973 -0.9740
 5632TIP3    H241092   1.530   7.564  12.782 -1.4871  0.9582  0.5387
 5633TIP3   OH241093   7.280   2.172  11.276  0.3703 -0.2026  0.2259
 5633TIP3    H141094   7.355   2.115  11.291  1.3049  0.5258 -1.3438
 5633TIP3    H241095   7.269   2.222  11.357 -0.2621 -2.3172  1.5032
 5634TIP3   OH241096   3.843   4.825  12.315  0.4011 -0.4065 -0.5956
 5634TIP3    H141097   3.777   4.881  12.273 -0.0633 -1.4654 -1.3169
 5634TIP3    H241098   3.926   4.856  12.279  0.2854  0.7265  0.0718
 5635TIP3   OH241099   4.605   7.220  13.010 -0.2102 -0.3097  0.1565
 5635TIP3    H141100   4.651   7.139  12.989 -0.0143  0.0828 -1.0257
 5635TIP3    H241101   4.633   7.241  13.099 -0.5724 -1.7376  0.6287
 5636TIP3   OH241102   8.154   7.519  12.038  0.2208 -0.1471  0.0102
 5636TIP3    H141103   8.063   7.530  12.011 -0.0765 -0.1805  0.9634
 5636TIP3    H241104   8.170   7.425  12.035  0.6997 -0.0435 -1.6056
 5637TIP3   OH241105   4.969   7.998  11.951  0.2832  0.1624  0.5601
 5637TIP3    H141106   4.913   7.920  11.951  2.1442 -1.3904 -2.6721
 5637TIP3    H241107   5.058   7.963  11.945  1.2620  2.5381  0.1408
 5638TIP3   OH241108   7.734   5.042  12.657  1.0323  0.0884 -0.0229
 5638TIP3    H141109   7.742   4.993  12.575 -0.5667  0.3712 -0.3706
 5638TIP3    H241110   7.699   4.978  12.719  1.3043  0.1391  0.1823
 5639TIP3   OH241111   4.474   1.614  12.953 -0.8202 -0.6632  0.1436
 5639TIP3    H141112   4.490   1.681  13.019  2.8468 -1.1511 -0.0260
 5639TIP3    H241113   4.452   1.536  13.003 -0.1282 -0.5183  0.6923
 5640TIP3   OH241114   2.693   0.934  12.835  0.2227  0.1227 -0.0169
 5640TIP3    H141115   2.710   0.842  12.854 -2.2552 -0.2125  0.9525
 5640TIP3    H241116   2.765   0.981  12.876  1.3178 -1.3467 -0.1923
 5641TIP3   OH241117   2.937   3.809  12.355 -0.0359  0.8465  0.0376
 5641TIP3    H141118   3.032   3.818  12.345 -0.1951  0.7801 -1.7709
 5641TIP3    H241119   2.926   3.778  12.445  1.4571  3.6749  1.3269
 5642TIP3   OH241120   5.982   4.588  12.757 -0.7593 -0.6713  0.7704
 5642TIP3    H141121   6.049   4.645  12.794 -0.6371 -0.6129  0.4608
 5642TIP3    H241122   5.951   4.536  12.831 -1.0069 -0.0675  1.0935
 5643TIP3   OH241123   3.546   4.819  13.284 -0.0968 -0.1472  0.5612
 5643TIP3    H141124   3.486   4.834  13.357  0.2313  1.4665  0.5268
 5643TIP3    H241125   3.538   4.725  13.267 -0.0114 -0.6363  2.8074
 5644TIP3   OH241126   0.705   2.748  13.409 -0.3003 -0.7070  0.3949
 5644TIP3    H141127   0.635   2.778  13.351 -0.6449 -0.8755  0.7181
 5644TIP3    H241128   0.773   2.716  13.349 -0.7088 -1.0120  0.0862
 5645TIP3   OH241129   4.488   0.061  12.959 -0.2100 -0.3835 -0.6991
 5645TIP3    H141130   4.473  -0.002  12.889 -0.1506  0.2001 -1.2557
 5645TIP3    H241131   4.521   0.139  12.914 -0.3346  0.0645 -0.0384
 5646TIP3   OH241132   0.433   1.787  13.013  0.1862 -0.4675  0.5620
 5646TIP3    H141133   0.371   1.818  13.079 -0.2924 -0.6644  0.2089
 5646TIP3    H241134   0.513   1.769  13.062 -0.6049 -2.0429  1.3562
 5647TIP3   OH241135   6.534   7.286  13.337 -0.6248  0.2704  0.3996
 5647TIP3    H141136   6.535   7.260  13.245 -0.4064  2.2621 -0.2042
 5647TIP3    H241137   6.465   7.233  13.376 -2.3762  1.0501 -1.4642
 5648TIP3   OH241138   7.643   3.806  11.754 -0.3485  0.2243 -0.1607
 5648TIP3    H141139   7.738   3.796  11.743 -0.0464  0.5943  1.6930
 5648TIP3    H241140   7.605   3.760  11.679  1.2717 -0.7716 -0.4285
 5649TIP3   OH241141   6.825   2.703  11.596 -0.1720 -0.2092  0.5069
 5649TIP3    H141142   6.779   2.621  11.613 -1.6343  0.8078  1.6116
 5649TIP3    H241143   6.758   2.771  11.602  1.2620  1.2268  1.1718
 5650TIP3   OH241144   1.030   7.527  11.632 -0.5064  0.3741  0.3117
 5650TIP3    H141145   1.074   7.467  11.571  0.7202  0.1512  1.3905
 5650TIP3    H241146   0.991   7.469  11.697 -0.8492  0.6705  0.3727
 5651TIP3   OH241147   0.249   6.234  13.403  0.1560 -0.8788  0.2579
 5651TIP3    H141148   0.285   6.260  13.318  0.4493  0.4221  0.7544
 5651TIP3    H241149   0.292   6.151  13.423  0.2262 -1.1047 -0.7752
 5652TIP3   OH241150   5.599   3.485  12.882 -0.1655 -0.1682  0.1714
 5652TIP3    H141151   5.522   3.496  12.939 -1.1170  1.6757 -1.3614
 5652TIP3    H241152   5.562   3.465  12.796  1.2253 -2.0170 -0.0556
 5653TIP3   OH241153   0.285   5.719  12.651  0.0980 -0.1864  0.4753
 5653TIP3    H141154   0.303   5.704  12.558  0.3095  2.1446  0.0744
 5653TIP3    H241155   0.310   5.637  12.694 -0.6239 -1.5542 -1.5775
 5654TIP3   OH241156   3.244   7.648  12.635  0.6275  0.4771  0.4429
 5654TIP3    H141157   3.265   7.564  12.674  1.4549 -0.0980 -1.1342
 5654TIP3    H241158   3.322   7.702  12.651  0.8176  0.3578 -0.0476
 5655TIP3   OH241159   2.190   6.547  12.254 -0.3004  0.0561 -0.1024
 5655TIP3    H141160   2.232   6.555  12.168  0.0304  2.6041  0.2075
 5655TIP3    H241161   2.114   6.492  12.238  0.1894 -0.1937 -1.8687
 5656TIP3   OH241162   1.034   8.256  11.951  0.1080 -0.1351 -0.0879
 5656TIP3    H141163   1.032   8.305  12.033 -0.1974 -0.5143  0.1346
 5656TIP3    H241164   0.993   8.172  11.972  1.1859 -0.7327 -0.3070
 5657TIP3   OH241165   4.667   3.965  11.546 -0.3271  0.2272 -0.6726
 5657TIP3    H141166   4.759   3.968  11.521 -0.0265 -1.4144  0.0784
 5657TIP3    H241167   4.659   4.028  11.617 -0.1200  1.4092 -1.6800
 5658TIP3   OH241168   2.464   3.207  13.359  0.2424  0.0887 -0.3584
 5658TIP3    H141169   2.550   3.248  13.345 -0.1790  0.7586 -1.0756
 5658TIP3    H241170   2.443   3.169  13.274 -0.4221  0.4109 -0.3397
 5659TIP3   OH241171   6.390   1.938  11.626  0.0487  0.4148 -0.0252
 5659TIP3    H141172   6.459   2.005  11.628  1.1497 -0.7012  1.0635
 5659TIP3    H241173   6.437   1.855  11.621 -1.3081 -0.3012 -1.7914
 5660TIP3   OH241174   3.474   8.373  13.019  0.1927 -0.5883  0.1439
 5660TIP3    H141175   3.387   8.349  12.986 -0.7320 -0.9662  2.6401
 5660TIP3    H241176   3.524   8.292  13.016  0.1698 -0.5868 -0.4142
 5661TIP3   OH241177   3.513   1.917  13.582 -0.3426 -0.5372  0.3111
 5661TIP3    H141178   3.458   1.869  13.643 -1.0954 -0.1318 -0.0322
 5661TIP3    H241179   3.600   1.881  13.594 -0.4542 -0.3859  1.7141
 5662TIP3   OH241180   0.260   5.281  13.505 -0.3126  0.7095 -0.3407
 5662TIP3    H141181   0.343   5.233  13.501 -0.3117  0.6819  0.0242
 5662TIP3    H241182   0.235   5.292  13.413 -0.4322 -0.2088 -0.4340
 5663TIP3   OH241183   3.293   2.553  13.884  0.0688 -0.4437  0.2917
 5663TIP3    H141184   3.257   2.511  13.806  0.3055 -1.4682  0.7179
 5663TIP3    H241185   3.218   2.564  13.942  0.3335 -2.2969  1.0555
 5664TIP3   OH241186   7.371   3.519  12.835 -0.2475 -0.2772 -0.8297
 5664TIP3    H141187   7.356   3.592  12.895 -1.1293 -0.5356 -0.7227
 5664TIP3    H241188   7.284   3.483  12.819  0.1563 -1.2076 -1.0089
 5665TIP3   OH241189   5.060   2.050  12.768 -0.1906  0.4099  0.5735
 5665TIP3    H141190   5.061   2.095  12.684  0.4293 -0.8861 -0.1607
 5665TIP3    H241191   5.000   2.100  12.823  0.8057  2.3477 -0.0378
 5666TIP3   OH241192   2.134   3.122  12.744  0.4060  0.2128  0.0500
 5666TIP3    H141193   2.103   3.031  12.748  2.6405 -0.6654 -1.1555
 5666TIP3    H241194   2.212   3.124  12.798  0.5741  1.3542 -0.2030
 5667TIP3   OH241195   0.737   2.395  12.204  0.1739 -0.7968 -0.2247
 5667TIP3    H141196   0.721   2.302  12.214  1.1343 -1.1102 -1.4420
 5667TIP3    H241197   0.813   2.401  12.146  0.2644  0.7348  0.0013
 5668TIP3   OH241198   3.312   7.395  12.740  0.2856 -0.0566 -0.5985
 5668TIP3    H141199   3.322   7.300  12.744  2.1963  0.1399  0.2106
 5668TIP3    H241200   3.341   7.426  12.826 -0.4068  1.2713 -0.8108
 5669TIP3   OH241201   2.681   3.137  12.379 -0.1478 -0.3122 -0.2760
 5669TIP3    H141202   2.754   3.155  12.438 -1.0710  0.0121  0.7833
 5669TIP3    H241203   2.603   3.165  12.426 -1.0475 -1.3178 -1.0916
 5670TIP3   OH241204   0.820   2.225  13.236  0.4271 -0.0355 -0.1706
 5670TIP3    H141205   0.794   2.142  13.195  0.1442  0.1609 -0.3898
 5670TIP3    H241206   0.848   2.200  13.324 -0.7284 -0.2325  0.1585
 5671TIP3   OH241207   8.416   5.886  13.446 -0.0147 -0.0873 -0.1696
 5671TIP3    H141208   8.362   5.845  13.378 -0.7437 -0.6699  0.7292
 5671TIP3    H241209   8.483   5.821  13.466 -0.5349 -0.4421  0.5048
 5672TIP3   OH241210   2.496   4.847  12.051 -0.0339  0.6366 -0.5783
 5672TIP3    H141211   2.487   4.764  12.099  1.1516 -0.1748 -1.6747
 5672TIP3    H241212   2.445   4.910  12.101 -0.7027 -0.6924  0.4675
 5673TIP3   OH241213   2.985   1.104  12.351  0.0480  0.0924 -0.1760
 5673TIP3    H141214   3.056   1.054  12.312 -0.4161 -0.9329  0.2328
 5673TIP3    H241215   2.975   1.067  12.439 -1.0071  0.1874 -0.2364
 5674TIP3   OH241216   2.833   1.625  12.101 -0.3523 -0.5479  0.1474
 5674TIP3    H141217   2.780   1.547  12.119 -1.2044 -0.6090 -2.2687
 5674TIP3    H241218   2.877   1.606  12.018  0.7145  0.9217  0.3328
 5675TIP3   OH241219   8.325   2.644  13.607 -0.0669 -0.0059 -0.6351
 5675TIP3    H141220   8.416   2.666  13.625 -0.1744  0.3577 -0.5440
 5675TIP3    H241221   8.300   2.586  13.679 -0.6351  1.8028  0.6969
 5676TIP3   OH241222   6.907   3.007  11.568 -0.0057  0.7661  0.1293
 5676TIP3    H141223   6.971   3.078  11.572 -1.1058  1.8556 -0.7517
 5676TIP3    H241224   6.865   3.008  11.654  1.7648 -0.6045  1.0765
 5677TIP3   OH241225   0.877   8.106  12.792 -0.1628  0.0905 -0.5634
 5677TIP3    H141226   0.846   8.067  12.710 -0.6346 -0.3255 -0.1975
 5677TIP3    H241227   0.857   8.040  12.859  1.7664 -0.3444 -0.3282
 5678TIP3   OH241228   3.942   3.273  13.462  0.0818  0.4664  0.6074
 5678TIP3    H141229   3.948   3.368  13.465 -0.0093  0.4925 -0.0045
 5678TIP3    H241230   3.904   3.253  13.376  0.8928 -0.1546  0.3735
 5679TIP3   OH241231   5.525   2.887  12.760  0.0515 -0.1801  0.7078
 5679TIP3    H141232   5.462   2.827  12.801 -0.1539 -0.4918 -0.0561
 5679TIP3    H241233   5.480   2.922  12.684  1.0419 -1.0064 -0.3162
 5680TIP3   OH241234   5.944   4.456  14.168  0.3851  0.0396 -0.0482
 5680TIP3    H141235   5.996   4.536  14.176  0.4913  0.2411 -2.2046
 5680TIP3    H241236   5.857   4.487  14.141  0.3732 -0.5385 -0.6980
 5681TIP3   OH241237   4.288   4.599  13.809  0.1257 -0.4867 -0.6976
 5681TIP3    H141238   4.261   4.554  13.890 -0.7967 -1.9320 -1.7656
 5681TIP3    H241239   4.319   4.529  13.752  0.9054  0.5363 -1.5750
 5682TIP3   OH241240   5.872   5.200  11.611  0.7496 -0.0359  0.1452
 5682TIP3    H141241   5.806   5.131  11.612  0.5107  0.1967  0.4963
 5682TIP3    H241242   5.884   5.220  11.518  0.6143 -0.3541  0.0584
 5683TIP3   OH241243   2.308   4.680  12.432 -0.2411  0.4478  0.3113
 5683TIP3    H141244   2.228   4.725  12.459 -0.5764 -0.6796  1.3033
 5683TIP3    H241245   2.365   4.749  12.400 -1.2203  1.4045  0.5689
 5684TIP3   OH241246   7.724   2.892  12.451  0.3879  0.3977  0.7881
 5684TIP3    H141247   7.649   2.837  12.475  0.0808  1.0276  1.2909
 5684TIP3    H241248   7.684   2.969  12.410  0.8709 -1.0979 -2.9710
 5685TIP3   OH241249   4.948   6.000  12.047  0.2578  0.0814 -0.2857
 5685TIP3    H141250   5.012   5.937  12.079  0.9014  1.4198  1.1451
 5685TIP3    H241251   4.863   5.963  12.073  0.5249 -0.8699 -0.7219
 5686TIP3   OH241252   2.697   5.343  12.714  0.0196 -0.4717  0.3161
 5686TIP3    H141253   2.792   5.355  12.713 -0.1821  1.5824 -0.3586
 5686TIP3    H241254   2.670   5.365  12.624 -1.3176  1.9549  1.2154
 5687TIP3   OH241255   5.122   4.020  12.442  0.7338  0.7404  0.3083
 5687TIP3    H141256   5.112   4.022  12.537  0.4113  1.8447  0.2561
 5687TIP3    H241257   5.053   3.960  12.412 -0.4215  1.8580  0.6352
 5688TIP3   OH241258   6.822   1.290  11.695  0.2675 -0.1493  0.0074
 5688TIP3    H141259   6.818   1.212  11.639 -2.8950 -0.1839  0.0854
 5688TIP3    H241260   6.861   1.357  11.639  1.6089 -1.3544 -0.5736
 5689TIP3   OH241261   0.069   7.620  13.453 -0.1317 -0.1954 -0.2234
 5689TIP3    H141262  -0.004   7.610  13.392  0.5831  0.6050 -1.2402
 5689TIP3    H241263   0.126   7.684  13.412  0.5339  0.1262  1.1558
 5690TIP3   OH241264   0.231   2.307  13.017 -0.3950 -0.1856  0.2546
 5690TIP3    H141265   0.262   2.314  12.927  2.9149  3.2074  1.4340
 5690TIP3    H241266   0.177   2.384  13.031  0.1942  0.0310  1.5155
 5691TIP3   OH241267   0.961   0.431  11.857  0.8164  0.1909 -0.5751
 5691TIP3    H141268   0.921   0.486  11.790 -0.7996 -0.2359 -0.0172
 5691TIP3    H241269   0.948   0.341  11.825 -0.8259 -0.0725  0.6819
 5692TIP3   OH241270   1.870   6.484  12.100 -0.0133 -0.2052 -0.0279
 5692TIP3    H141271   1.922   6.422  12.150 -1.8048 -1.2617  0.5979
 5692TIP3    H241272   1.801   6.431  12.059 -0.3522  1.0684 -1.2012
 5693TIP3   OH241273   2.344   0.061  12.707 -0.3938  0.2050 -0.3390
 5693TIP3    H141274   2.365   0.140  12.756  0.3529 -0.0936 -0.1661
 5693TIP3    H241275   2.330  -0.006  12.775 -2.6175  0.5250 -0.3955
 5694TIP3   OH241276   2.244   6.112  12.921  0.0819  0.1695 -0.0551
 5694TIP3    H141277   2.284   6.025  12.915  0.6888  0.3120  1.5133
 5694TIP3    H241278   2.179   6.113  12.850  1.3255 -0.8704 -1.2737
 5695TIP3   OH241279   7.261   3.983  13.198 -0.5414 -0.7708  0.3295
 5695TIP3    H141280   7.332   3.924  13.221  1.8291  0.7098 -2.5950
 5695TIP3    H241281   7.276   4.062  13.251 -1.0940 -1.0788  0.9696
 5696TIP3   OH241282   1.929   5.100  12.622 -0.0703  0.5103 -0.6998
 5696TIP3    H141283   1.960   5.172  12.677  0.1855  1.5497 -2.1212
 5696TIP3    H241284   2.008   5.066  12.581 -0.0590 -1.3156  0.7405
 5697TIP3   OH241285   5.569   1.668  12.413  0.4363  0.1230  0.2125
 5697TIP3    H141286   5.661   1.693  12.422  0.6348 -1.0629  1.7602
 5697TIP3    H241287   5.562   1.632  12.324  1.6797 -0.5934  0.3932
 5698TIP3   OH241288   5.049   6.091  13.025 -0.2840 -0.8452  0.5323
 5698TIP3    H141289   5.124   6.066  12.971 -0.3566 -3.0089  1.3162
 5698TIP3    H241290   5.086   6.103  13.113 -0.5431  0.2119  0.5050
 5699TIP3   OH241291   0.237   7.351  11.977 -0.9455 -0.2927  0.0428
 5699TIP3    H141292   0.294   7.424  11.953  1.1905 -1.7371  0.3968
 5699TIP3    H241293   0.189   7.383  12.054  0.9513  0.3344  1.0468
 5700TIP3   OH241294   4.839   7.667  13.093  0.1352  0.2217 -0.0224
 5700TIP3    H141295   4.748   7.693  13.109  0.4361  2.7027 -1.6844
 5700TIP3    H241296   4.844   7.653  12.999  1.6059  0.8208 -0.0617
 5701TIP3   OH241297   8.368   2.152  12.667  0.1766  0.8032  0.2431
 5701TIP3    H141298   8.462   2.137  12.655  0.5163  0.8776  2.4471
 5701TIP3    H241299   8.342   2.087  12.732 -1.2036  1.1602  0.0802
 5702TIP3   OH241300   4.357   1.224  12.256 -0.4200  0.0800 -0.5212
 5702TIP3    H141301   4.399   1.173  12.325 -0.4370 -0.5677 -0.9792
 5702TIP3    H241302   4.427   1.279  12.222 -0.0061 -0.7388 -1.0400
 5703TIP3   OH241303   0.534   2.707  12.347 -0.6052 -0.2435 -0.3042
 5703TIP3    H141304   0.508   2.666  12.265 -1.0466 -1.2852  0.3440
 5703TIP3    H241305   0.537   2.636  12.411 -0.3571  0.5572  0.6130
 5704TIP3   OH241306   5.423   1.364  13.905 -0.5858 -0.0287  0.2101
 5704TIP3    H141307   5.479   1.429  13.862  0.2173 -0.3904  0.7013
 5704TIP3    H241308   5.334   1.400  13.897 -0.9229 -1.2253 -4.0289
 5705TIP3   OH241309   5.041   0.572  12.259  0.0259  0.1227  0.3312
 5705TIP3    H141310   4.983   0.526  12.321  1.5612  0.4821  2.1286
 5705TIP3    H241311   5.120   0.519  12.256  0.5103  0.8578 -0.2576
 5706TIP3   OH241312   0.846   0.145  12.637 -0.5347 -0.1382  0.2310
 5706TIP3    H141313   0.889   0.060  12.636 -0.4926 -0.1333  0.8839
 5706TIP3    H241314   0.803   0.152  12.552 -1.4698 -1.2966  0.5824
 5707TIP3   OH241315   3.254   2.445  12.610  0.1920  0.3575  0.0684
 5707TIP3    H141316   3.279   2.394  12.687 -0.4656 -0.1748 -0.0609
 5707TIP3    H241317   3.233   2.380  12.543 -0.1276  0.8039 -0.2746
 5708TIP3   OH241318   3.710   5.388  12.784  0.5281 -0.0611 -0.1856
 5708TIP3    H141319   3.772   5.318  12.804 -0.5904 -0.5521  1.7898
 5708TIP3    H241320   3.765   5.465  12.771  1.5777 -0.4095  1.7934
 5709TIP3   OH241321   1.632   4.353  11.864  0.0565  0.6378 -0.1716
 5709TIP3    H141322   1.605   4.425  11.921  1.9895  0.2018  1.4133
 5709TIP3    H241323   1.727   4.350  11.872  0.0852 -1.7395 -0.6292
 5710TIP3   OH241324   1.949   1.156  13.059  1.0113 -0.0031 -0.2879
 5710TIP3    H141325   2.025   1.097  13.065  1.6943  0.8831  0.0043
 5710TIP3    H241326   1.979   1.228  13.004  1.0713  1.3550  1.4332
 5711TIP3   OH241327   0.603   5.750  12.423  0.0171  0.2659 -0.1660
 5711TIP3    H141328   0.637   5.672  12.379  2.3908  1.7547 -1.1832
 5711TIP3    H241329   0.508   5.748  12.407  0.1730 -1.7856 -1.1155
 5712TIP3   OH241330   7.702   4.167  11.705 -0.7352 -0.4635  0.3705
 5712TIP3    H141331   7.651   4.244  11.726  1.2648  0.1780  3.6655
 5712TIP3    H241332   7.638   4.103  11.673 -2.9912  1.3316  1.0401
 5713TIP3   OH241333   3.986   1.778  13.317 -0.4803 -0.4289 -0.1138
 5713TIP3    H141334   3.923   1.848  13.335 -0.5430 -0.3266 -0.7195
 5713TIP3    H241335   3.969   1.753  13.226  0.5761 -0.1624 -0.3989
 5714TIP3   OH241336   6.973   8.020  11.522 -0.1126 -0.2182 -0.6476
 5714TIP3    H141337   7.039   8.022  11.591 -0.8792  0.3455  0.0735
 5714TIP3    H241338   6.963   8.111  11.494 -2.0161  0.0280  0.6471
 5715TIP3   OH241339   0.220   6.614  12.076 -0.4753  0.6667  0.4580
 5715TIP3    H141340   0.198   6.536  12.026  0.1958  0.1248  0.9809
 5715TIP3    H241341   0.154   6.619  12.145 -0.3987  0.4325  0.5503
 5716TIP3   OH241342   4.529   7.497  11.848 -0.1536  0.1194  0.2466
 5716TIP3    H141343   4.452   7.475  11.794 -1.2648  2.4537  0.7635
 5716TIP3    H241344   4.529   7.592  11.853  2.5885  0.1811  0.6305
 5717TIP3   OH241345   4.328   3.043  13.788  0.0920 -0.3756  0.3877
 5717TIP3    H141346   4.389   3.007  13.724  1.1178 -0.7932  1.5567
 5717TIP3    H241347   4.384   3.088  13.852 -0.9936  1.3542  0.1962
 5718TIP3   OH241348   2.264   5.262  12.225  0.3598 -1.0119  0.2759
 5718TIP3    H141349   2.329   5.232  12.288  1.2316 -0.4640 -0.3370
 5718TIP3    H241350   2.285   5.215  12.144  0.5677 -0.1510 -0.1769
 5719TIP3   OH241351   5.951   6.993  12.594 -0.2076  0.2619 -0.2290
 5719TIP3    H141352   5.884   7.055  12.564 -0.3021 -0.1836 -0.9686
 5719TIP3    H241353   5.916   6.907  12.572  0.4690  0.0056 -0.3347
 5720TIP3   OH241354   2.967   6.685  12.687 -0.2278  0.2026  0.1689
 5720TIP3    H141355   2.921   6.604  12.665  1.7961 -0.3808 -2.2768
 5720TIP3    H241356   2.902   6.754  12.673 -1.7298 -0.8527  1.4946
 5721TIP3   OH241357   6.475   4.485  14.111 -0.3313  0.0952  0.2948
 5721TIP3    H141358   6.467   4.421  14.040 -0.5134  1.5426 -1.0463
 5721TIP3    H241359   6.563   4.522  14.100 -0.3084  0.2401  0.9134
 5722TIP3   OH241360   3.161   0.683  13.276 -0.2125 -0.0028  0.5323
 5722TIP3    H141361   3.136   0.691  13.184 -0.5181  0.0150  0.6158
 5722TIP3    H241362   3.088   0.721  13.324  0.0777  0.2602  0.7739
 5723TIP3   OH241363   3.599   7.996  12.266  0.3069 -0.5312  0.2083
 5723TIP3    H141364   3.618   8.053  12.340  0.5478 -0.5785  0.1828
 5723TIP3    H241365   3.503   7.998  12.258  0.3091 -0.1990  0.2612
 5724TIP3   OH241366   6.651   8.028  12.202 -0.2281  0.0762 -0.1861
 5724TIP3    H141367   6.673   8.089  12.273  0.9606 -1.5864  0.9511
 5724TIP3    H241368   6.678   8.074  12.122 -2.9378  2.6124  0.1719
 5725TIP3   OH241369   0.516   8.226  12.853 -0.0255  0.3736  0.0987
 5725TIP3    H141370   0.609   8.245  12.847 -0.0166  0.6132  0.9327
 5725TIP3    H241371   0.512   8.136  12.884 -0.0814  0.2871 -0.1503
 5726TIP3   OH241372   3.067   4.597  12.443 -0.0662 -0.1549 -0.1701
 5726TIP3    H141373   2.983   4.605  12.488 -0.0085 -0.7845  0.0488
 5726TIP3    H241374   3.046   4.606  12.350 -0.4207 -0.6352 -0.1390
 5727TIP3   OH241375   3.955   6.229  12.356  0.4579 -0.2448  0.5317
 5727TIP3    H141376   3.974   6.296  12.289 -2.1952  1.4996  1.3584
 5727TIP3    H241377   4.041   6.200  12.385  1.7128  0.9393 -1.6726
 5728TIP3   OH241378   3.507   3.951  12.156 -0.0925  0.3374  0.6155
 5728TIP3    H141379   3.461   4.033  12.174 -0.1784  0.8239 -1.5249
 5728TIP3    H241380   3.577   3.975  12.095 -1.4154 -1.4001 -1.7999
 5729TIP3   OH241381   8.001   6.894  11.977 -0.1820  0.3428  0.0181
 5729TIP3    H141382   8.065   6.956  11.943  0.7637 -0.2513  0.6482
 5729TIP3    H241383   7.978   6.928  12.064 -0.6709  0.5144 -0.1759
 5730TIP3   OH241384   2.200   3.790  13.281 -0.1450 -0.2945 -0.4932
 5730TIP3    H141385   2.295   3.798  13.275 -0.2184 -0.0986 -1.5386
 5730TIP3    H241386   2.169   3.877  13.306 -0.0566 -0.3178 -0.3066
 5731TIP3   OH241387   3.286   4.011  12.662  0.9249 -0.5196 -0.3036
 5731TIP3    H141388   3.370   4.057  12.665 -0.2682  1.8314 -0.3649
 5731TIP3    H241389   3.297   3.936  12.721  2.7791  0.2381  0.3659
 5732TIP3   OH241390   7.292   6.504  12.449 -0.0762 -0.5671  0.0460
 5732TIP3    H141391   7.231   6.431  12.461  0.7666 -1.0750  1.4386
 5732TIP3    H241392   7.319   6.497  12.357 -0.6200 -1.5169 -0.0527
 5733TIP3   OH241393   8.050   3.226  12.090 -0.1153  0.2371 -0.0640
 5733TIP3    H141394   8.002   3.144  12.082 -0.5864  0.5777 -0.8118
 5733TIP3    H241395   7.984   3.294  12.079  0.2307  0.7294  0.7618
 5734TIP3   OH241396   5.950   5.090  13.920 -0.1098 -0.2088 -0.0243
 5734TIP3    H141397   5.977   5.147  13.849 -2.0777 -0.8475 -1.3645
 5734TIP3    H241398   5.854   5.088  13.916 -0.2076 -1.8062  1.3981
 5735TIP3   OH241399   5.330   0.551  11.933  0.0123  0.1276  0.4150
 5735TIP3    H141400   5.257   0.507  11.977 -0.3280 -0.6088 -0.8188
 5735TIP3    H241401   5.333   0.510  11.846  1.6824  0.3817  0.3182
 5736TIP3   OH241402   2.463   7.925  12.575  0.2170  0.2322 -0.4293
 5736TIP3    H141403   2.467   7.971  12.492  0.2790  0.7023 -0.1662
 5736TIP3    H241404   2.548   7.881  12.583 -0.8731 -2.4718 -2.1134
 5737TIP3   OH241405   7.909   4.654  12.140  0.0046 -0.2315 -0.3433
 5737TIP3    H141406   7.889   4.568  12.178 -0.2893  0.9016  2.3035
 5737TIP3    H241407   7.834   4.672  12.083 -1.6044 -0.4260  1.5610
 5738TIP3   OH241408   4.237   3.728  12.182 -0.0404 -0.1276  0.0694
 5738TIP3    H141409   4.260   3.697  12.095 -0.2258 -0.5931  0.1815
 5738TIP3    H241410   4.303   3.794  12.203  1.3275 -1.5756  0.4795
 5739TIP3   OH241411   2.700   3.657  12.304 -0.0978  0.4015 -0.5786
 5739TIP3    H141412   2.769   3.701  12.355 -1.3048  0.0748  1.4253
 5739TIP3    H241413   2.639   3.727  12.281  0.2444  0.4824 -1.2567
 5740TIP3   OH241414   2.288   3.400  13.486  0.4601  0.0187 -0.0129
 5740TIP3    H141415   2.211   3.344  13.497  0.3196  0.2450  0.1937
 5740TIP3    H241416   2.355   3.343  13.449 -0.4669  0.3115 -2.3082
 5741TIP3   OH241417   4.906   3.336  12.309 -0.7508 -0.1972  0.2027
 5741TIP3    H141418   4.976   3.375  12.257  0.0719 -0.4100  1.1255
 5741TIP3    H241419   4.825   3.370  12.269 -0.1023  1.4643  0.1988
 5742TIP3   OH241420   6.433   7.665  12.656  0.0174 -0.1114  0.1826
 5742TIP3    H141421   6.451   7.681  12.564  2.1836 -2.9890 -0.0269
 5742TIP3    H241422   6.454   7.748  12.699  0.8324  0.7189 -1.7078
 5743TIP3   OH241423   6.170   8.398  18.032 -0.5885  0.3564 -0.0557
 5743TIP3    H141424   6.140   8.489  18.036  1.8731  1.2050  2.1923
 5743TIP3    H241425   6.105   8.349  18.082 -0.9052  1.2581  0.4440
 5744TIP3   OH241426   7.956   2.144  12.326  1.0885  0.1281 -0.2142
 5744TIP3    H141427   7.958   2.223  12.380  2.7053  0.9764 -1.4234
 5744TIP3    H241428   8.046   2.110  12.330  0.5393 -1.3805 -0.1118
 5745TIP3   OH241429   5.235   0.791  12.083  0.2071  0.0695 -0.1474
 5745TIP3    H141430   5.286   0.812  12.160 -1.4885 -1.1040  1.3817
 5745TIP3    H241431   5.248   0.697  12.070 -1.4521 -0.2514  0.2623
 5746TIP3   OH241432   7.559   8.233  13.039  0.1353 -0.3742  0.0689
 5746TIP3    H141433   7.540   8.300  13.105  2.7426  0.7588 -0.1792
 5746TIP3    H241434   7.475   8.218  12.995 -0.9825  1.2138  1.5047
 5747TIP3   OH241435   7.685   3.923  13.176  0.1308  0.2720 -0.8476
 5747TIP3    H141436   7.617   3.860  13.202 -0.7831  1.0810 -1.1982
 5747TIP3    H241437   7.652   4.007  13.209  0.2937  0.8917 -2.2022
 5748TIP3   OH241438   3.996   7.010  13.281  0.1304  0.1613  0.2852
 5748TIP3    H141439   4.027   6.952  13.351 -0.3367  0.1085  0.4516
 5748TIP3    H241440   3.920   6.965  13.244  0.2892  0.2559 -0.1660
 5749TIP3   OH241441   0.927   4.320  11.894 -0.0172 -0.2076 -0.0504
 5749TIP3    H141442   0.860   4.290  11.955  1.2874 -1.5590  0.7978
 5749TIP3    H241443   1.002   4.263  11.912  0.5612 -0.3823 -2.6510
 5750TIP3   OH241444   0.426   2.277  13.802 -0.2005 -0.6887 -0.2158
 5750TIP3    H141445   0.448   2.189  13.833 -1.1655 -1.0619 -0.5554
 5750TIP3    H241446   0.483   2.335  13.853  2.7687 -1.6445 -2.1709
 5751TIP3   OH241447   5.434   2.166  12.500 -0.3802 -0.0079 -0.4094
 5751TIP3    H141448   5.387   2.121  12.570 -0.0748  1.1831  0.5794
 5751TIP3    H241449   5.526   2.158  12.523 -0.2213 -0.2977 -1.1121
 5752TIP3   OH241450   5.427   4.045  13.457  0.4691  0.1270 -0.3375
 5752TIP3    H141451   5.459   3.957  13.476 -0.5967 -0.2432 -0.2082
 5752TIP3    H241452   5.418   4.087  13.542 -0.3297 -0.1142 -0.2952
 5753TIP3   OH241453   6.765   7.458  12.195  0.1045 -0.0163  0.4249
 5753TIP3    H141454   6.793   7.368  12.178  0.5959  0.1061  0.5795
 5753TIP3    H241455   6.777   7.470  12.289 -0.7092 -0.0390  0.5426
 5754TIP3   OH241456   8.252   7.247  12.111  0.4491 -0.2074 -0.0895
 5754TIP3    H141457   8.253   7.212  12.022  0.4949 -3.2978  1.0072
 5754TIP3    H241458   8.193   7.190  12.159 -0.9344  2.4111  1.5608
 5755TIP3   OH241459   4.130   7.894  13.294  0.1673  0.0434 -0.1369
 5755TIP3    H141460   4.170   7.928  13.375  1.5450  2.6982 -1.7645
 5755TIP3    H241461   4.199   7.841  13.254 -0.5172 -1.2801  0.3962
 5756TIP3   OH241462   3.241   7.202  11.759  0.1475  0.0749 -0.1659
 5756TIP3    H141463   3.296   7.278  11.739  1.4411 -0.2822  1.8028
 5756TIP3    H241464   3.180   7.233  11.826 -0.4472 -0.1914 -0.5720
 5757TIP3   OH241465   1.474   7.136  12.090 -0.6684 -0.1232 -0.2494
 5757TIP3    H141466   1.438   7.050  12.112 -1.1235 -0.4984 -2.2421
 5757TIP3    H241467   1.520   7.123  12.007  3.4599  0.5394  1.6766
 5758TIP3   OH241468   5.786   7.767  11.862  0.1258 -0.2765 -0.2971
 5758TIP3    H141469   5.864   7.726  11.825  0.7015  1.0367 -0.5826
 5758TIP3    H241470   5.746   7.814  11.788 -0.5840 -0.4070 -0.0074
 5759TIP3   OH241471   6.559   2.859  13.631  0.2093  0.1023  0.1928
 5759TIP3    H141472   6.532   2.912  13.706 -2.2702  0.3042 -0.7642
 5759TIP3    H241473   6.541   2.914  13.555 -0.9229 -1.4767 -0.7356
 5760TIP3   OH241474   6.849   3.468  12.177  0.7834 -0.2027  0.0313
 5760TIP3    H141475   6.759   3.436  12.168  0.5825  0.5291 -0.6536
 5760TIP3    H241476   6.868   3.459  12.271 -0.1124 -0.0937  0.2361
 5761TIP3   OH241477   7.277   6.906  13.635 -0.3347  0.4677 -0.0563
 5761TIP3    H141478   7.266   6.922  13.541 -0.1134  0.8784 -0.0137
 5761TIP3    H241479   7.370   6.890  13.646  0.2198  3.5746  0.5375
 5762TIP3   OH241480   7.101   7.005  13.107 -0.0994  0.2484 -0.2862
 5762TIP3    H141481   7.065   7.085  13.145 -2.9339 -1.3097  0.6517
 5762TIP3    H241482   7.031   6.973  13.050  1.5578 -0.8048 -1.8007
 5763TIP3   OH241483   2.862   0.507  13.277  0.2982  0.0470 -0.1610
 5763TIP3    H141484   2.797   0.480  13.343 -0.5944  1.1135 -0.5718
 5763TIP3    H241485   2.876   0.601  13.294 -0.5757  0.5545 -1.9796
 5764TIP3   OH241486   4.795   2.314  13.171 -0.1063 -0.1018 -0.4253
 5764TIP3    H141487   4.814   2.255  13.244  0.1369  0.5812  0.0730
 5764TIP3    H241488   4.730   2.267  13.118 -1.3488 -0.0297  0.9763
 5765TIP3   OH241489   3.433   5.317  12.108 -0.3156 -0.0127  0.1328
 5765TIP3    H141490   3.455   5.358  12.192 -0.5182  2.1871 -0.8341
 5765TIP3    H241491   3.481   5.234  12.109 -0.5515 -0.1992  2.5295
 5766TIP3   OH241492   3.059   2.908  12.561  0.3534 -0.0877 -0.1755
 5766TIP3    H141493   3.075   2.956  12.643 -3.4625 -2.1038  1.9990
 5766TIP3    H241494   3.051   2.817  12.587  2.2828 -1.3694 -3.4316
 5767TIP3   OH241495   5.886   1.415  13.223 -0.5904  0.1773 -0.3165
 5767TIP3    H141496   5.863   1.497  13.266  1.2780  0.6105 -0.0427
 5767TIP3    H241497   5.821   1.404  13.154 -1.3914  1.4316  0.2125
 5768TIP3   OH241498   7.197   5.006  12.106 -0.4197  0.0557 -0.0682
 5768TIP3    H141499   7.134   5.023  12.036 -0.3508 -3.8082 -1.2732
 5768TIP3    H241500   7.274   4.970  12.062  0.9128  0.5058  1.7723
 5769TIP3   OH241501   2.136   7.277  12.269 -0.5548  0.7744  0.0018
 5769TIP3    H141502   2.111   7.344  12.205  1.5136  1.7030  0.1152
 5769TIP3    H241503   2.231   7.280  12.271 -0.3501 -2.4574 -0.2690
 5770TIP3   OH241504   3.420   8.051  13.452 -0.3750  0.1527 -0.3113
 5770TIP3    H141505   3.343   7.994  13.462  0.3344 -0.6641  0.8685
 5770TIP3    H241506   3.463   8.020  13.372 -0.9903  0.2573 -0.6832
 5771TIP3   OH241507   4.309   5.339  12.147  0.2397 -0.7934  0.1979
 5771TIP3    H141508   4.242   5.275  12.170  0.3565 -0.6329  1.0250
 5771TIP3    H241509   4.336   5.315  12.058 -2.2693  0.2851 -0.9831
 5772TIP3   OH241510   5.826   0.710  12.916  0.2005  0.0277 -0.1839
 5772TIP3    H141511   5.806   0.678  13.004 -0.4080 -0.0069 -0.3280
 5772TIP3    H241512   5.743   0.705  12.869  0.2052  1.3041 -0.3759
 5773TIP3   OH241513   4.645   1.579  12.730 -0.1236 -0.0581 -0.5319
 5773TIP3    H141514   4.604   1.581  12.816  1.6474 -2.8119  0.4788
 5773TIP3    H241515   4.571   1.568  12.669 -1.2461 -0.1686  0.7862
 5774TIP3   OH241516   7.230   2.549  13.179 -0.3754 -0.1515  0.3885
 5774TIP3    H141517   7.141   2.523  13.158 -0.2230 -0.4524  0.1111
 5774TIP3    H241518   7.241   2.524  13.271 -0.8888  0.7514  0.7008
 5775TIP3   OH241519   5.287   1.350  11.685  0.0959  0.2225 -0.4921
 5775TIP3    H141520   5.289   1.421  11.748  0.9954  0.4688 -0.7770
 5775TIP3    H241521   5.200   1.354  11.646 -0.5062  0.0192  0.7650
 5776TIP3   OH241522   6.490   1.647  12.411 -0.1402  0.6944  0.1689
 5776TIP3    H141523   6.556   1.675  12.474 -0.4367  0.5939  0.5305
 5776TIP3    H241524   6.406   1.660  12.457 -0.2482 -2.1016  0.9265
 5777TIP3   OH241525   7.467   8.132  12.758 -0.1652 -0.2780 -0.5735
 5777TIP3    H141526   7.550   8.118  12.802 -0.5684  1.7404  1.0061
 5777TIP3    H241527   7.406   8.071  12.800 -0.0391  0.0566  0.1010
 5778TIP3   OH241528   6.633   4.594  13.086 -0.2459  0.0262 -0.0723
 5778TIP3    H141529   6.548   4.558  13.111 -0.0037  0.3703  1.3286
 5778TIP3    H241530   6.678   4.612  13.169  1.2054 -0.1571 -0.7769
 5779TIP3   OH241531   2.962   5.085  12.318 -0.4437  0.3935  0.2816
 5779TIP3    H141532   3.040   5.046  12.278 -0.6968 -0.1938  0.3524
 5779TIP3    H241533   2.917   5.012  12.360 -2.0944  0.3228 -1.4602
 5780TIP3   OH241534   5.372   5.743  11.681  0.0387  0.6138  0.1521
 5780TIP3    H141535   5.330   5.820  11.720  0.6496  1.1692 -0.2752
 5780TIP3    H241536   5.394   5.688  11.756 -2.9782 -0.5356  0.3321
 5781TIP3   OH241537   7.214   1.008  11.854 -0.1483  0.3010  0.3889
 5781TIP3    H141538   7.180   1.093  11.883 -1.0707  0.0849 -0.0150
 5781TIP3    H241539   7.135   0.955  11.837  0.3995 -0.9439  1.5271
 5782TIP3   OH241540   2.729   0.658  12.839 -0.2211 -0.2310 -0.0849
 5782TIP3    H141541   2.772   0.584  12.797 -0.5085  0.0779 -0.9377
 5782TIP3    H241542   2.636   0.649  12.816 -0.7675 -1.1805  2.1512
 5783TIP3   OH241543   4.633   3.304  12.192  0.3368 -0.5157 -0.0842
 5783TIP3    H141544   4.579   3.372  12.233  0.3049 -0.9506  0.6259
 5783TIP3    H241545   4.583   3.224  12.203 -0.9667 -0.3060 -3.4182
 5784TIP3   OH241546   8.294   5.821  13.114  0.2629  0.0219 -0.2570
 5784TIP3    H141547   8.238   5.802  13.038 -1.7345  0.3508  1.0539
 5784TIP3    H241548   8.261   5.764  13.183  1.7785  0.0097  0.4917
 5785TIP3   OH241549   7.464   0.373  11.860  0.1350  0.4092  0.0869
 5785TIP3    H141550   7.467   0.351  11.953  1.6809  1.1552  0.2353
 5785TIP3    H241551   7.519   0.308  11.818 -0.4957  0.1247 -0.3196
 5786TIP3   OH241552   4.566   7.855  13.379 -0.3191  0.4744  0.4817
 5786TIP3    H141553   4.498   7.810  13.329 -0.9787  2.0435 -0.0958
 5786TIP3    H241554   4.647   7.809  13.357 -0.7104  0.6307 -1.4614
 5787TIP3   OH241555   1.257   0.554  12.430 -0.5405 -0.2836  0.0463
 5787TIP3    H141556   1.247   0.534  12.523  2.5470  2.6010  1.1859
 5787TIP3    H241557   1.305   0.479  12.395  2.7471  0.6646  2.0755
 5788TIP3   OH241558   0.735   4.270  12.121  0.0180  0.1316  0.2075
 5788TIP3    H141559   0.782   4.197  12.161  0.4893  0.0594 -0.4596
 5788TIP3    H241560   0.679   4.304  12.191  0.7677 -0.0317  0.9007
 5789TIP3   OH241561   1.140   2.783  12.596  0.0736  0.4592  0.0583
 5789TIP3    H141562   1.111   2.853  12.656  0.6313  1.1434 -0.4472
 5789TIP3    H241563   1.188   2.829  12.528  1.1797 -0.5111  0.1564
 5790TIP3   OH241564   7.140   5.974  11.883  0.6183 -0.5991 -0.2649
 5790TIP3    H141565   7.181   5.903  11.931 -1.4509 -1.2931  0.5667
 5790TIP3    H241566   7.049   5.946  11.871 -0.0368  1.5171 -0.6789
 5791TIP3   OH241567   0.561   3.142  12.677 -0.1174 -0.0487 -0.1773
 5791TIP3    H141568   0.606   3.090  12.611  0.6388  0.6172 -0.2016
 5791TIP3    H241569   0.471   3.150  12.645  0.3905  0.8031 -1.4603
 5792TIP3   OH241570   2.831   5.829  12.256  0.9195 -0.6134 -0.3597
 5792TIP3    H141571   2.759   5.873  12.211  2.2754  1.0147 -1.0347
 5792TIP3    H241572   2.839   5.876  12.339 -0.5486 -2.5968  1.0084
 5793TIP3   OH241573   4.054   3.875  12.834 -0.2326 -0.2829 -0.0665
 5793TIP3    H141574   3.995   3.937  12.877 -2.1073 -2.1142  0.1961
 5793TIP3    H241575   4.050   3.796  12.889  2.7496 -0.4364  0.1122
 5794TIP3   OH241576   0.111   6.008  12.551  0.6143 -0.1192  0.0161
 5794TIP3    H141577   0.095   5.998  12.645  0.7281  1.7839  0.2769
 5794TIP3    H241578   0.207   6.009  12.543  0.6858  2.6313  0.3165
 5795TIP3   OH241579   5.331   7.379  12.115  0.3974 -0.2111 -0.0836
 5795TIP3    H141580   5.292   7.293  12.100 -1.2345  0.2986  0.9914
 5795TIP3    H241581   5.319   7.426  12.033  2.9978 -1.5443 -1.3609
 5796TIP3   OH241582   2.663   3.082  11.767 -0.4826  0.0535 -0.6139
 5796TIP3    H141583   2.703   3.001  11.798  0.1685  0.2472 -0.9352
 5796TIP3    H241584   2.736   3.143  11.755 -1.1500  1.3764  1.5703
 5797TIP3   OH241585   0.278   6.382  11.748 -0.0459  0.5868  0.2598
 5797TIP3    H141586   0.189   6.414  11.766  0.0818  0.1506  1.8815
 5797TIP3    H241587   0.268   6.287  11.740  0.2989  0.5047  0.7373
 5798TIP3   OH241588   1.437   2.996  12.116 -0.7631  0.1197  0.3212
 5798TIP3    H141589   1.510   2.935  12.128 -0.8124  0.3413  2.0853
 5798TIP3    H241590   1.477   3.072  12.072 -0.3899 -0.5881 -0.5792
 5799TIP3   OH241591   7.245   2.583  11.945 -0.0166  0.7725 -0.1724
 5799TIP3    H141592   7.331   2.571  11.906 -0.3715  1.1503 -1.0997
 5799TIP3    H241593   7.203   2.650  11.891 -0.9585  0.4701  0.1594
 5800TIP3   OH241594   7.828   0.830  11.989 -0.1099 -0.1658  0.7675
 5800TIP3    H141595   7.901   0.768  11.990  0.7310  0.7996  0.9133
 5800TIP3    H241596   7.870   0.916  11.982 -1.3011  0.3179 -1.2190
 5801TIP3   OH241597   3.156   2.247  13.610 -0.3799  0.2175  0.4907
 5801TIP3    H141598   3.130   2.302  13.536  0.4335  0.2301  0.1972
 5801TIP3    H241599   3.088   2.180  13.616 -0.2481 -0.0351 -0.5387
 5802TIP3   OH241600   6.796   6.943  13.761 -0.2887 -0.2818 -0.2877
 5802TIP3    H141601   6.734   6.943  13.834 -0.9793 -0.3320 -0.8630
 5802TIP3    H241602   6.880   6.919  13.801 -0.3250  1.2237  0.7457
 5803TIP3   OH241603   8.438   7.338  11.829 -0.3380  0.5734 -0.5028
 5803TIP3    H141604   8.529   7.349  11.856 -0.0068  0.5042 -1.5644
 5803TIP3    H241605   8.424   7.406  11.763 -1.1736  0.8282 -0.0800
 5804TIP3   OH241606   3.766   2.334  11.592 -0.6963 -0.3466  0.9205
 5804TIP3    H141607   3.799   2.342  11.503 -1.2223  1.3860  0.8416
 5804TIP3    H241608   3.834   2.375  11.646  0.2099 -2.4886  1.4989
 5805TIP3   OH241609   6.645   5.548  12.230  0.3694  0.6423 -0.2015
 5805TIP3    H141610   6.562   5.592  12.248  1.0820  1.4501  1.2781
 5805TIP3    H241611   6.619   5.461  12.200 -1.0186  0.3911  1.5485
 5806TIP3   OH241612   4.314   6.669  13.931 -0.2494 -0.1130 -0.7787
 5806TIP3    H141613   4.237   6.612  13.925 -0.0461 -0.6699  1.2367
 5806TIP3    H241614   4.278   6.758  13.932 -0.7176 -0.2765 -1.5556
 5807TIP3   OH241615   1.315   5.581  13.071 -0.0363 -0.0722  0.0641
 5807TIP3    H141616   1.405   5.553  13.053 -0.0418 -0.2249  0.2717
 5807TIP3    H241617   1.323   5.675  13.086  0.0679 -0.0598 -0.0612
 5808TIP3   OH241618   5.889   6.094  12.721  0.1885  0.2681  0.3225
 5808TIP3    H141619   5.865   6.052  12.638 -1.2300 -1.2757  1.4720
 5808TIP3    H241620   5.979   6.065  12.736  0.0822 -0.3285 -0.1343
 5809TIP3   OH241621   5.245   3.428  13.300  0.3127 -0.8075 -0.1634
 5809TIP3    H141622   5.258   3.518  13.270  0.3925 -0.7978 -0.0977
 5809TIP3    H241623   5.332   3.388  13.294  0.1065 -1.1494 -1.0940
 5810TIP3   OH241624   3.333   3.230  13.431 -0.1858  0.0191  0.2028
 5810TIP3    H141625   3.354   3.151  13.480 -0.1605 -0.7756 -1.0509
 5810TIP3    H241626   3.249   3.260  13.468  0.3439  0.0420  1.4183
 5811TIP3   OH241627   5.907   7.981  11.534 -0.7894  0.3092  1.1007
 5811TIP3    H141628   5.949   8.041  11.473  0.5213  1.5257  3.1073
 5811TIP3    H241629   5.966   7.905  11.537 -0.8681  0.2377  0.8434
 5812TIP3   OH241630   7.653   6.489  13.771  0.4242 -0.2710 -0.0278
 5812TIP3    H141631   7.641   6.496  13.866 -0.1063 -0.2323 -0.0946
 5812TIP3    H241632   7.702   6.408  13.758 -1.0213 -1.2136  0.1696
 5813TIP3   OH241633   1.869   4.346  12.029 -0.4458 -0.8947 -0.2663
 5813TIP3    H141634   1.944   4.293  12.052  0.4489 -0.3986 -1.8942
 5813TIP3    H241635   1.906   4.422  11.984 -1.8079  0.2327  0.4397
 5814TIP3   OH241636   8.023   5.153  12.548  0.4459  0.5454  0.6971
 5814TIP3    H141637   7.953   5.166  12.612  0.4934  1.1596  0.6311
 5814TIP3    H241638   7.983   5.177  12.464  0.1933 -0.8538  0.3906
 5815TIP3   OH241639   5.901   3.592  13.531 -0.5907 -0.1036 -0.6481
 5815TIP3    H141640   5.813   3.562  13.506 -0.9420 -0.3714  0.8083
 5815TIP3    H241641   5.961   3.538  13.480 -1.2705 -0.0761 -1.4915
 5816TIP3   OH241642   0.187   2.338  11.850 -0.2248  0.1318  0.0898
 5816TIP3    H141643   0.170   2.276  11.779  1.3658  1.3677 -1.4838
 5816TIP3    H241644   0.102   2.377  11.869 -0.9221 -1.1966 -0.1582
 5817TIP3   OH241645   2.307   2.834  11.857 -0.3184  0.1586 -0.4611
 5817TIP3    H141646   2.246   2.891  11.903  1.4201  1.1862  0.6749
 5817TIP3    H241647   2.390   2.847  11.902  0.4574 -2.2543 -1.0443
 5818TIP3   OH241648   1.264   7.100  12.615 -0.1182 -0.0453  0.1891
 5818TIP3    H141649   1.226   7.184  12.641 -0.8467  1.2862 -4.2263
 5818TIP3    H241650   1.194   7.036  12.628 -2.2073  1.4118 -2.6754
 5819TIP3   OH241651   5.914   2.432  11.812 -0.2116  0.2560  0.0930
 5819TIP3    H141652   5.973   2.358  11.830 -0.8358 -0.4093 -0.5298
 5819TIP3    H241653   5.848   2.427  11.881 -1.1401 -0.7379 -0.8222
 5820TIP3   OH241654   0.045   1.668  13.265 -0.6326 -0.6337  0.2510
 5820TIP3    H141655  -0.014   1.729  13.221 -2.1575 -1.4649  1.0243
 5820TIP3    H241656   0.072   1.606  13.197  1.5146  1.2336 -0.7092
 5821TIP3   OH241657   4.061   0.624  13.098  0.1085  0.1712  0.5236
 5821TIP3    H141658   4.014   0.684  13.039  0.9129  2.7300  2.3194
 5821TIP3    H241659   4.006   0.619  13.176  0.5597 -0.6261  0.7990
 5822TIP3   OH241660   6.934   4.159  11.591  0.3955 -0.1600  0.8297
 5822TIP3    H141661   6.892   4.110  11.662  0.9740 -1.3350  0.3715
 5822TIP3    H241662   6.880   4.140  11.514  0.5058  0.0911  0.6910
 5823TIP3   OH241663   6.210   8.405  12.231  0.2172 -0.1322 -0.2369
 5823TIP3    H141664   6.277   8.473  12.244 -0.7174  1.1146 -1.6082
 5823TIP3    H241665   6.181   8.417  12.141 -0.0449 -2.3554 -0.5043
 5824TIP3   OH241666   4.979   7.594  13.568  0.0385  0.2249  0.0460
 5824TIP3    H141667   5.000   7.567  13.657 -0.8286  1.3037  0.5898
 5824TIP3    H241668   5.038   7.542  13.513  0.6972 -0.3276  1.2432
 5825TIP3   OH241669   2.419   5.232  12.624 -0.0305 -0.0695  0.0697
 5825TIP3    H141670   2.405   5.250  12.531  1.6913  0.3808 -0.1327
 5825TIP3    H241671   2.419   5.318  12.666  1.6654 -0.0414  0.0848
 5826TIP3   OH241672   8.142   2.869  13.311 -0.0303  0.3286 -0.6514
 5826TIP3    H141673   8.156   2.927  13.386  1.0828 -0.9358  0.1529
 5826TIP3    H241674   8.090   2.797  13.346  0.7967 -0.4506 -0.9903
 5827TIP3   OH241675   6.218   5.865  11.301 -0.5869 -0.4806 -0.3548
 5827TIP3    H141676   6.278   5.813  11.354  1.2533  2.8744  1.2034
 5827TIP3    H241677   6.262   5.875  11.217 -1.5079 -2.2940 -1.0962
 5828TIP3   OH241678   0.553   1.618  12.793 -0.0425  0.1662 -0.0959
 5828TIP3    H141679   0.614   1.556  12.833  0.0366  0.8744  0.9328
 5828TIP3    H241680   0.476   1.616  12.850 -0.5936  0.0044 -0.8335
 5829TIP3   OH241681   1.978   7.954  12.354 -0.0947  0.1062 -0.1583
 5829TIP3    H141682   2.058   7.966  12.405  0.8266  1.1567 -1.7294
 5829TIP3    H241683   1.960   8.042  12.319 -1.3402 -0.3387 -0.6714
 5830TIP3   OH241684   2.277   5.826  12.904  0.2647  0.2336 -0.3145
 5830TIP3    H141685   2.256   5.767  12.977  0.1460 -0.2422 -0.7287
 5830TIP3    H241686   2.364   5.798  12.876  0.8926  1.3047  0.5122
 5831TIP3   OH241687   0.395   3.685  11.524 -0.2741 -0.0074 -0.3236
 5831TIP3    H141688   0.474   3.729  11.492 -0.6454  1.8934  1.1403
 5831TIP3    H241689   0.324   3.746  11.503 -0.6103  1.1653  3.3557
 5832TIP3   OH241690   3.452   3.639  14.016  0.1692 -0.2152 -0.0857
 5832TIP3    H141691   3.542   3.671  14.003  0.2905 -0.5863 -0.1593
 5832TIP3    H241692   3.415   3.636  13.928  0.1763 -0.3378 -0.0834
 5833TIP3   OH241693   0.196   3.367  13.797 -0.1272 -0.1584  0.3457
 5833TIP3    H141694   0.237   3.315  13.865 -1.8809 -1.0523  0.7881
 5833TIP3    H241695   0.254   3.359  13.721  0.9897 -0.5241  1.2261
 5834TIP3   OH241696   3.658   1.438  12.658  0.0214 -0.1444 -0.0779
 5834TIP3    H141697   3.652   1.466  12.566 -0.4002  1.4684  0.3935
 5834TIP3    H241698   3.705   1.509  12.701 -1.7386  0.2307  1.3458
 5835TIP3   OH241699   0.548   6.363  13.687 -0.1093 -0.1880 -0.1782
 5835TIP3    H141700   0.559   6.291  13.625 -1.1947 -0.9027  0.4069
 5835TIP3    H241701   0.584   6.329  13.769 -1.2075 -0.3394  0.2639
 5836TIP3   OH241702   0.458   1.038  12.609  0.0262  0.1214 -0.0701
 5836TIP3    H141703   0.437   0.953  12.646 -0.6680  0.5322  0.5051
 5836TIP3    H241704   0.535   1.022  12.554 -0.9189 -1.1456 -1.0811
 5837TIP3   OH241705   5.652   7.873  11.643 -0.2461 -0.0964  0.3653
 5837TIP3    H141706   5.733   7.883  11.594 -0.4885  0.3904  0.0477
 5837TIP3    H241707   5.584   7.910  11.585 -0.7377 -0.7619  0.4991
 5838TIP3   OH241708   4.939   7.694  11.883 -0.0899 -0.0394  0.1370
 5838TIP3    H141709   4.891   7.720  11.804 -0.4342  2.5184  1.1062
 5838TIP3    H241710   5.026   7.734  11.873 -0.3710  0.9139  1.3537
 5839TIP3   OH241711   2.263   4.969  13.323 -0.3690 -0.1981  0.2880
 5839TIP3    H141712   2.235   4.902  13.385  1.2140 -0.1631  1.1104
 5839TIP3    H241713   2.326   4.924  13.267 -0.4042  0.2328 -0.1003
 5840TIP3   OH241714   0.656   1.273  12.396 -0.2299  0.4346  0.0560
 5840TIP3    H141715   0.608   1.354  12.413  0.2760  1.1476 -1.7327
 5840TIP3    H241716   0.694   1.249  12.480 -1.3184  1.4223  0.8602
 5841TIP3   OH241717   0.691   4.603  13.244 -0.1063 -0.1494  0.5090
 5841TIP3    H141718   0.722   4.609  13.154  0.5971 -1.8013  0.6034
 5841TIP3    H241719   0.655   4.690  13.263 -0.0161  0.3130 -1.2564
 5842TIP3   OH241720   5.256   7.731  12.908 -0.3333 -0.1612  0.6417
 5842TIP3    H141721   5.234   7.812  12.864 -1.5240 -1.0008 -0.3810
 5842TIP3    H241722   5.336   7.751  12.957 -0.0193  1.3177 -0.4161
 5843TIP3   OH241723   4.726   0.430  13.428  0.4413  0.1962 -0.0868
 5843TIP3    H141724   4.797   0.366  13.426  0.2240 -0.1340  1.4536
 5843TIP3    H241725   4.728   0.471  13.342  0.3898 -2.0804 -1.2574
 5844TIP3   OH241726   4.590   4.926  11.808 -0.2851 -0.0004  0.7925
 5844TIP3    H141727   4.679   4.907  11.835  0.3690 -0.2574 -1.3387
 5844TIP3    H241728   4.591   5.018  11.784 -0.1977 -0.3230 -0.5266
 5845TIP3   OH241729   5.305   7.678  12.113  0.2489  0.0837 -0.3060
 5845TIP3    H141730   5.386   7.711  12.150 -0.5710  1.1323  0.6141
 5845TIP3    H241731   5.305   7.584  12.134  1.3098  0.0146 -0.5368
 5846TIP3   OH241732   7.135   2.121  12.715  0.0471  0.3679 -0.2693
 5846TIP3    H141733   7.050   2.152  12.748 -0.4845 -0.1262 -1.1300
 5846TIP3    H241734   7.177   2.200  12.681  0.3525  0.7785  1.0320
 5847TIP3   OH241735   6.843   2.914  12.645  0.7121 -0.2557 -0.2141
 5847TIP3    H141736   6.812   2.831  12.609  1.4554 -0.0522 -1.3575
 5847TIP3    H241737   6.864   2.894  12.737  0.8072 -1.3072 -0.4520
 5848TIP3   OH241738   2.371   7.701  12.336  0.3984 -0.0707  0.3544
 5848TIP3    H141739   2.347   7.618  12.376  0.2718  0.0078  0.4438
 5848TIP3    H241740   2.460   7.688  12.304  0.5317 -0.1090  0.7352
 5849TIP3   OH241741   2.913   7.508  12.975 -0.2160 -1.2551  0.3561
 5849TIP3    H141742   2.903   7.553  12.891  1.5478  1.1525  1.3411
 5849TIP3    H241743   2.842   7.541  13.029  0.2250 -0.7616  0.6344
 5850TIP3   OH241744   7.605   7.376  11.869 -0.1553  0.8067 -0.6056
 5850TIP3    H141745   7.624   7.398  11.960  0.6876  1.5430 -0.9495
 5850TIP3    H241746   7.566   7.288  11.874  0.0651  0.7520  0.4379
 5851TIP3   OH241747   0.915   2.301  11.992  0.0550  0.1180  0.3470
 5851TIP3    H141748   0.988   2.262  11.944 -0.2814  0.8263 -0.7651
 5851TIP3    H241749   0.872   2.358  11.929 -0.3726  1.1239  1.5097
 5852TIP3   OH241750   1.176   3.369  12.506  0.4287 -0.0004 -0.8005
 5852TIP3    H141751   1.116   3.344  12.577 -0.9743  2.0684 -1.1524
 5852TIP3    H241752   1.247   3.306  12.512  0.1921 -0.1534  2.2082
 5853TIP3   OH241753   2.547   2.593  12.490 -0.2793  0.1584 -0.3955
 5853TIP3    H141754   2.463   2.559  12.460  1.5126 -3.7473 -1.6683
 5853TIP3    H241755   2.583   2.639  12.415 -0.8467  1.0254 -0.1494
 5854TIP3   OH241756   6.272   1.505  12.815 -0.1282  0.5719 -0.0104
 5854TIP3    H141757   6.356   1.547  12.833 -0.0157  0.5286 -0.4222
 5854TIP3    H241758   6.266   1.434  12.879  0.7117 -0.1937 -0.7707
 5855TIP3   OH241759   1.883   0.608  13.170  0.1714  0.3082  0.2025
 5855TIP3    H141760   1.909   0.519  13.149  0.2776  0.1302  1.0444
 5855TIP3    H241761   1.794   0.600  13.205 -1.0060  0.8756 -2.3768
 5856TIP3   OH241762   5.849   1.642  12.487 -0.7446  0.3194  0.6852
 5856TIP3    H141763   5.877   1.721  12.440  0.1503  0.7101  1.8215
 5856TIP3    H241764   5.902   1.642  12.567  0.5020 -2.3310 -0.0309
 5857TIP3   OH241765   6.729   7.417  13.049 -0.5103 -0.4436 -0.4709
 5857TIP3    H141766   6.724   7.339  12.994  1.3586  1.4699 -3.6955
 5857TIP3    H241767   6.659   7.474  13.017 -0.5439  0.0308  0.4053
 5858TIP3   OH241768   6.649   5.894  11.348  0.0101 -0.3188  0.0838
 5858TIP3    H141769   6.640   5.989  11.362 -0.7327 -0.4965  0.9189
 5858TIP3    H241770   6.737   5.883  11.314  0.8333  0.4932  1.8131
 5859TIP3   OH241771   0.238   4.406  12.834 -0.0174 -0.5396  0.0997
 5859TIP3    H141772   0.278   4.483  12.792  0.9932 -1.0483  0.0997
 5859TIP3    H241773   0.149   4.434  12.854  0.5884  0.9442  0.8916
 5860TIP3   OH241774   2.289   0.883  12.710 -0.0580 -0.1626 -0.4291
 5860TIP3    H141775   2.352   0.934  12.761  1.4907 -1.2769 -1.1438
 5860TIP3    H241776   2.343   0.830  12.651 -1.7334 -0.0058 -2.1889
 5861TIP3   OH241777   2.083   1.559  12.146 -0.2089 -0.2448 -0.1605
 5861TIP3    H141778   2.003   1.556  12.093  0.0723  0.3638 -0.6314
 5861TIP3    H241779   2.051   1.575  12.235 -0.5399  2.2882 -0.6546
 5862TIP3   OH241780   7.041   4.161  12.447  0.4187  0.0039  0.0317
 5862TIP3    H141781   7.003   4.221  12.383  0.3523 -0.3625 -0.2791
 5862TIP3    H241782   7.099   4.105  12.395 -0.4394 -0.9962  0.0988
 5863TIP3   OH241783   0.365   5.616  12.422 -0.3918  0.4685 -0.0110
 5863TIP3    H141784   0.392   5.538  12.471 -0.3991 -0.5137 -1.5219
 5863TIP3    H241785   0.351   5.585  12.333  0.2225  2.3386 -0.8044
 5864TIP3   OH241786   4.310   1.219  11.962 -0.2111  0.5024 -0.1021
 5864TIP3    H141787   4.222   1.239  11.995 -0.4229 -1.2714  0.5018
 5864TIP3    H241788   4.332   1.135  12.001  1.9375  1.0786  0.0739
 5865TIP3   OH241789   6.260   3.051  13.252  0.1285 -0.3548 -0.0946
 5865TIP3    H141790   6.336   3.044  13.310 -0.0946 -0.5905  0.1706
 5865TIP3    H241791   6.250   3.145  13.237  0.4222 -0.3170 -0.0677
 5866TIP3   OH241792   5.023   4.832  14.072 -0.0739 -0.3693  0.0883
 5866TIP3    H141793   4.933   4.825  14.102  0.1330 -1.9426  0.4147
 5866TIP3    H241794   5.076   4.806  14.147  0.6520  0.3662 -0.1561
 5867TIP3   OH241795   2.325   8.431  13.417  0.6153  0.0467 -0.8778
 5867TIP3    H141796   2.293   8.507  13.368  0.7613  1.0277  0.4739
 5867TIP3    H241797   2.267   8.360  13.392 -1.9706  1.4777  0.5920
 5868TIP3   OH241798   5.056   5.247  13.240 -0.1963 -0.0135  0.1085
 5868TIP3    H141799   5.112   5.324  13.227  0.1432  0.0245  1.5886
 5868TIP3    H241800   5.081   5.187  13.170  0.4822  0.6979 -0.2809
 5869TIP3   OH241801   0.294   0.205  11.402  0.4553 -0.7840  0.0003
 5869TIP3    H141802   0.327   0.287  11.365  0.8040 -0.9428 -0.0436
 5869TIP3    H241803   0.342   0.136  11.354  1.3986 -0.9846  1.1853
 5870TIP3   OH241804   0.385   5.639  12.145  0.7562 -0.3758  0.5187
 5870TIP3    H141805   0.425   5.619  12.061  0.0671  0.6080 -0.0540
 5870TIP3    H241806   0.398   5.733  12.157 -0.7913 -0.1533  0.6270
 5871TIP3   OH241807   0.945   3.553  13.662 -0.1473  0.0122 -0.0336
 5871TIP3    H141808   0.975   3.465  13.686 -0.6332  0.5228  2.8566
 5871TIP3    H241809   1.017   3.610  13.688  0.0589  0.5526 -1.6657
 5872TIP3   OH241810   6.100   6.582  12.107 -0.1359  0.4952 -0.1604
 5872TIP3    H141811   6.114   6.559  12.015 -0.9808  0.2046 -0.2322
 5872TIP3    H241812   6.168   6.646  12.127  0.4026  0.1399 -0.8292
 5873TIP3   OH241813   3.327   5.870  13.339  0.2511 -0.3756 -0.3834
 5873TIP3    H141814   3.251   5.847  13.392  0.6481 -0.6595  0.0740
 5873TIP3    H241815   3.373   5.787  13.325  1.3494  0.0129  0.7385
 5874TIP3   OH241816   5.171   7.140  11.695 -0.3854  0.3744  0.0859
 5874TIP3    H141817   5.236   7.151  11.626 -0.6333 -1.8791 -0.5602
 5874TIP3    H241818   5.091   7.178  11.659 -0.1223  0.6713 -0.1934
 5875TIP3   OH241819   2.265   1.576  12.774 -0.3896  0.1426  0.1013
 5875TIP3    H141820   2.357   1.571  12.799  0.0475  1.7377 -1.0213
 5875TIP3    H241821   2.239   1.665  12.797 -0.2855  1.3472 -3.7620
 5876TIP3   OH241822   7.492   3.682  12.427 -0.0516  0.4541 -0.6079
 5876TIP3    H141823   7.560   3.647  12.369 -0.2158  1.7170 -1.6178
 5876TIP3    H241824   7.507   3.777  12.426 -0.0085  0.5184  1.5265
 5877TIP3   OH241825   4.117   8.148  12.375  0.5172 -0.3114  0.4572
 5877TIP3    H141826   4.080   8.135  12.462  1.0936 -1.1072  0.5869
 5877TIP3    H241827   4.184   8.081  12.367  1.0159  0.2614 -0.2973
 5878TIP3   OH241828   3.312   1.219  12.492  0.2646 -0.5724 -0.3379
 5878TIP3    H141829   3.338   1.285  12.427 -1.4164  1.4867  0.9456
 5878TIP3    H241830   3.378   1.226  12.561  0.4499 -0.6958 -0.5022
 5879TIP3   OH241831   6.084   7.455  11.762  0.1100 -0.7404  0.4490
 5879TIP3    H141832   6.013   7.427  11.820  1.2271 -0.3143  2.1052
 5879TIP3    H241833   6.160   7.405  11.791  0.4560 -1.4095 -1.4926
 5880TIP3   OH241834   3.441   2.278  12.865  0.5030  0.1321  0.8864
 5880TIP3    H141835   3.469   2.200  12.817  0.1424  0.0333  0.8317
 5880TIP3    H241836   3.504   2.287  12.936 -0.8243 -1.6193  2.3711
 5881TIP3   OH241837   4.241   0.664  11.606 -0.1291  0.0679  0.1291
 5881TIP3    H141838   4.188   0.588  11.581 -0.4251 -0.0264  1.0155
 5881TIP3    H241839   4.293   0.634  11.680  0.3883  0.4778 -0.0638
 5882TIP3   OH241840   1.092   7.913  12.617 -0.1230 -0.2993  0.0382
 5882TIP3    H141841   1.135   7.872  12.691  0.6259  0.5141  0.0799
 5882TIP3    H241842   0.998   7.896  12.630  0.1723 -2.4418 -0.2637
 5883TIP3   OH241843   8.273   2.824  12.367  0.4846  0.0582  0.2838
 5883TIP3    H141844   8.351   2.873  12.389  1.5762 -0.6985 -1.6485
 5883TIP3    H241845   8.228   2.878  12.302  1.1174 -0.9041 -1.0131
 5884TIP3   OH241846   1.962   8.135  13.057 -0.0758 -0.1897  0.7462
 5884TIP3    H141847   1.964   8.054  13.109 -0.4689 -0.1292  0.8576
 5884TIP3    H241848   1.919   8.109  12.975 -0.2786 -0.0761  0.8161
 5885TIP3   OH241849   8.025   3.519  13.603  0.3339 -0.5473  0.5477
 5885TIP3    H141850   7.998   3.589  13.662  0.0423 -0.7604  0.6692
 5885TIP3    H241851   8.078   3.563  13.536 -2.2938  0.3407 -1.1289
 5886TIP3   OH241852   8.007   5.991  13.204  0.4966  0.4417  0.1681
 5886TIP3    H141853   8.042   5.913  13.161  0.9486  0.5117  0.4101
 5886TIP3    H241854   7.936   5.957  13.260  0.2321  0.2935 -0.2501
 5887TIP3   OH241855   3.358   3.411  12.180  0.3711  0.4542 -0.0056
 5887TIP3    H141856   3.366   3.405  12.084 -0.8332  2.3786 -0.2832
 5887TIP3    H241857   3.380   3.502  12.200  0.5503  0.0878  1.5649
 5888TIP3   OH241858   3.455   3.849  13.112 -0.2795  0.0044  0.4261
 5888TIP3    H141859   3.439   3.755  13.103 -1.3499  0.2130  0.0635
 5888TIP3    H241860   3.373   3.890  13.085  0.7364  1.1122 -1.1185
 5889TIP3   OH241861   2.752   3.391  13.778 -0.3818 -0.3149  0.3113
 5889TIP3    H141862   2.787   3.426  13.860  0.8432 -0.5652 -0.0794
 5889TIP3    H241863   2.827   3.394  13.718 -0.6613 -2.1403 -0.1725
 5890TIP3   OH241864   4.559   7.699  12.200 -0.0428  0.0110  0.6565
 5890TIP3    H141865   4.528   7.784  12.231  0.8212  2.6266 -4.5946
 5890TIP3    H241866   4.655   7.705  12.207  0.0607 -0.1157 -0.5572
 5891TIP3   OH241867   8.322   5.848  13.984 -0.0647  0.4855  0.1235
 5891TIP3    H141868   8.364   5.931  13.964  0.1196  0.1327 -1.0322
 5891TIP3    H241869   8.380   5.805  14.046  1.5985 -0.2227 -1.8313
 5892TIP3   OH241870   3.640   6.273  11.751 -0.1587 -0.5147  0.6857
 5892TIP3    H141871   3.659   6.216  11.826 -0.5256  0.7005  1.7532
 5892TIP3    H241872   3.724   6.313  11.728 -0.0582 -0.8373  0.4916
 5893TIP3   OH241873   5.537   5.459  13.904  0.0496 -0.2234  0.0994
 5893TIP3    H141874   5.523   5.365  13.894  0.3274 -0.6657  3.0525
 5893TIP3    H241875   5.457   5.499  13.871  0.3023 -1.3662 -2.1140
 5894TIP3   OH241876   2.975   7.777  11.892 -0.0690 -0.1571 -0.1981
 5894TIP3    H141877   2.993   7.870  11.905 -0.1739 -0.1902  0.1985
 5894TIP3    H241878   3.032   7.751  11.819 -1.1219  0.5559 -1.2964
 5895TIP3   OH241879   4.829   6.725  12.136  0.3691 -0.3396  0.2682
 5895TIP3    H141880   4.861   6.651  12.188  0.1564  0.8084  2.1466
 5895TIP3    H241881   4.818   6.795  12.200 -3.9569 -0.0202 -0.5265
 5896TIP3   OH241882   0.171   6.245  14.028  0.9505  0.2210  0.5295
 5896TIP3    H141883   0.170   6.338  14.005 -1.8738 -0.4133 -2.6317
 5896TIP3    H241884   0.217   6.202  13.955  1.1110 -1.0062  1.3184
 5897TIP3   OH241885   2.485   4.905  12.393  0.4531  0.9165 -0.4531
 5897TIP3    H141886   2.562   4.871  12.347 -0.7837  0.0734 -1.9837
 5897TIP3    H241887   2.489   5.000  12.378  1.7098  1.0185  0.3456
 5898TIP3   OH241888   5.276   0.198  13.184  0.1910 -0.4445 -0.2419
 5898TIP3    H141889   5.210   0.265  13.166  0.6770  0.6519  1.7355
 5898TIP3    H241890   5.257   0.169  13.274  0.4474 -2.4732 -0.7780
 5899TIP3   OH241891   1.341   1.698  12.212  0.7706 -0.4846  0.1012
 5899TIP3    H141892   1.301   1.639  12.277  2.4711 -1.4232  0.3538
 5899TIP3    H241893   1.370   1.773  12.263  1.4797 -0.9095  0.3463
 5900TIP3   OH241894   7.211   2.875  13.022 -0.0818 -0.4928  0.2984
 5900TIP3    H141895   7.276   2.943  13.039  0.7743 -0.9339 -1.0905
 5900TIP3    H241896   7.183   2.847  13.110  1.2061  0.0701  0.9136
 5901TIP3   OH241897   1.234   4.429  12.524 -0.5480  0.0811  0.2836
 5901TIP3    H141898   1.168   4.428  12.456  1.2136  0.6028 -1.5229
 5901TIP3    H241899   1.256   4.336  12.538 -1.5236 -0.0829  0.8034
 5902TIP3   OH241900   4.881   7.534  12.649 -0.4479  0.3900  0.0045
 5902TIP3    H141901   4.955   7.479  12.621  0.1697  0.7795  0.8355
 5902TIP3    H241902   4.884   7.609  12.590  1.2022  1.4916  1.4119
 5903TIP3   OH241903   6.891   3.013  13.409  0.2346 -0.3140 -0.6237
 5903TIP3    H141904   6.884   2.956  13.486  0.8179 -0.0624 -0.3821
 5903TIP3    H241905   6.816   3.071  13.415  1.0716  0.6793  0.5608
 5904TIP3   OH241906   0.987   8.012  12.155 -0.5712 -0.1611  0.2869
 5904TIP3    H141907   0.918   7.967  12.106 -0.3741  0.1567 -0.2936
 5904TIP3    H241908   0.940   8.071  12.214 -0.8078  1.0154 -1.0151
 5905TIP3   OH241909   6.667   2.041  13.288 -0.3179 -0.2350 -0.4309
 5905TIP3    H141910   6.582   2.070  13.253  0.8858  3.0794 -0.9702
 5905TIP3    H241911   6.665   1.946  13.278 -3.9358 -0.3126 -0.4397
 5906TIP3   OH241912   6.122   1.875  13.392 -0.4892  0.0270  1.0641
 5906TIP3    H141913   6.055   1.930  13.433  0.5443  1.1887  1.2456
 5906TIP3    H241914   6.203   1.896  13.438  0.6266  1.0139 -1.1624
 5907TIP3   OH241915   4.977   1.369  11.777  0.0881 -0.0784 -0.0779
 5907TIP3    H141916   4.997   1.303  11.843  1.2739 -0.8621 -1.1598
 5907TIP3    H241917   4.893   1.341  11.741 -0.7043  0.5207  1.2719
 5908TIP3   OH241918   3.840   7.377  12.378  0.1926 -0.8818 -0.3028
 5908TIP3    H141919   3.906   7.417  12.436 -0.3308 -0.9243  0.3349
 5908TIP3    H241920   3.768   7.439  12.377 -0.0457 -1.1584 -0.4379
 5909TIP3   OH241921   2.168   8.294  13.136 -0.2927  0.1042  0.6631
 5909TIP3    H141922   2.188   8.261  13.224 -1.1676  0.6378  1.0765
 5909TIP3    H241923   2.101   8.234  13.102  1.4911 -1.3534 -0.5008
 5910TIP3   OH241924   0.011   3.134  12.745 -0.0407  0.4735  0.4408
 5910TIP3    H141925  -0.008   3.055  12.796  1.9380  0.4664  1.2858
 5910TIP3    H241926  -0.050   3.131  12.672 -1.6156 -0.5775  1.7382
 5911TIP3   OH241927   0.877   0.787  13.469 -0.1221 -0.4906  0.3066
 5911TIP3    H141928   0.902   0.772  13.560 -1.7776 -0.0129  0.8869
 5911TIP3    H241929   0.952   0.829  13.429  0.9671 -1.5032  1.2083
 5912TIP3   OH241930   4.451   8.183  13.351 -0.3115  0.2076  0.1309
 5912TIP3    H141931   4.523   8.243  13.365  0.8286 -0.5409 -2.0169
 5912TIP3    H241932   4.469   8.109  13.409  0.6383  0.0673 -0.3184
 5913TIP3   OH241933   0.984   6.294  11.804 -0.2976 -0.5532 -0.1178
 5913TIP3    H141934   0.972   6.247  11.886 -0.5753 -0.0234  0.1538
 5913TIP3    H241935   1.061   6.350  11.820 -0.4503 -0.3292 -0.1557
 5914TIP3   OH241936   2.131   3.730  12.596  0.1492  0.2347 -0.3102
 5914TIP3    H141937   2.100   3.697  12.680  1.2969 -1.0114 -0.3456
 5914TIP3    H241938   2.147   3.652  12.543  0.4441  0.9563 -1.3243
 5915TIP3   OH241939   1.896   8.314  12.055  0.0786  0.2791 -0.4453
 5915TIP3    H141940   1.811   8.345  12.086  0.6680  1.7059 -0.1451
 5915TIP3    H241941   1.877   8.234  12.006 -1.0051 -1.7924  2.9906
 5916TIP3   OH241942   3.873   7.777  11.657  0.6753  0.6404  0.0230
 5916TIP3    H141943   3.930   7.764  11.733  0.9773 -0.2318 -0.3415
 5916TIP3    H241944   3.808   7.707  11.664  0.4257  0.8406 -0.2731
 5917TIP3   OH241945   2.536   7.298  12.085  0.3608 -0.0554 -0.1504
 5917TIP3    H141946   2.472   7.341  12.028 -0.2125 -0.2924  0.3048
 5917TIP3    H241947   2.527   7.205  12.065 -0.6721 -0.2631  1.1239
 5918TIP3   OH241948   1.528   6.469  12.444 -0.0390  0.6060  0.1257
 5918TIP3    H141949   1.570   6.500  12.364 -0.2269  0.9101  0.1447
 5918TIP3    H241950   1.575   6.512  12.515  1.5791 -1.3309  0.3089
 5919TIP3   OH241951   1.834   7.170  12.762  0.0934  0.1382  0.1968
 5919TIP3    H141952   1.904   7.177  12.697 -0.2716 -0.9085 -0.3457
 5919TIP3    H241953   1.832   7.255  12.806  1.7663  0.1566  0.2951
 5920TIP3   OH241954   7.022   5.742  11.579 -0.1463  0.1147 -0.1871
 5920TIP3    H141955   6.927   5.731  11.588  0.1869 -2.1658  1.1148
 5920TIP3    H241956   7.034   5.837  11.568 -2.7269  0.2552 -3.0145
 5921TIP3   OH241957   2.966   5.435  12.730 -0.0893  0.2164  0.5084
 5921TIP3    H141958   3.034   5.414  12.667  1.4572  1.2610  1.7385
 5921TIP3    H241959   2.942   5.526  12.711  0.4493  0.5710  1.4034
 5922TIP3   OH241960   4.022   5.853  12.690 -0.2139  0.2744  0.3790
 5922TIP3    H141961   4.101   5.845  12.743  0.0842 -0.0639 -0.1118
 5922TIP3    H241962   3.951   5.865  12.754 -0.4749 -4.0005  1.1658
 5923TIP3   OH241963   3.355   6.826  12.344 -0.1390  0.6141 -0.3406
 5923TIP3    H141964   3.276   6.815  12.397 -0.0249  1.9859  0.1618
 5923TIP3    H241965   3.329   6.886  12.274 -0.0684 -0.5452 -1.4034
 5924TIP3   OH241966   4.867   5.526  12.479 -0.0875 -0.3957  0.3211
 5924TIP3    H141967   4.884   5.567  12.394 -0.8657 -0.1539  0.2715
 5924TIP3    H241968   4.946   5.476  12.498  1.8513  2.7912  1.3731
 5925TIP3   OH241969   6.318   8.055  12.449 -0.3337 -0.0371 -0.0653
 5925TIP3    H141970   6.236   8.015  12.419 -0.4803 -0.6122  1.0493
 5925TIP3    H241971   6.365   8.076  12.369 -1.4761  0.1083 -0.7269
 5926TIP3   OH241972   1.645   7.440  11.961 -0.1237 -0.1193 -0.0467
 5926TIP3    H141973   1.692   7.409  11.884  1.8465  0.8588  0.6884
 5926TIP3    H241974   1.713   7.477  12.018 -1.7572  1.1739  1.1955
 5927TIP3   OH241975   2.068   5.433  13.136 -0.1812  0.2150  0.0591
 5927TIP3    H141976   2.109   5.372  13.198  3.2137  0.8861 -1.2594
 5927TIP3    H241977   2.027   5.500  13.191 -0.3446 -1.0365  1.5255
 5928TIP3   OH241978   4.609   7.800  13.066  0.0828 -0.4261 -0.3536
 5928TIP3    H141979   4.560   7.881  13.051  2.1626  0.8884 -0.5572
 5928TIP3    H241980   4.552   7.731  13.034 -1.2932  1.0626 -1.2842
 5929TIP3   OH241981   0.026   0.379  13.145  1.0483  0.2365  0.2673
 5929TIP3    H141982   0.070   0.457  13.111  1.2562  0.1538  0.3422
 5929TIP3    H241983  -0.067   0.401  13.145  1.2202  1.0425  1.7521
 5930TIP3   OH241984   0.188   3.767  12.504 -0.3102  0.4403  0.4278
 5930TIP3    H141985   0.112   3.712  12.483  1.0881 -1.4777  0.0814
 5930TIP3    H241986   0.219   3.798  12.419  0.7737 -0.9348  0.2791
 5931TIP3   OH241987   1.491   0.748  12.632 -0.0248 -0.0262 -0.6204
 5931TIP3    H141988   1.546   0.748  12.710  1.6596  0.7563 -1.7458
 5931TIP3    H241989   1.406   0.783  12.662 -0.4732 -2.5621  1.4580
 5932TIP3   OH241990   3.249   8.147  13.006 -0.4907 -0.2306  0.1330
 5932TIP3    H141991   3.173   8.203  12.993 -1.0199 -1.1047 -0.6583
 5932TIP3    H241992   3.243   8.119  13.097  1.0035  2.7002  1.2669
 5933TIP3   OH241993   5.099   4.198  13.838  0.1385  0.0353 -0.1936
 5933TIP3    H141994   5.059   4.204  13.751 -0.7358  1.4229  0.2673
 5933TIP3    H241995   5.042   4.139  13.887  0.9752 -1.2446 -0.7114
 5934TIP3   OH241996   2.600   6.358  13.107  0.6248  0.5389 -0.1470
 5934TIP3    H141997   2.670   6.311  13.062  0.5374  0.9202 -0.7028
 5934TIP3    H241998   2.622   6.451  13.094  1.6541  0.6947  2.2681
 5935TIP3   OH241999   2.205   3.938  12.294  0.1007  0.2883 -0.3136
 5935TIP3    H142000   2.131   3.880  12.309  0.2541  0.1333 -0.1607
 5935TIP3    H242001   2.253   3.898  12.221 -0.9676  1.3481 -1.6351
 5936TIP3   OH242002   2.683   8.146  12.261  0.3631 -0.0995 -0.6616
 5936TIP3    H142003   2.644   8.232  12.247  0.7281  0.0387 -0.8196
 5936TIP3    H242004   2.608   8.086  12.258 -0.0695  0.3311  0.7155
 5937TIP3   OH242005   8.347   7.044  13.277  0.2674  0.0819  0.2661
 5937TIP3    H142006   8.272   7.072  13.224  0.2755  1.2341  0.8387
 5937TIP3    H242007   8.407   7.003  13.214  0.7545  2.3298 -0.8475
 5938TIP3   OH242008   3.022   2.476  13.446  0.9111 -0.4553 -0.3986
 5938TIP3    H142009   3.012   2.511  13.358 -2.2709 -2.4143 -0.9705
 5938TIP3    H242010   2.959   2.525  13.499  1.6470 -0.3966  0.4495
 5939TIP3   OH242011   7.428   0.894  12.316 -0.0215 -0.4420  0.4528
 5939TIP3    H142012   7.513   0.933  12.337 -0.5926  1.6432 -0.8447
 5939TIP3    H242013   7.421   0.899  12.221 -2.5857  1.8752  0.6126
 5940TIP3   OH242014   0.312   0.232  13.130  0.3251  0.0311  0.4897
 5940TIP3    H142015   0.281   0.259  13.216  0.8670 -0.9031  1.0050
 5940TIP3    H242016   0.233   0.225  13.076 -0.3108 -1.5627  1.5560
 5941TIP3   OH242017   7.997   6.288  11.854  0.2428  0.2252  0.0094
 5941TIP3    H142018   7.958   6.331  11.779 -0.8966  1.1914  1.1233
 5941TIP3    H242019   8.085   6.326  11.860 -0.1194  1.1088 -0.0826
 5942TIP3   OH242020   6.873   3.109  11.963  0.4963 -0.3563 -0.4998
 5942TIP3    H142021   6.802   3.077  12.018  0.9192  0.2182  0.4007
 5942TIP3    H242022   6.946   3.121  12.023  1.1907 -0.4073 -1.3189
 5943TIP3   OH242023   3.977   1.458  11.995 -0.2179 -0.2210 -0.2278
 5943TIP3    H142024   3.911   1.440  11.928 -0.2469 -0.1347 -0.2229
 5943TIP3    H242025   3.995   1.373  12.035  2.6052 -1.0659 -2.8901
 5944TIP3   OH242026   3.533   3.083  11.889 -0.6058 -0.5924 -0.0602
 5944TIP3    H142027   3.612   3.031  11.904  0.0714  0.5140  0.2643
 5944TIP3    H242028   3.554   3.138  11.814 -1.5644 -1.2286 -0.8297
 5945TIP3   OH242029   4.155   6.107  12.546 -0.9980 -0.2139  0.2297
 5945TIP3    H142030   4.117   6.019  12.538  0.8791 -1.3048  2.3175
 5945TIP3    H242031   4.137   6.132  12.637 -0.1418  0.9022  0.1025
 5946TIP3   OH242032   6.351   8.039  12.962  0.2840  0.9014  0.1198
 5946TIP3    H142033   6.261   8.033  12.928  0.2551  1.4701  0.0856
 5946TIP3    H242034   6.405   7.999  12.894  0.3456  2.9952 -1.1247
 5947TIP3   OH242035   8.230   1.757  11.733 -0.3161  0.3216 -0.3980
 5947TIP3    H142036   8.210   1.756  11.639 -0.5155 -0.9876 -0.3647
 5947TIP3    H242037   8.155   1.713  11.773 -0.3061  1.0196  0.3966
 5948TIP3   OH242038   3.679   4.937  11.740  0.8394  0.3003  0.0452
 5948TIP3    H142039   3.613   4.920  11.807  2.2332 -2.0573  0.9561
 5948TIP3    H242040   3.684   5.033  11.735 -0.6778  0.5464  1.8958
 5949TIP3   OH242041   6.165   3.692  12.121 -0.6304 -0.7508 -0.5678
 5949TIP3    H142042   6.091   3.669  12.177 -0.8890 -0.2569 -0.7014
 5949TIP3    H242043   6.180   3.785  12.138 -0.6100 -0.6349 -1.1990
 5950TIP3   OH242044   1.572   0.738  13.627 -0.0008 -0.1867 -0.2724
 5950TIP3    H142045   1.536   0.823  13.600 -0.8775 -0.7292 -0.8870
 5950TIP3    H242046   1.521   0.674  13.577 -0.4645 -1.1654  1.3725
 5951TIP3   OH242047   7.844   7.614  12.272  0.2729 -0.8181  0.0503
 5951TIP3    H142048   7.869   7.578  12.358  0.7648 -0.4891  0.0496
 5951TIP3    H242049   7.905   7.687  12.258  0.2968 -0.9627 -0.6456
 5952TIP3   OH242050   0.729   1.212  13.872  0.1345  0.4360  0.5884
 5952TIP3    H142051   0.732   1.300  13.835  1.8596  0.2651  0.2030
 5952TIP3    H242052   0.640   1.181  13.855 -0.4706  2.0535  0.6467
 5953TIP3   OH242053   1.798   7.167  11.787  0.4084  0.2994 -0.1719
 5953TIP3    H142054   1.830   7.093  11.735  1.2052  0.0668  0.6162
 5953TIP3    H242055   1.706   7.147  11.803  0.4469 -0.1883 -0.5330
 5954TIP3   OH242056   4.247   5.648  12.963 -1.1188 -0.3008 -0.3511
 5954TIP3    H142057   4.237   5.620  12.872 -1.2928 -0.1134 -0.3892
 5954TIP3    H242058   4.332   5.692  12.965 -2.4350  2.4958 -1.1449
 5955TIP3   OH242059   4.340   7.925  12.425 -0.0246 -0.2069 -0.2930
 5955TIP3    H142060   4.354   7.859  12.492  0.2738 -1.3734 -1.4653
 5955TIP3    H242061   4.295   7.879  12.354  1.0659  0.5810 -1.5583
 5956TIP3   OH242062   6.258   1.941  16.397  0.5102 -0.2966 -0.1813
 5956TIP3    H142063   6.206   1.991  16.334 -0.4554 -1.7190 -0.5613
 5956TIP3    H242064   6.347   1.942  16.360 -0.1112 -1.4296 -1.8237
 5957TIP3   OH242065   7.141   7.523  11.671 -0.0097  0.0000 -0.4478
 5957TIP3    H142066   7.079   7.590  11.698 -0.1006 -0.5835  0.8821
 5957TIP3    H242067   7.087   7.448  11.647  0.1388 -0.3675  0.3123
 5958TIP3   OH242068   7.463   4.229  12.388 -0.1143  0.2838 -0.1462
 5958TIP3    H142069   7.522   4.291  12.345 -0.0878  0.2370 -0.1774
 5958TIP3    H242070   7.479   4.145  12.343 -0.4134  0.3340 -0.3504
 5959TIP3   OH242071   3.719   8.041  13.490  0.5588 -0.4679 -0.4524
 5959TIP3    H142072   3.677   8.127  13.492 -0.4264 -0.9214 -0.9021
 5959TIP3    H242073   3.648   7.980  13.469  1.1473 -1.4480  0.2732
 5960TIP3   OH242074   1.227   5.410  13.337 -0.2313  0.1492 -0.5875
 5960TIP3    H142075   1.213   5.485  13.280  1.0235 -0.2582 -1.4492
 5960TIP3    H242076   1.143   5.399  13.383 -0.3297  2.2614 -0.1951
 5961TIP3   OH242077   4.294   4.413  11.835  0.2582  0.6967  0.2614
 5961TIP3    H142078   4.297   4.396  11.929 -0.9661  1.5777  0.4854
 5961TIP3    H242079   4.222   4.475  11.824 -0.9650 -0.9204 -1.4758
 5962TIP3   OH242080   5.972   5.079  13.311 -0.2357  0.1576 -0.6151
 5962TIP3    H142081   5.984   5.009  13.247 -0.8741  0.2786 -0.8808
 5962TIP3    H242082   5.916   5.040  13.379  1.2317 -0.2767  0.3857
 5963TIP3   OH242083   6.964   6.944  11.457  0.6133 -0.0630  0.5188
 5963TIP3    H142084   6.950   6.851  11.473  2.4451 -0.1435  1.9279
 5963TIP3    H242085   6.905   6.988  11.519 -1.0936 -0.2076 -0.9157
 5964TIP3   OH242086   4.986   1.152  13.475 -0.2155 -0.0624  0.2987
 5964TIP3    H142087   4.900   1.172  13.514  0.2568  0.0668  1.3075
 5964TIP3    H242088   5.037   1.114  13.547 -0.2414 -2.6247 -0.9247
 5965TIP3   OH242089   6.010   0.912  11.780  0.1048 -0.5103  0.3026
 5965TIP3    H142090   5.977   0.938  11.694 -1.3071 -0.7152  0.7571
 5965TIP3    H242091   6.095   0.956  11.787  0.2179 -0.4327 -1.1537
 5966TIP3   OH242092   2.260   1.430  11.943 -0.3341 -0.3057 -0.5724
 5966TIP3    H142093   2.189   1.450  12.003 -0.0566 -1.2166  0.0894
 5966TIP3    H242094   2.220   1.430  11.856 -0.6148  1.6660 -0.4878
 5967TIP3   OH242095   7.106   4.283  13.375  0.4362 -0.3529 -0.3360
 5967TIP3    H142096   7.198   4.258  13.365  0.7888  0.5628  0.4580
 5967TIP3    H242097   7.108   4.375  13.401 -0.6518 -0.5830  0.6889
 5968TIP3   OH242098   3.688   6.544  13.424  0.3480  0.1396 -0.6473
 5968TIP3    H142099   3.723   6.613  13.481 -0.5926  0.1342 -0.0415
 5968TIP3    H242100   3.597   6.569  13.411  0.0585 -0.8700 -0.6074
 5969TIP3   OH242101   0.268   4.455  13.149  0.3102  1.3375  0.5085
 5969TIP3    H142102   0.329   4.383  13.166  0.3355  1.6487  1.8898
 5969TIP3    H242103   0.293   4.488  13.063 -0.3793 -0.9571 -0.6375
 5970TIP3   OH242104   2.054   8.426  13.688 -0.2607 -0.2917  0.3620
 5970TIP3    H142105   2.077   8.343  13.730  0.2747  0.5297  1.7647
 5970TIP3    H242106   2.049   8.406  13.595  2.3766 -1.3750  0.3706
 5971TIP3   OH242107   3.885   6.354  11.657  0.0250 -0.6754  0.1119
 5971TIP3    H142108   3.951   6.286  11.646 -0.0474 -0.5998 -0.8934
 5971TIP3    H242109   3.906   6.418  11.589 -1.2892 -0.8164 -0.4519
 5972TIP3   OH242110   4.164   1.587  13.444  0.4062 -0.0728  0.0227
 5972TIP3    H142111   4.114   1.609  13.365  1.1273  0.2902 -0.3466
 5972TIP3    H242112   4.168   1.669  13.493  0.6298 -0.1019  0.0536
 5973TIP3   OH242113   0.527   0.717  13.485  0.1475 -0.0984 -0.4014
 5973TIP3    H142114   0.433   0.697  13.484  0.4906 -2.0379  0.4050
 5973TIP3    H242115   0.560   0.666  13.560  1.8289  0.6123 -0.6388
 5974TIP3   OH242116   5.613   1.201  12.822 -0.4572 -0.1360  0.9039
 5974TIP3    H142117   5.543   1.221  12.760  0.8771  0.2732 -0.5143
 5974TIP3    H242118   5.648   1.116  12.793  0.3159  0.1552  0.9652
 5975TIP3   OH242119   8.236   6.427  11.681  0.1572  0.6372 -0.2803
 5975TIP3    H142120   8.312   6.377  11.649  0.1419 -0.2545  0.9720
 5975TIP3    H242121   8.274   6.497  11.734  0.1356  0.2077  0.3229
 5976TIP3   OH242122   7.688   8.226  12.088  0.2645 -0.1589  0.2983
 5976TIP3    H142123   7.712   8.262  12.174  1.6668 -1.9936  0.7288
 5976TIP3    H242124   7.615   8.167  12.107 -1.7319  1.9677 -0.3410
 5977TIP3   OH242125   8.015   7.294  11.782  0.3331 -0.0777  0.7226
 5977TIP3    H142126   7.944   7.288  11.718 -0.2589 -1.9529  1.4858
 5977TIP3    H242127   8.069   7.367  11.752  0.1631 -0.9775 -1.9940
 5978TIP3   OH242128   5.545   7.638  11.935 -0.0027 -0.2253  0.2871
 5978TIP3    H142129   5.469   7.662  11.882 -0.7163 -0.7788  1.0287
 5978TIP3    H242130   5.602   7.715  11.931 -0.2260 -0.1051 -0.9284
 5979TIP3   OH242131   4.381   3.469  12.236  0.0207  0.5373 -0.5508
 5979TIP3    H142132   4.347   3.557  12.221 -0.8436  0.4506  0.7769
 5979TIP3    H242133   4.329   3.413  12.178  2.2246  1.1048 -3.3270
 5980TIP3   OH242134   7.817   5.898  13.375  0.1261 -0.5591  0.7630
 5980TIP3    H142135   7.764   5.850  13.312  0.4951 -0.9864  0.7722
 5980TIP3    H242136   7.759   5.914  13.449 -0.4479  0.3330  0.1459
 5981TIP3   OH242137   3.397   2.853  11.678 -0.0206 -0.1441  0.1693
 5981TIP3    H142138   3.409   2.785  11.611  1.1416  0.3758 -0.1603
 5981TIP3    H242139   3.485   2.884  11.697 -0.6325  2.7126 -1.1821
 5982TIP3   OH242140   0.397   5.040  12.230 -0.3575  0.2365 -0.5884
 5982TIP3    H142141   0.345   5.013  12.154 -0.9049 -0.0736 -0.1147
 5982TIP3    H242142   0.482   5.064  12.194 -1.1282  1.7301 -1.5153
 5983TIP3   OH242143   0.355   8.374  12.488 -0.0039 -0.0927  0.2290
 5983TIP3    H142144   0.298   8.388  12.412 -1.0775  0.9203  1.1744
 5983TIP3    H242145   0.322   8.293  12.528 -0.3753  0.1372  0.3996
 5984TIP3   OH242146   8.307   3.203  12.501  0.0307  0.7981 -0.7136
 5984TIP3    H142147   8.216   3.199  12.472  0.3057 -2.3309 -1.6061
 5984TIP3    H242148   8.348   3.267  12.443 -1.1297  0.4785 -1.9438
 5985TIP3   OH242149   1.294   6.999  11.837  0.2809 -0.1141  0.0194
 5985TIP3    H142150   1.267   7.077  11.884  1.3975  1.9559 -2.5446
 5985TIP3    H242151   1.212   6.956  11.812 -0.3356  0.0580  1.6387
 5986TIP3   OH242152   0.637   3.296  12.243  0.4973 -0.0362 -0.1054
 5986TIP3    H142153   0.657   3.271  12.333  2.0888 -0.8547 -0.6594
 5986TIP3    H242154   0.638   3.392  12.243  0.8441 -0.0376  0.6547
 5987TIP3   OH242155   5.856   7.449  11.984 -0.6199  0.0770  0.5655
 5987TIP3    H142156   5.846   7.377  12.047 -0.4722  0.1101  0.6293
 5987TIP3    H242157   5.769   7.487  11.977 -0.9381 -0.7659 -0.2705
 5988TIP3   OH242158   2.852   1.385  13.400  0.2224 -0.8062  0.1240
 5988TIP3    H142159   2.921   1.400  13.336 -0.2515 -1.7632 -0.6289
 5988TIP3    H242160   2.809   1.304  13.371 -1.5695  0.0513  0.2546
 5989TIP3   OH242161   4.570   5.970  12.464  0.3216 -0.1988  0.0222
 5989TIP3    H142162   4.650   5.938  12.421 -0.6884 -1.0637 -1.3065
 5989TIP3    H242163   4.534   5.894  12.508  0.7622  0.4390  1.5453
 5990TIP3   OH242164   6.497   2.354  12.499 -0.5259  0.5062  0.5560
 5990TIP3    H142165   6.528   2.287  12.561 -0.3462  0.2672  0.2164
 5990TIP3    H242166   6.450   2.417  12.553 -1.8115 -0.5496  0.7392
 5991TIP3   OH242167   2.593   6.547  12.722 -0.1979  1.1378  0.2660
 5991TIP3    H142168   2.639   6.630  12.726 -1.1756  1.9356 -2.4453
 5991TIP3    H242169   2.506   6.569  12.687 -0.1360 -1.0717 -1.5460
 5992TIP3   OH242170   6.314   7.282  11.767 -0.1772 -0.2912  0.2158
 5992TIP3    H142171   6.299   7.297  11.674 -1.3888 -0.1198  0.4237
 5992TIP3    H242172   6.409   7.287  11.777 -0.1691  2.5574 -0.5185
 5993TIP3   OH242173   6.734   1.964  12.054 -0.0356 -0.1930  0.4867
 5993TIP3    H142174   6.664   1.922  12.105  0.1348  0.8121  1.5833
 5993TIP3    H242175   6.756   2.043  12.104 -0.0035  0.9578 -1.2451
 5994TIP3   OH242176   6.712   7.552  11.922  0.1091 -0.3026  0.4382
 5994TIP3    H142177   6.617   7.560  11.930  0.0534 -1.0046  0.5693
 5994TIP3    H242178   6.743   7.543  12.012  0.0825 -2.1296  0.3063
 5995TIP3   OH242179   7.417   3.845  12.788 -0.2061  0.5257  0.1857
 5995TIP3    H142180   7.484   3.803  12.842 -1.5425 -1.6799  0.2620
 5995TIP3    H242181   7.465   3.885  12.716  1.1755 -2.4701 -0.7400
 5996TIP3   OH242182   3.439   3.565  13.143  0.0970  0.0846 -0.0117
 5996TIP3    H142183   3.358   3.575  13.193  0.1572 -1.1825  0.3892
 5996TIP3    H242184   3.452   3.470  13.139  0.7681  0.2193 -1.3614
 5997TIP3   OH242185   4.644   3.137  12.959  0.2032  0.1400  0.1384
 5997TIP3    H142186   4.557   3.171  12.979  0.4324  0.2106  1.0664
 5997TIP3    H242187   4.655   3.062  13.017  0.6666 -0.0130 -0.1403
 5998TIP3   OH242188   1.844   2.032  11.434  0.2409  0.2442  0.3022
 5998TIP3    H142189   1.895   1.953  11.418  0.2884  0.4599 -0.6616
 5998TIP3    H242190   1.825   2.066  11.347 -1.3560  0.2876  0.6408
 5999TIP3   OH242191   7.211   8.349  12.290 -0.5999 -0.0156 -0.2965
 5999TIP3    H142192   7.249   8.263  12.273 -2.0654 -0.3465 -2.2434
 5999TIP3    H242193   7.151   8.335  12.363 -1.0208 -0.7231 -0.7681
 6000TIP3   OH242194   5.380   6.619  12.091 -0.0566 -0.7396 -0.3341
 6000TIP3    H142195   5.348   6.676  12.021 -1.0515 -1.4690 -0.5009
 6000TIP3    H242196   5.475   6.630  12.089 -0.2096  0.8690 -0.3768
 6001TIP3   OH242197   0.556   8.178  12.200  0.3315  0.1832 -0.2997
 6001TIP3    H142198   0.485   8.242  12.193  0.6296  0.5617  0.0062
 6001TIP3    H242199   0.546   8.122  12.124  0.3148  0.8639 -0.8100
 6002TIP3   OH242200   6.527   5.837  12.416 -0.3499  0.4548  0.6289
 6002TIP3    H142201   6.542   5.757  12.466  1.0005  0.8628  0.9110
 6002TIP3    H242202   6.504   5.807  12.328 -2.4486 -0.2685  1.3422
 6003TIP3   OH242203   4.482   3.704  13.706 -0.3398 -0.1149  0.3986
 6003TIP3    H142204   4.416   3.673  13.769  0.2645  1.0140  1.6294
 6003TIP3    H242205   4.438   3.697  13.622 -0.9093 -2.4069  0.8039
 6004TIP3   OH242206   7.058   6.020  12.708 -0.2311  0.2631  0.0439
 6004TIP3    H142207   7.046   6.073  12.787 -1.5358  1.1273 -0.6983
 6004TIP3    H242208   7.079   5.932  12.741 -1.6833  0.3827  1.3785
 6005TIP3   OH242209   6.430   4.600  11.693 -0.1526  0.1880 -0.0150
 6005TIP3    H142210   6.501   4.652  11.657  0.6007 -0.2663  0.7673
 6005TIP3    H242211   6.425   4.628  11.785 -0.0004 -0.8328  0.3111
 6006TIP3   OH242212   2.161   5.477  12.785 -0.5059  0.1047 -0.0367
 6006TIP3    H142213   2.121   5.563  12.772 -0.3092  0.0154 -1.3902
 6006TIP3    H242214   2.095   5.426  12.833 -0.3017  1.2314  1.5072
 6007TIP3   OH242215   6.823   6.291  12.407 -0.4475  0.1966  0.1552
 6007TIP3    H142216   6.769   6.222  12.446 -0.9730  0.6938  0.3187
 6007TIP3    H242217   6.912   6.256  12.410 -0.6680 -0.3558  0.4963
 6008TIP3   OH242218   0.126   7.659  11.801  0.3491 -0.5761  0.4297
 6008TIP3    H142219   0.050   7.629  11.851 -1.5110 -1.6418 -2.7181
 6008TIP3    H242220   0.116   7.754  11.796 -3.0133 -0.8682 -2.8069
 6009TIP3   OH242221   3.431   3.588  11.779 -0.4283  0.0462 -0.2489
 6009TIP3    H142222   3.526   3.578  11.792 -0.4063 -2.0169 -1.5599
 6009TIP3    H242223   3.394   3.509  11.817 -1.4661  0.0542 -1.2038
 6010TIP3   OH242224   5.158   5.927  13.664 -0.2784  0.1124 -0.1683
 6010TIP3    H142225   5.182   6.010  13.704  2.7043 -0.5750 -0.2958
 6010TIP3    H242226   5.076   5.903  13.707 -0.4948  2.4318  0.8533
 6011TIP3   OH242227   5.275   7.175  12.799 -0.3267  0.3216 -0.1989
 6011TIP3    H142228   5.359   7.133  12.817 -0.4142  1.1846  2.5711
 6011TIP3    H242229   5.213   7.102  12.790  0.4726 -0.2692 -1.1069
 6012TIP3   OH242230   7.536   7.288  12.537 -0.1675 -0.0379 -0.4948
 6012TIP3    H142231   7.460   7.275  12.593 -1.8758  0.0104 -2.6593
 6012TIP3    H242232   7.523   7.228  12.464  1.0284  1.1182 -1.7356
 6013TIP3   OH242233   6.527   5.302  12.204  0.3483 -0.0904  0.8732
 6013TIP3    H142234   6.439   5.324  12.234 -0.0861 -1.1851  0.4759
 6013TIP3    H242235   6.548   5.220  12.249  1.1317  0.1088  0.8903
 6014TIP3   OH242236   6.995   0.206  12.868  0.3960 -0.2246 -0.0893
 6014TIP3    H142237   6.912   0.227  12.826  0.1743  0.8969  0.8410
 6014TIP3    H242238   7.033   0.292  12.890  0.9847 -0.7454  1.0232
 6015TIP3   OH242239   2.916   3.537  11.730  0.3321 -0.2189 -0.2154
 6015TIP3    H142240   3.009   3.559  11.742  0.3507 -0.9518  1.2244
 6015TIP3    H242241   2.878   3.547  11.817 -0.6066 -1.4584 -0.4591
 6016TIP3   OH242242   8.188   6.876  12.379  0.0929  0.1399 -0.1267
 6016TIP3    H142243   8.259   6.831  12.335 -0.8765 -0.0830 -1.5192
 6016TIP3    H242244   8.211   6.873  12.472  1.9893  0.2667 -0.5582
 6017TIP3   OH242245   4.945   3.196  13.349 -0.1463 -0.5033  0.1804
 6017TIP3    H142246   5.007   3.131  13.381  1.9236  1.7015  0.9361
 6017TIP3    H242247   4.993   3.245  13.283 -1.4731  0.5562 -0.0548
 6018TIP3   OH242248   1.176   8.176  12.619 -0.1102 -0.6477  0.0703
 6018TIP3    H142249   1.143   8.088  12.599 -0.0916 -0.5089 -0.6138
 6018TIP3    H242250   1.253   8.185  12.564 -0.4534  0.0136 -0.3152
 6019TIP3   OH242251   3.731   6.377  12.342 -0.3517  0.6379  0.3316
 6019TIP3    H142252   3.739   6.412  12.253  1.3654  1.3420  0.7210
 6019TIP3    H242253   3.807   6.320  12.352  0.2511  1.6559  1.8136
 6020TIP3   OH242254   0.841   3.336  13.244  0.8075 -0.1882 -0.1592
 6020TIP3    H142255   0.926   3.299  13.222  0.4946 -0.8263 -0.3115
 6020TIP3    H242256   0.791   3.263  13.280  0.7733  0.4836  1.1902
 6021TIP3   OH242257   1.355   2.490  12.413  0.0703  0.2107  0.2426
 6021TIP3    H142258   1.307   2.411  12.441 -0.9723  1.7435  3.2396
 6021TIP3    H242259   1.290   2.544  12.369 -0.0244  0.7190  0.9970
 6022TIP3   OH242260   3.441   0.164  12.301  0.7745  0.0518  0.5151
 6022TIP3    H142261   3.378   0.179  12.372  0.1967  0.8449 -0.1526
 6022TIP3    H242262   3.525   0.189  12.338  0.4886  0.4045  0.9368
 6023TIP3   OH242263   1.566   2.166  12.444 -0.3904 -0.1358 -0.0805
 6023TIP3    H142264   1.613   2.235  12.397 -0.1826  0.6863  1.2544
 6023TIP3    H242265   1.510   2.214  12.506 -0.3127 -1.1634  0.8103
 6024TIP3   OH242266   5.952   4.877  12.506 -0.4769  0.2744  0.3834
 6024TIP3    H142267   5.911   4.943  12.561  2.0554  1.2047  1.2900
 6024TIP3    H242268   5.920   4.896  12.418 -0.7562  1.9229  0.8148
 6025TIP3   OH242269   0.740   1.949  13.171  0.0574 -0.2768 -0.4594
 6025TIP3    H142270   0.678   1.977  13.104  0.9391  1.5849 -0.5704
 6025TIP3    H242271   0.794   1.883  13.128 -0.8166 -0.7456 -0.8534
 6026TIP3   OH242272   3.393   0.059  11.641  0.4603  0.1166 -0.9115
 6026TIP3    H142273   3.467   0.082  11.584  0.7287  1.0914 -0.1955
 6026TIP3    H242274   3.361  -0.024  11.605  1.7281 -0.1952 -1.4065
 6027TIP3   OH242275   6.686   5.882  11.651 -0.0900  0.3619  0.0765
 6027TIP3    H142276   6.641   5.904  11.570 -0.8830 -1.2597  0.0208
 6027TIP3    H242277   6.660   5.791  11.669  0.0330  0.6762  2.1636
 6028TIP3   OH242278   4.002   5.523  12.188  0.1388 -0.0946 -0.2894
 6028TIP3    H142279   4.011   5.538  12.094  2.1192  2.2235  0.1601
 6028TIP3    H242280   4.073   5.462  12.210  2.0243  2.0883  0.1228
 6029TIP3   OH242281   2.638   5.251  12.109  0.2783 -0.0832 -0.4807
 6029TIP3    H142282   2.720   5.276  12.150 -0.3360 -0.6774  1.1826
 6029TIP3    H242283   2.603   5.333  12.073  1.1164  0.3407 -0.3606
 6030TIP3   OH242284   6.946   6.374  11.451 -0.0234 -0.3330  0.7181
 6030TIP3    H142285   6.966   6.385  11.544 -1.2262 -0.3992  0.9990
 6030TIP3    H242286   7.021   6.326  11.416  0.3344 -0.5090  1.7005
 6031TIP3   OH242287   4.954   1.062  12.821 -0.0847 -0.1182 -0.4368
 6031TIP3    H142288   5.011   1.136  12.799 -0.7612  0.9075  1.0433
 6031TIP3    H242289   5.014   0.994  12.851  0.5664 -0.2651 -2.0038
 6032TIP3   OH242290   8.204   0.090  12.400  0.7032  0.1496  0.3625
 6032TIP3    H142291   8.115   0.119  12.421  0.4381  0.5555 -1.2150
 6032TIP3    H242292   8.194   0.035  12.322  1.5839 -1.6404  1.4458
 6033TIP3   OH242293   8.332   2.584  11.581  0.2698 -0.2388 -0.4104
 6033TIP3    H142294   8.244   2.593  11.618  0.9935 -0.8953  1.6515
 6033TIP3    H242295   8.324   2.514  11.516 -0.3332 -1.9812  1.4189
 6034TIP3   OH242296   3.350   5.672  12.155 -0.2694 -0.1701  0.0666
 6034TIP3    H142297   3.439   5.706  12.145 -0.2327 -0.3918 -0.4168
 6034TIP3    H242298   3.305   5.700  12.075 -0.5964 -0.1638  0.2530
 6035TIP3   OH242299   2.318   4.917  12.620  0.4950 -0.0956  0.3145
 6035TIP3    H142300   2.263   4.978  12.571 -0.5481 -2.3152 -1.4381
 6035TIP3    H242301   2.374   4.876  12.553  1.8145 -0.4327  1.5711
 6036TIP3   OH242302   2.896   5.689  12.657 -0.1539  0.1842 -0.1313
 6036TIP3    H142303   2.813   5.729  12.629 -0.5994 -0.8037 -0.2792
 6036TIP3    H242304   2.950   5.763  12.685 -0.9511  0.8822 -0.3776
 6037TIP3   OH242305   6.389   1.972  12.498 -0.1682 -0.0855  0.1040
 6037TIP3    H142306   6.373   1.901  12.560 -1.5987  0.3314  0.2596
 6037TIP3    H242307   6.358   1.937  12.414 -1.3760  0.5150  0.2807
 6038TIP3   OH242308   6.220   3.803  12.976 -0.2050 -0.0466 -0.3858
 6038TIP3    H142309   6.314   3.789  12.976 -0.4813 -2.3222 -0.0709
 6038TIP3    H242310   6.202   3.848  13.059  0.7222  1.6717 -1.0902
 6039TIP3   OH242311   6.776   0.318  12.728  0.4374 -1.1782  0.2191
 6039TIP3    H142312   6.817   0.399  12.697 -0.7439 -1.0910 -1.2526
 6039TIP3    H242313   6.742   0.277  12.648 -2.2353 -1.2667  1.2845
 6040TIP3   OH242314   4.524   6.495  13.853  0.2067 -0.0393 -0.4349
 6040TIP3    H142315   4.443   6.443  13.852  0.0128  0.2447  0.0035
 6040TIP3    H242316   4.497   6.581  13.886  0.3682  0.6309 -1.9910
 6041TIP3   OH242317   1.412   8.351  11.571  0.0515  0.0198 -0.1952
 6041TIP3    H142318   1.492   8.401  11.558 -0.1627  0.7655  1.2087
 6041TIP3    H242319   1.356   8.376  11.497  0.0590  1.6385  0.3213
 6042TIP3   OH242320   2.669   0.892  12.577 -0.1832  0.4118 -0.2877
 6042TIP3    H142321   2.663   0.925  12.666 -0.6574  2.9972 -1.1918
 6042TIP3    H242322   2.636   0.802  12.582 -1.1856  0.8440  1.9500
 6043TIP3   OH242323   8.352   7.763  12.890  0.0652  0.3803  0.5079
 6043TIP3    H142324   8.429   7.777  12.945 -0.1263 -0.3004  0.9490
 6043TIP3    H242325   8.362   7.675  12.855 -0.5200  0.2843  0.5665
 6044TIP3   OH242326   8.034   3.400  12.902 -0.1189 -0.4927  0.1612
 6044TIP3    H142327   8.068   3.484  12.933 -0.7151 -0.5714  1.0762
 6044TIP3    H242328   8.094   3.374  12.832  0.1900  0.5902  0.0125
 6045TIP3   OH242329   5.752   4.726  11.682  0.7124 -0.6899  0.3215
 6045TIP3    H142330   5.745   4.752  11.774  1.8430 -0.1008  0.2601
 6045TIP3    H242331   5.716   4.637  11.680 -0.5364 -0.2297  1.0732
 6046TIP3   OH242332   3.263   1.664  13.420 -0.0410 -0.7883  1.1141
 6046TIP3    H142333   3.205   1.673  13.495  0.9898  1.9899  1.6677
 6046TIP3    H242334   3.205   1.661  13.344 -0.9978 -1.6833  1.8521
 6047TIP3   OH242335   5.678   4.602  12.753 -0.0693  0.1280  0.1763
 6047TIP3    H142336   5.647   4.668  12.691 -0.8742 -1.7071 -1.5124
 6047TIP3    H242337   5.773   4.607  12.748 -0.0767  1.9603  1.0468
 6048TIP3   OH242338   0.628   2.952  13.174  0.0103 -0.1745  0.3906
 6048TIP3    H142339   0.579   2.997  13.243  0.6887 -1.8352  2.0399
 6048TIP3    H242340   0.567   2.949  13.100 -0.2047  3.0141  0.2921
 6049TIP3   OH242341   5.912   5.311  12.975  0.1287  0.0664  0.0318
 6049TIP3    H142342   5.883   5.349  12.892  0.0730  0.0842  0.0598
 6049TIP3    H242343   6.005   5.334  12.980  0.5134 -1.2241 -0.7419
 6050TIP3   OH242344   2.987   3.202  13.983 -0.1712 -0.2660 -0.0651
 6050TIP3    H142345   2.933   3.138  13.936 -0.7234  0.3854 -0.3376
 6050TIP3    H242346   3.049   3.234  13.917  0.7264 -1.1769  0.3023
 6051TIP3   OH242347   1.838   2.719  12.214 -0.2506  0.5107 -0.1289
 6051TIP3    H142348   1.793   2.669  12.283 -0.5204  1.3770  0.3337
 6051TIP3    H242349   1.931   2.703  12.231 -0.3476 -1.1598 -0.9957
 6052TIP3   OH242350   4.727   8.170  11.863  0.1552  0.6751 -0.5561
 6052TIP3    H142351   4.694   8.090  11.903  0.4731  1.7419  2.0276
 6052TIP3    H242352   4.822   8.167  11.877  0.1512  1.5698 -0.2865
 6053TIP3   OH242353   7.513   1.606  13.653 -0.2516  0.1905 -0.6085
 6053TIP3    H142354   7.421   1.604  13.628  0.1128 -0.0879 -2.0653
 6053TIP3    H242355   7.560   1.611  13.569  1.1311 -2.1493 -0.0679
 6054TIP3   OH242356   5.504   2.745  11.597  0.3960  0.2768  0.1571
 6054TIP3    H142357   5.462   2.668  11.558  0.9307  0.4909 -0.8895
 6054TIP3    H242358   5.572   2.709  11.654  0.6423 -0.0316 -0.3234
 6055TIP3   OH242359   6.718   7.290  13.934  0.2020 -0.1969  0.0371
 6055TIP3    H142360   6.669   7.210  13.917 -0.3073 -0.3734  2.0298
 6055TIP3    H242361   6.805   7.259  13.960 -0.1217 -0.1603  1.2246
 6056TIP3   OH242362   1.794   1.414  12.076 -0.8453  0.2416  0.2503
 6056TIP3    H142363   1.803   1.495  12.026 -1.8118  0.3834  0.2924
 6056TIP3    H242364   1.756   1.352  12.014 -1.1976  0.1553  0.5504
 6057TIP3   OH242365   5.995   6.484  12.479 -0.1597 -0.2709 -0.2036
 6057TIP3    H142366   5.973   6.487  12.572 -0.8672  0.2530 -0.3853
 6057TIP3    H242367   5.948   6.557  12.440 -1.1693 -1.4248 -1.2410
 6058TIP3   OH242368   5.973   1.984  11.892  0.1028  0.3128 -0.2960
 6058TIP3    H142369   5.885   1.989  11.853 -0.4589  0.6185  0.9488
 6058TIP3    H242370   5.976   2.059  11.952  0.6615 -0.5467  0.7748
 6059TIP3   OH242371   1.149   2.031  12.715 -0.2967 -0.0580  0.0236
 6059TIP3    H142372   1.075   1.974  12.694 -0.7798  0.2571  0.8511
 6059TIP3    H242373   1.154   2.092  12.641  0.9758 -1.8584 -1.5003
 6060TIP3   OH242374   3.386   2.876  12.823  0.4086  0.2362  0.3403
 6060TIP3    H142375   3.445   2.952  12.827 -1.5206  1.7613  1.5300
 6060TIP3    H242376   3.337   2.888  12.742  2.2009 -1.4895 -1.0936
 6061TIP3   OH242377   5.543   5.433  12.884 -0.2213  0.2038 -0.0526
 6061TIP3    H142378   5.622   5.485  12.867 -0.4075  0.6612  0.4546
 6061TIP3    H242379   5.563   5.384  12.963 -1.3036  2.1683  1.5410
 6062TIP3   OH242380   1.926   7.825  12.108  0.0265  0.1147 -0.5638
 6062TIP3    H142381   1.953   7.906  12.065 -1.3775  1.2485  0.6097
 6062TIP3    H242382   1.931   7.845  12.201  0.3346 -1.4006 -0.2381
 6063TIP3   OH242383   5.372   4.606  12.746  0.4659 -0.0174  0.0638
 6063TIP3    H142384   5.434   4.601  12.819 -0.0986 -2.4041  0.4627
 6063TIP3    H242385   5.426   4.590  12.669  0.5888 -0.5371  0.2552
 6064TIP3   OH242386   4.467   3.075  12.155 -0.1391 -0.4461  0.3078
 6064TIP3    H142387   4.432   2.987  12.172  0.6016 -0.8213 -0.0315
 6064TIP3    H242388   4.430   3.099  12.070 -0.9164 -0.1187  0.7300
 6065TIP3   OH242389   7.189   7.312  13.421  0.0837  0.0068 -0.3110
 6065TIP3    H142390   7.129   7.310  13.346  0.4309 -1.5375 -0.5721
 6065TIP3    H242391   7.205   7.405  13.436  0.5494  0.3442 -2.6038
 6066TIP3   OH242392   2.621   1.816  13.336  0.3379  0.5239  0.3418
 6066TIP3    H142393   2.614   1.810  13.432 -0.1469 -2.0520  0.2319
 6066TIP3    H242394   2.603   1.727  13.306 -2.4167  1.7912 -2.3333
 6067TIP3   OH242395   0.542   7.424  12.820 -0.1031  0.1636  0.0532
 6067TIP3    H142396   0.537   7.372  12.901 -1.1833 -1.4926 -1.0157
 6067TIP3    H242397   0.574   7.362  12.754  2.8281  1.9957 -0.4390
 6068TIP3   OH242398   8.109   5.636  13.208  0.2422 -0.0646 -0.4091
 6068TIP3    H142399   8.058   5.650  13.128  1.4482  0.3732 -1.1143
 6068TIP3    H242400   8.160   5.557  13.191  0.2744 -0.1467  0.0493
 6069TIP3   OH242401   7.126   8.246  12.551 -0.7684  0.1032 -0.3289
 6069TIP3    H142402   7.146   8.331  12.590  0.3153 -0.6559  0.8692
 6069TIP3    H242403   7.055   8.211  12.605 -1.2910  0.2976 -0.8904
 6070TIP3   OH242404   1.570   8.133  12.133  0.2342  0.6031  0.1352
 6070TIP3    H142405   1.605   8.086  12.058  0.9626 -1.6427  1.7824
 6070TIP3    H242406   1.475   8.137  12.117  0.3401 -0.1657 -0.7334
 6071TIP3   OH242407   6.056   1.357  12.071  0.0881 -0.3265 -0.0097
 6071TIP3    H142408   6.129   1.303  12.100  0.3129 -0.0453 -0.0573
 6071TIP3    H242409   6.090   1.446  12.071 -0.2378 -0.2014 -0.0820
 6072TIP3   OH242410   7.340   3.856  13.486  0.6013  0.6579  0.1480
 6072TIP3    H142411   7.378   3.938  13.518  1.2554 -0.1044  1.4330
 6072TIP3    H242412   7.394   3.833  13.410  0.5818  1.2836 -0.0591
 6073TIP3   OH242413   6.183   0.388  12.834 -0.2388  0.4250 -0.3519
 6073TIP3    H142414   6.119   0.397  12.764 -1.5254 -2.8900  0.2214
 6073TIP3    H242415   6.135   0.345  12.906  2.1845 -0.7129  0.7141
 6074TIP3   OH242416   1.689   1.036  13.044  0.6616 -0.2836  0.3420
 6074TIP3    H142417   1.782   1.025  13.024  0.6539 -0.8956  0.6092
 6074TIP3    H242418   1.682   1.015  13.137  0.1004 -1.3273  0.0834
 6075TIP3   OH242419   2.828   0.724  11.322 -0.1638  0.2930  0.2236
 6075TIP3    H142420   2.767   0.706  11.250  0.1845  2.5808 -0.7227
 6075TIP3    H242421   2.777   0.706  11.401 -0.8117 -1.4808 -0.5485
 6076TIP3   OH242422   2.014   5.823  12.929  0.1768  0.3442 -0.3960
 6076TIP3    H142423   2.105   5.820  12.901 -0.0503 -0.8762 -1.0885
 6076TIP3    H242424   2.015   5.872  13.011  1.9865 -2.5225  1.4763
 6077TIP3   OH242425   6.227   7.519  12.303  0.0351 -0.0535  0.1840
 6077TIP3    H142426   6.316   7.512  12.267  0.5775 -0.3665  1.5384
 6077TIP3    H242427   6.174   7.550  12.229  1.6196  2.0930 -0.1647
 6078TIP3   OH242428   4.209   4.617  12.667 -0.1792 -0.4402 -0.4665
 6078TIP3    H142429   4.275   4.590  12.602 -1.0477 -2.0884 -0.7024
 6078TIP3    H242430   4.223   4.558  12.741  0.2758  0.9099  0.5708
 6079TIP3   OH242431   3.513   2.911  13.105  0.6645  0.0331 -0.3037
 6079TIP3    H142432   3.434   2.885  13.057  1.4407 -1.3962 -0.8693
 6079TIP3    H242433   3.572   2.945  13.037  0.4278  1.4613  0.1659
 6080TIP3   OH242434   6.589   0.835  13.786  0.2349 -0.0571  0.2568
 6080TIP3    H142435   6.654   0.781  13.832  0.3676 -1.6511 -1.6667
 6080TIP3    H242436   6.548   0.776  13.724  0.0041  1.9216 -1.6248
 6081TIP3   OH242437   0.044   2.812  12.627  0.1937  1.1321 -0.6085
 6081TIP3    H142438   0.031   2.879  12.560  0.8482  1.2574 -0.6172
 6081TIP3    H242439   0.074   2.735  12.578 -1.1384  0.6206 -0.6746
 6082TIP3   OH242440   1.144   6.934  12.810 -0.7342  0.5055  0.1765
 6082TIP3    H142441   1.155   6.852  12.859  0.3664  0.3747 -0.2435
 6082TIP3    H242442   1.057   6.965  12.833 -0.7272 -0.2065  1.2166
 6083TIP3   OH242443   3.561   7.914  13.257 -0.4086 -0.0333  0.2735
 6083TIP3    H142444   3.646   7.901  13.215  0.2162 -0.3244  1.5849
 6083TIP3    H242445   3.513   7.834  13.237 -0.6860  0.4465 -1.1180
 6084TIP3   OH242446   1.288   0.584  11.959  0.3398 -0.4603  0.3385
 6084TIP3    H142447   1.228   0.572  12.032  1.8474  2.0517  2.1391
 6084TIP3    H242448   1.292   0.679  11.946  0.1420 -0.7809 -3.0816
 6085TIP3   OH242449   0.283   2.877  11.744  0.4120 -0.2872 -0.1924
 6085TIP3    H142450   0.236   2.795  11.734 -1.1304  0.5358  0.0621
 6085TIP3    H242451   0.223   2.944  11.712  0.3408  1.0670  2.4459
 6086TIP3   OH242452   2.527   2.882  12.028  0.2208 -0.0967 -0.3432
 6086TIP3    H142453   2.611   2.858  11.989 -0.1706 -1.6443 -0.3167
 6086TIP3    H242454   2.540   2.869  12.122 -0.0432 -0.4044 -0.3445
 6087TIP3   OH242455   7.849   4.330  12.926  0.8933 -0.3432  0.4033
 6087TIP3    H142456   7.823   4.241  12.947  0.8201 -0.6810 -1.0249
 6087TIP3    H242457   7.926   4.321  12.871  2.1032  0.5591  1.8721
 6088TIP3   OH242458   4.435   6.759  11.834 -0.8399  0.7584  0.2593
 6088TIP3    H142459   4.477   6.772  11.919  1.1879  2.4618 -0.8818
 6088TIP3    H242460   4.460   6.670  11.808 -1.1222  0.3827  1.2327
 6089TIP3   OH242461   7.835   7.597  12.584 -0.2590 -0.8619  0.2325
 6089TIP3    H142462   7.766   7.614  12.519 -0.2933  0.6076  0.6244
 6089TIP3    H242463   7.822   7.665  12.650 -0.0008 -2.1189  1.6135
 6090TIP3   OH242464   6.719   1.505  12.966 -0.0265 -0.4219  0.0812
 6090TIP3    H142465   6.809   1.498  12.998 -0.4373  0.5439  1.5207
 6090TIP3    H242466   6.722   1.467  12.878  1.7186 -0.6830  0.2247
 6091TIP3   OH242467   7.407   6.159  13.382 -0.3852  0.4087 -0.1576
 6091TIP3    H142468   7.353   6.190  13.454 -0.8591  1.8669 -1.1036
 6091TIP3    H242469   7.489   6.209  13.390 -0.7086  1.1065 -1.0099
 6092TIP3   OH242470   6.591   7.004  12.495  0.0212  0.0127  0.2217
 6092TIP3    H142471   6.545   6.922  12.511  0.0442 -0.3191 -1.2477
 6092TIP3    H242472   6.625   7.030  12.581 -1.1294 -0.7999  0.9527
 6093TIP3   OH242473   1.646   5.916  12.020  0.4703 -0.3236  0.0709
 6093TIP3    H142474   1.556   5.890  12.034  0.5660 -0.3909  0.5764
 6093TIP3    H242475   1.653   5.931  11.926 -0.1509 -0.0040  0.0759
 6094TIP3   OH242476   5.565   1.315  13.337  0.3224  0.7435  0.2915
 6094TIP3    H142477   5.603   1.355  13.415 -0.4166 -0.7763  1.4781
 6094TIP3    H242478   5.471   1.318  13.352  0.2049 -0.2485 -0.1876
 6095TIP3   OH242479   0.358   4.336  13.754  0.1729  0.3808 -0.4544
 6095TIP3    H142480   0.325   4.365  13.839 -1.2477  1.1325 -1.2171
 6095TIP3    H242481   0.283   4.293  13.712  0.1876  1.8602 -2.1280
 6096TIP3   OH242482   6.322   2.229  12.320  0.3829 -1.3367 -0.4104
 6096TIP3    H142483   6.367   2.151  12.354 -0.0379 -1.3497  0.1284
 6096TIP3    H242484   6.366   2.302  12.364 -0.0126 -1.3411  0.0004
 6097TIP3   OH242485   6.283   8.219  11.602 -0.1057  0.1452 -0.2776
 6097TIP3    H142486   6.374   8.246  11.597 -0.4709  1.4936 -0.0790
 6097TIP3    H242487   6.279   8.162  11.679  0.8558 -1.2175 -1.2015
 6098TIP3   OH242488   2.301   5.819  13.658 -0.2580  0.0204 -0.2008
 6098TIP3    H142489   2.378   5.836  13.713  0.0582  0.1285 -0.6652
 6098TIP3    H242490   2.284   5.903  13.614  1.2218 -0.7379 -2.3965
 6099TIP3   OH242491   1.118   1.980  12.421  0.3810  0.0980  0.1032
 6099TIP3    H142492   1.080   2.051  12.369  1.2123 -0.2708 -1.0618
 6099TIP3    H242493   1.069   1.902  12.394  2.1673 -0.4784 -1.8066
 6100TIP3   OH242494   2.679   0.367  11.664 -0.3179  1.0427 -0.1509
 6100TIP3    H142495   2.676   0.272  11.650 -0.5983  0.8486  1.1671
 6100TIP3    H242496   2.643   0.380  11.751  2.2114  2.0943  0.8514
 6101TIP3   OH242497   5.040   0.353  13.150  0.1777  0.1961  0.3246
 6101TIP3    H142498   4.999   0.355  13.064  0.2722  1.4751  0.2884
 6101TIP3    H242499   4.981   0.301  13.204 -0.6182  0.5902 -0.1497
 6102TIP3   OH242500   1.241   4.285  11.695 -0.0694 -0.5043  0.1802
 6102TIP3    H142501   1.246   4.366  11.746 -0.4578  0.1211 -0.7670
 6102TIP3    H242502   1.168   4.298  11.635 -0.6699 -1.8800  0.5565
 6103TIP3   OH242503   5.079   4.757  13.246  0.0164 -0.0034 -0.4328
 6103TIP3    H142504   5.033   4.726  13.169 -0.6951  0.5161 -0.2299
 6103TIP3    H242505   5.024   4.829  13.280  0.6931  0.2665  0.1247
 6104TIP3   OH242506   4.640   4.935  12.468  0.5075  0.4629  0.8364
 6104TIP3    H142507   4.710   4.965  12.410  0.2545  0.0301  0.2934
 6104TIP3    H242508   4.566   4.993  12.449  0.1056 -0.2995 -0.0164
 6105TIP3   OH242509   8.403   6.533  13.043 -0.2344  0.0501  0.0325
 6105TIP3    H142510   8.445   6.583  12.973  0.3232  0.0100  0.3290
 6105TIP3    H242511   8.340   6.594  13.081 -0.2488  0.2077 -0.2434
 6106TIP3   OH242512   2.902   6.096  11.679  0.4025  0.2530 -0.2666
 6106TIP3    H142513   2.923   6.056  11.763  2.4295  0.1380 -0.7621
 6106TIP3    H242514   2.987   6.128  11.646 -0.7863  3.2430 -0.7942
 6107TIP3   OH242515   1.710   8.081  12.592 -0.2742  0.3345  0.0030
 6107TIP3    H142516   1.712   7.985  12.588  2.0807  0.3116  0.1945
 6107TIP3    H242517   1.756   8.109  12.512  2.3967  1.1401  1.6811
 6108TIP3   OH242518   1.326   6.554  12.670 -0.3561  0.4565 -0.0721
 6108TIP3    H142519   1.361   6.597  12.591  0.0536 -1.4656 -0.9958
 6108TIP3    H242520   1.403   6.515  12.711 -0.6129  1.2058  1.1649
 6109TIP3   OH242521   1.939   8.070  11.952 -0.0918  0.2026  0.2491
 6109TIP3    H142522   2.001   8.105  11.888 -0.3288  1.6995  0.8034
 6109TIP3    H242523   1.881   8.013  11.901  2.4032 -2.2361 -0.0926
 6110TIP3   OH242524   6.196   4.165  12.517 -0.0844 -0.0198 -0.1180
 6110TIP3    H142525   6.267   4.206  12.567  0.0715 -1.5060  0.9320
 6110TIP3    H242526   6.116   4.192  12.562  0.0722 -1.6238  1.2132
 6111TIP3   OH242527   4.916   4.926  13.401 -0.2027 -0.3960  0.0133
 6111TIP3    H142528   4.839   4.869  13.390 -0.3089 -0.2479 -0.0085
 6111TIP3    H242529   4.895   5.004  13.351  0.2261 -0.6063 -0.5057
 6112TIP3   OH242530   1.016   2.592  12.144  0.0923 -0.3367 -0.4198
 6112TIP3    H142531   1.093   2.567  12.093 -0.5028 -1.6313 -0.7353
 6112TIP3    H242532   1.040   2.573  12.235 -0.1160 -1.5210 -0.5950
 6113TIP3   OH242533   1.418   2.474  13.325 -0.3305 -0.1160  0.4208
 6113TIP3    H142534   1.416   2.381  13.300 -2.0220 -0.1748  0.6269
 6113TIP3    H242535   1.345   2.513  13.277  0.0140  0.9935  0.7755
 6114TIP3   OH242536   6.116   2.573  11.709 -0.5935  0.1155  0.0546
 6114TIP3    H142537   6.039   2.521  11.735 -0.1791 -0.1842  0.6897
 6114TIP3    H242538   6.191   2.524  11.743 -0.0433 -0.0952 -1.3583
 6115TIP3   OH242539   8.318   0.529  11.571 -0.0880  0.4106 -0.0304
 6115TIP3    H142540   8.363   0.519  11.655 -0.6864  0.5910  0.3227
 6115TIP3    H242541   8.237   0.576  11.593 -0.6290 -0.2401 -0.5919
 6116TIP3   OH242542   3.168   1.364  11.859 -0.3076  0.2049 -0.6869
 6116TIP3    H142543   3.226   1.359  11.783  0.2816  0.4523 -0.2607
 6116TIP3    H242544   3.131   1.276  11.866  1.5114 -0.5570  0.1718
 6117TIP3   OH242545   2.139   0.772  12.158 -0.1053 -0.4581 -0.2131
 6117TIP3    H142546   2.158   0.804  12.247 -0.3120 -0.2094 -0.2561
 6117TIP3    H242547   2.059   0.720  12.168 -0.7786  0.4983 -0.4359
 6118TIP3   OH242548   1.625   8.337  11.896 -0.1942  0.8555  0.2357
 6118TIP3    H142549   1.621   8.364  11.987  0.6163  2.2809 -0.1244
 6118TIP3    H242550   1.544   8.288  11.881  0.8674 -1.8394  2.4475
 6119TIP3   OH242551   4.210   2.831  12.913  0.0180 -0.3385 -0.5366
 6119TIP3    H142552   4.224   2.742  12.947 -0.3866 -0.0450  0.4458
 6119TIP3    H242553   4.278   2.883  12.955 -1.0464  0.2029  0.5796
 6120TIP3   OH242554   0.982   2.726  13.287 -0.1670 -0.8405  0.4467
 6120TIP3    H142555   0.924   2.674  13.232  0.4177  0.4924 -1.5870
 6120TIP3    H242556   1.062   2.674  13.295 -0.3976 -1.2135  0.3065
 6121TIP3   OH242557   2.352   7.091  12.618 -0.5288 -0.2343  0.0805
 6121TIP3    H142558   2.366   7.072  12.525 -0.9240  0.5595 -0.1498
 6121TIP3    H242559   2.432   7.061  12.661 -0.7384 -1.5305 -0.3765
 6122TIP3   OH242560   5.913   6.237  12.383  0.5497  0.1256 -0.4964
 6122TIP3    H142561   5.998   6.207  12.415 -0.0071 -0.2981  0.6197
 6122TIP3    H242562   5.911   6.331  12.403 -0.4363 -0.4147  2.2881
 6123TIP3   OH242563   1.676   2.025  12.656 -0.2414  0.0839 -0.0058
 6123TIP3    H142564   1.589   2.054  12.628 -1.0836 -0.4217  1.9121
 6123TIP3    H242565   1.702   1.960  12.592 -1.2292  0.3315 -0.6766
 6124TIP3   OH242566   2.991   6.784  11.769 -0.2306 -0.6983  0.2623
 6124TIP3    H142567   3.052   6.843  11.813 -1.1737 -1.4927  2.8432
 6124TIP3    H242568   3.035   6.699  11.771 -0.9176 -1.0494  1.1433
 6125TIP3   OH242569   7.229   3.186  12.700  0.9102  0.3309 -0.2228
 6125TIP3    H142570   7.173   3.250  12.742  0.3781 -1.0589  1.3012
 6125TIP3    H242571   7.230   3.210  12.607 -0.6195  1.5144  0.0512
 6126TIP3   OH242572   2.946   2.574  11.642  1.1513  0.0702  0.0812
 6126TIP3    H142573   2.967   2.657  11.599  1.2684  0.0992  0.1932
 6126TIP3    H242574   3.026   2.523  11.637  0.8081 -0.3889 -0.7868
 6127TIP3   OH242575   7.722   5.090  11.925  0.6532 -0.2974 -0.2638
 6127TIP3    H142576   7.804   5.120  11.886 -0.0951  0.2698 -1.4761
 6127TIP3    H242577   7.746   5.059  12.012  2.0005  0.7567 -0.2297
 6128TIP3   OH242578   3.600   0.810  14.196 -0.6166 -0.0682 -0.4831
 6128TIP3    H142579   3.664   0.823  14.126 -0.5063  0.4333 -0.2927
 6128TIP3    H242580   3.610   0.719  14.221  0.3975  0.1332 -0.0997
 6129TIP3   OH242581   3.019   0.799  13.044  0.2663 -0.1833  0.5147
 6129TIP3    H142582   3.018   0.846  12.961  0.4374 -0.0198  0.6048
 6129TIP3    H242583   2.995   0.865  13.110  0.3907 -0.2492  0.6274
 6130TIP3   OH242584   3.604   5.753  12.062 -0.1198 -0.2146 -0.5370
 6130TIP3    H142585   3.685   5.803  12.055  0.8335 -1.4620  1.0070
 6130TIP3    H242586   3.600   5.702  11.981  0.8751 -0.4719 -0.4279
 6131TIP3   OH242587   6.581   3.524  11.759  0.0403 -0.0748 -0.2362
 6131TIP3    H142588   6.672   3.554  11.761  0.1169 -0.3041  1.2437
 6131TIP3    H242589   6.552   3.532  11.850 -1.2022 -0.6743 -0.5596
 6132TIP3   OH242590   4.681   3.261  11.900 -0.3032  0.0079 -0.3681
 6132TIP3    H142591   4.683   3.296  11.989 -1.5090 -1.4147  0.2662
 6132TIP3    H242592   4.768   3.279  11.865  0.8477 -0.9843  1.7634
 6133TIP3   OH242593   6.395   1.262  11.642 -0.1440 -0.4333  0.5583
 6133TIP3    H142594   6.477   1.304  11.617 -0.6475  0.6990  0.7472
 6133TIP3    H242595   6.408   1.170  11.621  1.1588 -0.2640  0.5485
 6134TIP3   OH242596   3.080   5.332  11.604  0.1016  0.7006 -0.6153
 6134TIP3    H142597   3.070   5.244  11.569 -2.3638  1.1212 -1.1144
 6134TIP3    H242598   3.100   5.320  11.697 -0.8526 -0.3920 -0.5332
 6135TIP3   OH242599   1.990   4.968  11.621  0.0272  0.3299  0.2202
 6135TIP3    H142600   1.907   4.996  11.660 -0.0383 -0.2311  0.4877
 6135TIP3    H242601   2.051   5.040  11.639 -0.8301  1.5656 -1.5062
 6136TIP3   OH242602   8.157   1.728  12.676  0.2383  0.0274 -0.3527
 6136TIP3    H142603   8.200   1.676  12.607 -0.6852 -0.0384 -0.9128
 6136TIP3    H242604   8.209   1.713  12.754  0.7635 -0.6798 -0.8246
 6137TIP3   OH242605   7.803   3.001  12.721  0.3097  0.0487  0.3671
 6137TIP3    H142606   7.796   2.945  12.643  1.5222 -0.4240  0.5746
 6137TIP3    H242607   7.713   3.021  12.744 -0.0768  0.1459 -1.1224
 6138TIP3   OH242608   0.344   6.034  11.788  0.0288  0.9053 -0.5430
 6138TIP3    H142609   0.321   5.945  11.817 -1.2302  1.1024 -0.8831
 6138TIP3    H242610   0.437   6.041  11.806 -0.0259 -0.1855  0.2972
 6139TIP3   OH242611   3.661   7.430  11.988  0.0159  0.1675 -0.1778
 6139TIP3    H142612   3.619   7.463  12.067  0.3439 -1.8951  0.9256
 6139TIP3    H242613   3.597   7.369  11.951  0.8783 -0.8575 -0.0301
 6140TIP3   OH242614   1.012   6.480  12.833  0.1352 -0.1167  0.0524
 6140TIP3    H142615   0.961   6.417  12.781 -0.6410  0.4178  0.1676
 6140TIP3    H242616   1.041   6.545  12.769  1.5861 -0.9651 -0.2102
 6141TIP3   OH242617   5.981   1.376  12.458  0.2248  0.4202 -0.4535
 6141TIP3    H142618   6.075   1.393  12.458  0.5615 -1.1442 -2.2110
 6141TIP3    H242619   5.941   1.461  12.441  1.3374  0.9829 -0.3469
 6142TIP3   OH242620   8.160   0.319  12.665  0.0544 -0.0011 -0.2264
 6142TIP3    H142621   8.073   0.331  12.627 -0.6566 -0.3155  1.2301
 6142TIP3    H242622   8.216   0.298  12.590 -0.9815  0.8155 -1.2771
 6143TIP3   OH242623   2.025   6.302  13.314 -0.4009 -0.4043 -0.3756
 6143TIP3    H142624   2.089   6.268  13.377  1.3066  2.8405 -0.1384
 6143TIP3    H242625   1.950   6.328  13.367  0.2143  0.4497  0.1078
 6144TIP3   OH242626   7.232   5.507  13.724 -0.2678 -0.2379  0.0145
 6144TIP3    H142627   7.137   5.507  13.728 -0.2801  2.3356  1.3499
 6144TIP3    H242628   7.261   5.506  13.815  1.0844 -2.5548 -0.3524
 6145TIP3   OH242629   2.307   5.763  13.392 -0.1190 -0.4141 -0.3603
 6145TIP3    H142630   2.390   5.722  13.366  0.6127  0.1743  0.9794
 6145TIP3    H242631   2.318   5.783  13.484 -0.9752  1.5720 -0.6445
 6146TIP3   OH242632   5.191   7.442  11.856  0.1671  0.4163 -0.5863
 6146TIP3    H142633   5.229   7.484  11.779 -2.0259 -1.7309 -3.0105
 6146TIP3    H242634   5.097   7.441  11.839 -0.2942 -1.1339  1.6317
 6147TIP3   OH242635   4.319   7.375  11.703  0.1633 -0.5065 -0.3657
 6147TIP3    H142636   4.316   7.284  11.731 -0.2787 -0.4021 -0.0584
 6147TIP3    H242637   4.227   7.398  11.686 -0.2003  0.8371  2.7574
 6148TIP3   OH242638   5.080   6.603  13.309 -0.4612 -0.5383 -0.1600
 6148TIP3    H142639   5.168   6.564  13.305 -0.0722  0.3655 -0.9562
 6148TIP3    H242640   5.042   6.569  13.390  0.9666 -0.2452  0.6660
 6149TIP3   OH242641   6.843   4.049  13.095 -0.2050 -0.3419  0.1153
 6149TIP3    H142642   6.811   4.138  13.105  0.4746 -0.0580 -0.1721
 6149TIP3    H242643   6.903   4.035  13.168  0.4613 -0.2015 -0.3855
 6150TIP3   OH242644   8.180   7.527  11.760 -0.9583 -0.0814 -0.2079
 6150TIP3    H142645   8.226   7.602  11.723 -0.0503 -0.3533  0.3337
 6150TIP3    H242646   8.159   7.553  11.849 -1.3296 -0.1806 -0.2678
 6151TIP3   OH242647   4.897   3.039  12.060 -0.1198 -0.3499 -0.3628
 6151TIP3    H142648   4.923   3.120  12.103 -0.5652 -1.3340  1.9148
 6151TIP3    H242649   4.979   2.998  12.034  0.6114 -1.5255  3.1414
 6152TIP3   OH242650   2.543   7.335  13.339  0.0515 -0.0191 -0.0637
 6152TIP3    H142651   2.518   7.243  13.339 -0.5833  0.1444 -0.8059
 6152TIP3    H242652   2.497   7.372  13.415 -0.9109 -0.0067 -0.6370
 6153TIP3   OH242653   4.244   3.603  12.498  0.2013  0.0811  0.0256
 6153TIP3    H142654   4.210   3.687  12.467 -0.0184  0.2392  0.6695
 6153TIP3    H242655   4.166   3.551  12.517  0.3053  0.2787  1.0701
 6154TIP3   OH242656   6.022   4.625  12.153 -0.2771  0.3286  0.0100
 6154TIP3    H142657   6.024   4.641  12.248  0.6829  1.2177 -0.1451
 6154TIP3    H242658   6.076   4.547  12.142  0.6924  0.9694  0.0796
 6155TIP3   OH242659   3.975   5.476  13.221  0.4763 -0.7032 -0.4213
 6155TIP3    H142660   3.881   5.464  13.212  0.4717 -0.6259 -0.4827
 6155TIP3    H242661   3.987   5.513  13.309  0.3375  0.4141 -0.8538
 6156TIP3   OH242662   6.831   4.023  12.810  0.0761  0.1666  0.6989
 6156TIP3    H142663   6.748   3.975  12.807 -0.0548  0.4364  0.0664
 6156TIP3    H242664   6.847   4.036  12.904 -0.9791  0.7814  0.8056
 6157TIP3   OH242665   4.964   5.280  11.228  0.0890 -0.0819 -0.0826
 6157TIP3    H142666   4.946   5.371  11.252  1.0466 -0.1083  0.8292
 6157TIP3    H242667   4.911   5.265  11.150  0.5313  1.5178 -0.7483
 6158TIP3   OH242668   4.771   1.174  13.628  0.5339 -0.0753 -0.0921
 6158TIP3    H142669   4.676   1.185  13.627  0.5525  0.2647 -1.6518
 6158TIP3    H242670   4.791   1.136  13.713 -1.2250 -1.9826 -0.4565
 6159TIP3   OH242671   8.116   4.397  11.803  0.1036 -0.4078  0.4150
 6159TIP3    H142672   8.114   4.352  11.719 -1.0739  0.4154 -0.0256
 6159TIP3    H242673   8.028   4.385  11.839  0.3248 -0.0048  1.1189
 6160TIP3   OH242674   4.108   2.754  13.450  0.1091  0.4409 -0.0783
 6160TIP3    H142675   4.087   2.790  13.537  0.8988  0.7224  0.0092
 6160TIP3    H242676   4.105   2.830  13.392  3.8156  1.1665  0.4463
 6161TIP3   OH242677   4.647   6.534  12.947  0.4393 -0.5002  0.3926
 6161TIP3    H142678   4.723   6.487  12.981  1.2345 -0.4362 -1.1968
 6161TIP3    H242679   4.676   6.625  12.941  1.2378 -0.8419 -2.6448
 6162TIP3   OH242680   3.216   6.491  12.155 -0.4002 -0.0426  0.2927
 6162TIP3    H142681   3.168   6.528  12.229 -1.9402 -0.3083 -0.5114
 6162TIP3    H242682   3.175   6.406  12.140  1.6853 -1.1999  0.7904
 6163TIP3   OH242683   7.779   4.430  12.243 -0.3855  0.4463 -0.4545
 6163TIP3    H142684   7.704   4.489  12.257 -0.5447 -0.0389  0.8712
 6163TIP3    H242685   7.753   4.377  12.167 -1.7442 -0.2148  0.4185
 6164TIP3   OH242686   6.916   8.227  12.701 -0.0525  0.3101 -0.6465
 6164TIP3    H142687   6.963   8.225  12.784  0.3985  1.4508 -0.8625
 6164TIP3    H242688   6.835   8.274  12.721 -0.1505  0.1886 -0.7550
 6165TIP3   OH242689   0.568   2.526  13.671  0.0264 -0.3333  0.4292
 6165TIP3    H142690   0.621   2.458  13.714 -0.0365 -0.9720 -0.4745
 6165TIP3    H242691   0.566   2.500  13.579 -0.0892  0.8491  0.0820
 6166TIP3   OH242692   3.080   1.460  12.876 -0.2704 -0.1443  0.5348
 6166TIP3    H142693   3.153   1.437  12.934 -0.9201 -1.1056  0.9905
 6166TIP3    H242694   3.029   1.524  12.926 -0.7834 -0.9094  1.0091
 6167TIP3   OH242695   8.210   5.569  13.707  0.0117 -0.3387 -0.2919
 6167TIP3    H142696   8.208   5.474  13.703  0.7719 -0.3255 -1.4910
 6167TIP3    H242697   8.169   5.598  13.625 -2.6187  0.4386  1.1798
 6168TIP3   OH242698   2.631   1.532  13.033  0.0349 -0.3358  0.0875
 6168TIP3    H142699   2.585   1.576  13.105  0.5964 -2.2004  1.6808
 6168TIP3    H242700   2.647   1.443  13.066  3.5320 -0.2330 -0.8937
 6169TIP3   OH242701   4.541   2.464  17.178 -0.1977  0.7753 -0.1749
 6169TIP3    H142702   4.536   2.373  17.207 -0.2974  1.0059  0.5547
 6169TIP3    H242703   4.539   2.459  17.083 -0.6753  0.0456 -0.1313
 6170TIP3   OH242704   0.321   7.167  12.727 -0.3390 -0.6909  0.2779
 6170TIP3    H142705   0.276   7.087  12.700  1.1732 -1.2587 -0.7334
 6170TIP3    H242706   0.399   7.170  12.671  1.1260 -0.0336  2.2383
 6171TIP3   OH242707   3.850   5.159  12.833 -0.9848 -0.8571  0.0469
 6171TIP3    H142708   3.862   5.076  12.788 -0.1907  0.1838 -1.7822
 6171TIP3    H242709   3.920   5.163  12.898 -1.4983 -1.9265  0.6807
 6172TIP3   OH242710   2.563   2.301  11.725 -0.3967  0.3005 -0.5333
 6172TIP3    H142711   2.560   2.210  11.696  1.1992  0.3712 -0.9698
 6172TIP3    H242712   2.492   2.344  11.677 -0.5924 -0.5228 -0.9944
 6173TIP3   OH242713   0.419   5.407  12.610 -0.1655 -0.4319  0.1679
 6173TIP3    H142714   0.398   5.419  12.703  2.9125  0.9574  0.7835
 6173TIP3    H242715   0.512   5.385  12.609  0.4062  1.6293 -2.6723
 6174TIP3   OH242716   0.211   0.169  12.867 -0.4225  0.2631 -0.5349
 6174TIP3    H142717   0.127   0.137  12.835 -0.2300 -0.4770 -0.3381
 6174TIP3    H242718   0.218   0.258  12.833 -1.1874  0.2567 -0.7269
 6175TIP3   OH242719   4.716   0.178  13.141 -0.8485  0.1417  0.9297
 6175TIP3    H142720   4.634   0.160  13.095 -0.9559  1.3276  0.6282
 6175TIP3    H242721   4.695   0.248  13.202 -0.1370  0.2319  1.0821
 6176TIP3   OH242722   2.959   5.611  11.628 -0.0569 -0.3765 -0.1939
 6176TIP3    H142723   2.881   5.562  11.600 -1.7200 -0.4002  3.8585
 6176TIP3    H242724   3.006   5.551  11.686 -0.6444  1.7165  2.6526
 6177TIP3   OH242725   4.149   6.859  12.184  0.2235  0.5271  0.1129
 6177TIP3    H142726   4.097   6.817  12.115 -1.3737  1.7945  0.4927
 6177TIP3    H242727   4.207   6.918  12.138 -0.1405  0.6341 -0.2147
 6178TIP3   OH242728   8.190   6.062  12.587 -0.2392 -0.3077 -0.6134
 6178TIP3    H142729   8.205   5.974  12.553 -0.3841 -0.9962  0.9765
 6178TIP3    H242730   8.110   6.054  12.640  0.7426  0.2878  1.0623
 6179TIP3   OH242731   2.982   1.500  12.291 -0.9011  0.0548 -0.3713
 6179TIP3    H142732   3.032   1.429  12.251  0.9173  0.8540  0.3561
 6179TIP3    H242733   2.965   1.561  12.219  1.1176  0.8105 -0.2629
 6180TIP3   OH242734   1.648   2.838  12.061 -0.5070  0.2480  0.0845
 6180TIP3    H142735   1.690   2.854  11.977 -0.4320 -1.6393 -0.2687
 6180TIP3    H242736   1.710   2.783  12.109 -1.7197 -0.9938  0.2914
 6181TIP3   OH242737   1.212   3.803  12.932  0.0992  0.3583  0.7361
 6181TIP3    H142738   1.168   3.725  12.899 -0.1516  1.4404 -1.7245
 6181TIP3    H242739   1.305   3.781  12.931  0.0773  0.2306 -0.4971
 6182TIP3   OH242740   8.332   4.341  11.434  0.1212 -0.2928  0.1389
 6182TIP3    H142741   8.388   4.322  11.509 -0.3490  1.0075  0.8543
 6182TIP3    H242742   8.357   4.430  11.407  0.1338 -0.6530 -1.1203
 6183TIP3   OH242743   4.936   7.214  11.575  0.1741 -0.0289  0.6382
 6183TIP3    H142744   4.855   7.163  11.571 -0.0190  0.3721 -1.4809
 6183TIP3    H242745   4.914   7.298  11.536  1.8580 -0.2785 -0.9920
 6184TIP3   OH242746   2.489   7.075  13.384  0.0669  0.3856  0.4813
 6184TIP3    H142747   2.574   7.033  13.370 -0.7667 -0.4677 -2.9549
 6184TIP3    H242748   2.428   7.003  13.399 -0.4125  0.8531  0.8402
 6185TIP3   OH242749   4.499   5.080  12.189  0.7172 -0.8983 -0.3879
 6185TIP3    H142750   4.444   5.125  12.253  1.9180  0.3497 -0.1749
 6185TIP3    H242751   4.451   5.086  12.107 -0.0348 -0.9377  0.0454
 6186TIP3   OH242752   8.345   4.890  12.264 -0.2628  0.1006 -0.3257
 6186TIP3    H142753   8.296   4.870  12.344  0.2576 -0.5421 -0.1640
 6186TIP3    H242754   8.429   4.845  12.275  0.3646  1.1587 -0.6121
 6187TIP3   OH242755   3.365   6.754  13.118 -0.4333  0.6057 -0.2899
 6187TIP3    H142756   3.276   6.740  13.153 -0.2066 -0.0800  0.0373
 6187TIP3    H242757   3.393   6.667  13.090  0.0341  0.8704 -0.6473
 6188TIP3   OH242758   7.220   2.891  12.746 -0.5687 -0.3816 -0.0093
 6188TIP3    H142759   7.231   2.986  12.745 -0.6632 -0.3730 -0.3546
 6188TIP3    H242760   7.220   2.868  12.839 -0.1214 -0.0941  0.0660
 6189TIP3   OH242761   0.429   0.497  11.492 -0.1842 -0.0368 -0.0773
 6189TIP3    H142762   0.400   0.463  11.577  2.0779 -1.1203  0.3145
 6189TIP3    H242763   0.494   0.563  11.514  0.1379 -0.0576 -0.9670
 6190TIP3   OH242764   3.268   3.061  11.993  0.6004 -0.5352 -0.3079
 6190TIP3    H142765   3.338   3.038  11.931  1.4425 -0.1655  0.4751
 6190TIP3    H242766   3.194   3.008  11.966  1.3848 -1.4349 -0.7676
 6191TIP3   OH242767   2.731   3.969  11.694  0.3311 -0.3775  0.2296
 6191TIP3    H142768   2.741   3.905  11.624 -0.2904 -1.5438  1.1752
 6191TIP3    H242769   2.638   3.991  11.693  0.5112  0.3854  0.0251
 6192TIP3   OH242770   6.216   7.904  12.140 -0.2614  0.0103  0.4743
 6192TIP3    H142771   6.261   7.985  12.164 -1.1271  1.0211 -1.1008
 6192TIP3    H242772   6.159   7.885  12.215  0.4030  0.5096  1.1163
 6193TIP3   OH242773   4.550   6.804  12.090 -0.1123  0.1336  0.1383
 6193TIP3    H142774   4.534   6.870  12.158 -0.5933 -0.7890  0.9304
 6193TIP3    H242775   4.642   6.781  12.101  0.1641  0.9275 -0.3890
 6194TIP3   OH242776   4.044   0.219  12.729 -0.0560 -1.0706  0.0649
 6194TIP3    H142777   4.022   0.189  12.817  1.8840 -1.0019  0.6203
 6194TIP3    H242778   4.043   0.314  12.735 -1.5748 -1.0311 -0.4590
 6195TIP3   OH242779   5.455   6.032  13.897  0.0689  0.2095  0.1205
 6195TIP3    H142780   5.380   6.078  13.860 -0.2486  0.3663  0.9409
 6195TIP3    H242781   5.518   6.101  13.917 -0.1213  0.2226  0.6915
 6196TIP3   OH242782   7.095   2.367  12.956  0.1406  0.1476  0.4970
 6196TIP3    H142783   7.014   2.334  12.917  1.0557  1.5142 -2.9651
 6196TIP3    H242784   7.114   2.447  12.908  3.9355 -0.5159  0.5412
 6197TIP3   OH242785   5.697   8.306  11.793 -0.2090 -0.0756 -0.3411
 6197TIP3    H142786   5.640   8.277  11.722  0.4259 -1.3873 -0.3405
 6197TIP3    H242787   5.771   8.245  11.792  0.7390  1.0012  0.2677
 6198TIP3   OH242788   8.437   3.897  12.674  0.3788 -0.4393  0.5963
 6198TIP3    H142789   8.453   3.889  12.768 -0.0123 -0.9952  0.6208
 6198TIP3    H242790   8.513   3.856  12.633 -0.2747 -1.7917  0.6983
 6199TIP3   OH242791   7.257   2.729  12.180  0.3770  0.2878  0.9061
 6199TIP3    H142792   7.237   2.681  12.100  1.3711 -0.6540  1.1915
 6199TIP3    H242793   7.352   2.742  12.176  0.2427  1.4609  1.2725
 6200TIP3   OH242794   0.608   0.569  11.870  0.4616 -0.1462  0.2774
 6200TIP3    H142795   0.599   0.569  11.965 -1.9407 -1.4402  0.1192
 6200TIP3    H242796   0.600   0.477  11.845  1.1928  0.1536 -1.1863
 6201TIP3   OH242797   3.893   4.088  12.976  0.2460  0.0687 -0.2498
 6201TIP3    H142798   3.811   4.041  12.966 -0.8714  1.9994 -0.7128
 6201TIP3    H242799   3.867   4.174  13.010  2.0349  0.8389 -0.7127
 6202TIP3   OH242800   4.257   7.806  12.027  0.5378 -0.0584  0.1036
 6202TIP3    H142801   4.165   7.826  12.016  0.6559  1.1820  1.2534
 6202TIP3    H242802   4.261   7.748  12.103  0.7615  0.3740  0.4232
 6203TIP3   OH242803   3.418   1.038  12.207 -0.0564  0.0757 -0.3663
 6203TIP3    H142804   3.489   1.007  12.152 -1.0126 -3.1028 -0.0115
 6203TIP3    H242805   3.445   1.015  12.296 -1.3659 -1.0034 -0.2070
 6204TIP3   OH242806   3.257   7.579  11.969  0.3426  0.3629 -0.3435
 6204TIP3    H142807   3.264   7.675  11.970 -0.7897  0.4548  0.0806
 6204TIP3    H242808   3.196   7.561  11.898  1.4809 -0.1358 -1.2251
 6205TIP3   OH242809   2.155   4.747  11.553 -0.4752 -0.9986 -0.0424
 6205TIP3    H142810   2.101   4.827  11.560  0.7093 -0.2167  0.4463
 6205TIP3    H242811   2.208   4.761  11.475 -0.6688 -1.5799 -0.2821
 6206TIP3   OH242812   7.507   4.926  12.409  0.2573  0.6482  0.2337
 6206TIP3    H142813   7.602   4.926  12.405  0.2358  0.3534 -0.4838
 6206TIP3    H242814   7.484   4.846  12.458  0.3700  0.4848  0.0209
 6207TIP3   OH242815   6.180   4.941  12.655 -0.2968 -0.5646  0.3333
 6207TIP3    H142816   6.189   4.888  12.734 -2.8592 -0.4740  0.7711
 6207TIP3    H242817   6.104   4.903  12.610  0.1642  0.3654 -1.2962
 6208TIP3   OH242818   1.190   8.029  13.368 -0.0218  0.4655 -0.4014
 6208TIP3    H142819   1.154   8.100  13.315  0.2272  0.7139 -0.2387
 6208TIP3    H242820   1.150   7.950  13.332 -0.8448  0.7504 -0.1219
 6209TIP3   OH242821   2.513   1.849  12.362 -0.0635 -0.5164 -0.6374
 6209TIP3    H142822   2.517   1.827  12.269 -1.4393 -0.7807 -0.6618
 6209TIP3    H242823   2.597   1.821  12.397  1.1586  1.1008 -2.0919
 6210TIP3   OH242824   1.389   7.593  12.314 -0.5093 -0.3643  0.0493
 6210TIP3    H142825   1.422   7.651  12.245 -0.0201 -1.8303 -0.9995
 6210TIP3    H242826   1.427   7.507  12.293 -0.7421 -0.9599  1.8775
 6211TIP3   OH242827   1.272   2.084  13.720 -0.2207  0.1525  0.0825
 6211TIP3    H142828   1.322   2.165  13.727  0.9267 -0.5208 -0.0651
 6211TIP3    H242829   1.185   2.106  13.754  0.7456  0.8487  2.2755
 6212TIP3   OH242830   3.776   2.076  12.906 -0.3321  0.6071 -0.0733
 6212TIP3    H142831   3.764   2.134  12.830 -1.9281  1.2071  0.6109
 6212TIP3    H242832   3.735   1.994  12.880  0.1670  0.4112 -0.2764
 6213TIP3   OH242833   3.987   6.330  12.682  0.2037 -0.2726 -0.1224
 6213TIP3    H142834   4.056   6.351  12.619 -0.9274  0.9108 -1.0229
 6213TIP3    H242835   3.916   6.392  12.662 -0.8452 -0.9768  1.2299
 6214TIP3   OH242836   7.568   1.049  11.984 -0.4136  0.3395  0.1926
 6214TIP3    H142837   7.527   0.964  11.997 -0.3100 -0.0762 -1.8323
 6214TIP3    H242838   7.501   1.112  12.009 -1.5982 -0.3482 -1.0642
 6215TIP3   OH242839   6.896   6.512  12.545  0.8198 -0.4475  0.1528
 6215TIP3    H142840   6.841   6.455  12.490 -1.3669  2.2839 -0.7212
 6215TIP3    H242841   6.965   6.543  12.486  0.7188 -0.4821  0.0171
 6216TIP3   OH242842   4.178   3.446  11.764  0.3548  0.0043 -0.2468
 6216TIP3    H142843   4.219   3.363  11.740  0.6661  0.2283 -0.5126
 6216TIP3    H242844   4.250   3.499  11.799  0.1131  0.0781  0.1390
 6217TIP3   OH242845   5.229   3.126  12.669  0.2995  0.3485  0.2543
 6217TIP3    H142846   5.150   3.164  12.630  1.4714 -0.5908 -3.3891
 6217TIP3    H242847   5.207   3.116  12.762 -3.5501  0.8733 -0.4272
 6218TIP3   OH242848   5.127   6.579  12.820 -0.6092  0.6709  0.7180
 6218TIP3    H142849   5.122   6.496  12.774  0.7276  1.7801 -1.6185
 6218TIP3    H242850   5.053   6.577  12.881 -2.2664 -1.1154 -1.1746
 6219TIP3   OH242851   7.691   3.543  12.289 -0.0988 -0.5047  0.1720
 6219TIP3    H142852   7.725   3.480  12.352  0.7077 -0.3247 -0.0705
 6219TIP3    H242853   7.671   3.491  12.211 -2.1902 -0.9267  0.9141
 6220TIP3   OH242854   3.281   1.832  12.046 -0.3752  0.6196 -0.2341
 6220TIP3    H142855   3.372   1.859  12.054 -0.3292  0.2065  0.9828
 6220TIP3    H242856   3.263   1.787  12.129 -1.7603  0.9241 -0.3509
 6221TIP3   OH242857   7.555   2.080  12.050  0.2492 -0.2909 -0.6592
 6221TIP3    H142858   7.631   2.028  12.077 -0.2671 -0.5150  0.3983
 6221TIP3    H242859   7.480   2.037  12.090 -0.2974  0.6955 -0.5769
 6222TIP3   OH242860   6.216   5.545  12.209 -0.2103 -0.1451 -0.1417
 6222TIP3    H142861   6.219   5.453  12.235  1.9057  0.3143  1.5315
 6222TIP3    H242862   6.155   5.547  12.135 -1.3983 -2.6365  0.6526
 6223TIP3   OH242863   5.751   0.832  11.447 -0.6064 -0.7479 -0.3580
 6223TIP3    H142864   5.690   0.773  11.401 -1.4758 -0.7536  0.7531
 6223TIP3    H242865   5.764   0.791  11.532  1.1685 -0.8573 -0.6608
 6224TIP3   OH242866   0.041   0.850  12.553 -0.4655 -0.2084 -0.2296
 6224TIP3    H142867   0.135   0.840  12.539 -0.6747 -0.9264 -1.2365
 6224TIP3    H242868   0.020   0.936  12.518 -0.2044 -0.0841 -0.0864
 6225TIP3   OH242869   1.905   3.769  13.740  0.7480 -0.1457  0.1588
 6225TIP3    H142870   1.928   3.678  13.759  0.4099 -0.1703  0.4789
 6225TIP3    H242871   1.989   3.815  13.739  1.4332 -1.1260 -4.1271
 6226TIP3   OH242872   1.745   5.691  13.263  0.1067  0.4403 -0.5148
 6226TIP3    H142873   1.834   5.661  13.284 -0.1274 -0.2806 -0.5154
 6226TIP3    H242874   1.694   5.610  13.254 -0.2584  0.7984 -1.8309
 6227TIP3   OH242875   1.995   3.783  12.247 -0.4223 -0.2036 -0.1792
 6227TIP3    H142876   2.035   3.784  12.159 -0.2852 -0.0549 -0.1163
 6227TIP3    H242877   1.974   3.691  12.262 -0.1061 -0.2840 -0.2159
 6228TIP3   OH242878   2.232   3.327  13.133 -0.5143  0.2142 -0.6683
 6228TIP3    H142879   2.214   3.247  13.182 -0.5868  0.7291  0.1766
 6228TIP3    H242880   2.165   3.329  13.065 -1.1539  0.0673 -0.0564
 6229TIP3   OH242881   4.077   6.732  12.416  0.0219  0.9979  0.1852
 6229TIP3    H142882   3.991   6.772  12.419 -0.2827  0.3553  0.2380
 6229TIP3    H242883   4.116   6.765  12.334 -0.6042  0.6299 -0.2725
 6230TIP3   OH242884   8.135   2.834  11.640 -0.1788 -0.7399  0.0645
 6230TIP3    H142885   8.078   2.814  11.566  0.3580  1.2108 -0.9377
 6230TIP3    H242886   8.212   2.875  11.601  0.6511 -0.7245  1.6299
 6231TIP3   OH242887   4.273   2.375  12.470  0.3242 -0.5407  0.1411
 6231TIP3    H142888   4.263   2.324  12.390 -2.7823  0.4817 -0.2531
 6231TIP3    H242889   4.272   2.466  12.442 -0.1495 -0.1715  1.2768
 6232TIP3   OH242890   5.419   4.286  12.087  0.1911 -0.0265  0.2463
 6232TIP3    H142891   5.379   4.354  12.033 -0.5739 -1.1154 -0.6030
 6232TIP3    H242892   5.350   4.260  12.147  0.5209  0.0158  0.6482
 6233TIP3   OH242893   6.619   6.205  13.687 -0.0193  0.1806 -0.1139
 6233TIP3    H142894   6.666   6.227  13.606 -0.8798 -1.6668 -1.1927
 6233TIP3    H242895   6.687   6.196  13.753  0.7307  1.5353 -0.6552
 6234TIP3   OH242896   5.453   6.909  12.424  0.1103 -0.3561 -0.1740
 6234TIP3    H142897   5.519   6.847  12.453 -0.7798 -2.2100 -1.8717
 6234TIP3    H242898   5.499   6.966  12.362  0.3976 -0.8645 -0.4309
 6235TIP3   OH242899   7.745   5.844  12.265  0.1087 -0.2108 -0.2125
 6235TIP3    H142900   7.724   5.758  12.299  2.1889 -0.2132  1.2097
 6235TIP3    H242901   7.708   5.844  12.176 -1.5896 -1.8195  0.4225
 6236TIP3   OH242902   4.715   1.301  11.489  0.2095 -0.3186 -0.4861
 6236TIP3    H142903   4.770   1.342  11.423 -0.4929  1.5006  0.0048
 6236TIP3    H242904   4.773   1.240  11.534  1.8653  1.5243  0.0252
 6237TIP3   OH242905   6.028   0.181  11.508 -0.6235  0.4466 -0.1044
 6237TIP3    H142906   5.939   0.176  11.472  0.0729 -0.6957 -1.8066
 6237TIP3    H242907   6.047   0.091  11.536 -0.0905  0.7344  0.4643
 6238TIP3   OH242908   5.535   2.679  12.254 -0.2621  0.3735  0.5562
 6238TIP3    H142909   5.515   2.771  12.235  0.1541  0.2263 -0.7243
 6238TIP3    H242910   5.490   2.661  12.336  0.2099  1.9182  1.1961
 6239TIP3   OH242911   5.537   4.177  11.843  0.0368  0.2455 -0.6987
 6239TIP3    H142912   5.498   4.169  11.930 -1.1965  2.3345 -0.9889
 6239TIP3    H242913   5.621   4.221  11.859  0.6133 -0.8955 -0.4433
 6240TIP3   OH242914   0.345   4.856  12.411  0.0472 -0.0985 -0.1878
 6240TIP3    H142915   0.372   4.929  12.354  1.1578 -0.6888 -0.4500
 6240TIP3    H242916   0.322   4.786  12.350 -0.2910 -0.2208  0.0761
 6241TIP3   OH242917   7.656   2.318  12.544 -0.2916 -0.4791  0.4973
 6241TIP3    H142918   7.705   2.240  12.570  2.7053  1.2680  0.6740
 6241TIP3    H242919   7.674   2.327  12.450  1.5456  1.2511  0.9419
 6242TIP3   OH242920   7.648   4.908  12.153  0.5402 -0.1421  0.0397
 6242TIP3    H142921   7.711   4.896  12.224 -1.4262  0.9076  2.0743
 6242TIP3    H242922   7.621   4.819  12.129  0.8083 -0.4874  0.9947
 6243TIP3   OH242923   6.976   8.319  11.503  0.5071  0.3660  0.1901
 6243TIP3    H142924   6.969   8.343  11.595  4.8163 -0.0353  0.8036
 6243TIP3    H242925   6.965   8.401  11.456 -0.8700  0.7193  1.0737
 6244TIP3   OH242926   7.657   5.443  12.067 -0.0947  0.0943  0.2964
 6244TIP3    H142927   7.724   5.420  12.003  0.9901 -0.6022  1.6587
 6244TIP3    H242928   7.576   5.405  12.031  0.2149  0.8591 -1.3051
 6245TIP3   OH242929   3.622   2.260  13.065 -0.3640 -0.2364 -0.0783
 6245TIP3    H142930   3.682   2.292  13.132  0.6862 -0.9011 -0.6858
 6245TIP3    H242931   3.676   2.208  13.006 -1.4931 -0.6710 -0.7705
 6246TIP3   OH242932   4.653   5.213  11.839 -0.0352 -0.3642 -0.0920
 6246TIP3    H142933   4.691   5.220  11.926 -2.0744  2.0998  0.7277
 6246TIP3    H242934   4.719   5.250  11.781  0.5100 -0.0450  0.7120
 6247TIP3   OH242935   6.409   2.046  13.168 -0.4990  0.2216 -0.3477
 6247TIP3    H142936   6.356   2.104  13.113 -1.5038 -0.3403 -0.0026
 6247TIP3    H242937   6.353   1.970  13.183  0.0795 -0.0126  0.7408
 6248TIP3   OH242938   1.332   4.878  12.854  0.0862  0.2207 -0.5401
 6248TIP3    H142939   1.329   4.909  12.764  1.7583  0.3688 -0.5823
 6248TIP3    H242940   1.332   4.783  12.847  0.0120  0.2311 -0.6796
 6249TIP3   OH242941   2.417   1.315  13.393  0.1668 -0.5187 -0.3563
 6249TIP3    H142942   2.466   1.248  13.441 -1.8336 -1.3567  0.6679
 6249TIP3    H242943   2.382   1.371  13.462  1.3291  1.2894 -1.1800
 6250TIP3   OH242944   6.009   4.869  11.643 -0.2224 -0.2809  0.9173
 6250TIP3    H142945   6.002   4.927  11.567  2.3584  0.2693  0.9881
 6250TIP3    H242946   5.924   4.826  11.649 -1.0300  0.8540 -1.2995
 6251TIP3   OH242947   4.834   6.015  12.582 -0.0589 -0.2475  0.0353
 6251TIP3    H142948   4.844   5.964  12.502  1.4881  0.6746 -0.4058
 6251TIP3    H242949   4.765   5.970  12.631 -0.1340 -1.5709 -1.2189
 6252TIP3   OH242950   5.475   6.967  12.721 -0.1053 -0.0624 -0.2900
 6252TIP3    H142951   5.486   6.983  12.628 -0.7725 -2.2067 -0.8077
 6252TIP3    H242952   5.419   6.888  12.725  0.0689 -0.1347  1.9034
 6253TIP3   OH242953   4.938   5.703  12.689 -0.1719  0.5571 -0.2600
 6253TIP3    H142954   4.919   5.665  12.603  0.9920  1.3358 -0.8872
 6253TIP3    H242955   5.030   5.727  12.685  0.0605  0.0840  1.4286
 6254TIP3   OH242956   1.495   4.567  11.686  0.1536 -0.4407  0.0136
 6254TIP3    H142957   1.574   4.575  11.633 -0.4654 -0.4070 -0.9294
 6254TIP3    H242958   1.505   4.484  11.733  1.1027 -0.0481  0.5253
 6255TIP3   OH242959   0.979   2.971  12.122  0.0432 -0.1684 -0.1286
 6255TIP3    H142960   0.916   2.994  12.053  0.5023 -0.2939 -0.5953
 6255TIP3    H242961   1.031   3.050  12.135  1.0859 -0.6594 -1.1541
 6256TIP3   OH242962   4.795   4.235  13.225  0.2280 -0.1824 -0.6114
 6256TIP3    H142963   4.846   4.295  13.169  1.4681 -0.3429  0.2949
 6256TIP3    H242964   4.714   4.220  13.176 -0.0802  2.1236 -0.9265
 6257TIP3   OH242965   8.014   4.256  13.648 -1.1366  0.5205  0.5106
 6257TIP3    H142966   8.011   4.231  13.740  1.0277  1.1546  0.7957
 6257TIP3    H242967   8.026   4.351  13.649 -2.1836  0.6831 -0.4601
 6258TIP3   OH242968   7.305   4.337  11.518  0.3350  0.3575 -0.1871
 6258TIP3    H142969   7.341   4.420  11.486  1.6782  0.2764  1.0453
 6258TIP3    H242970   7.212   4.355  11.529  0.5809  1.6665 -0.0676
 6259TIP3   OH242971   1.846   1.007  12.062  0.7174 -0.2643  0.0088
 6259TIP3    H142972   1.770   0.949  12.055  0.5588 -0.1045  0.3608
 6259TIP3    H242973   1.873   1.000  12.153  0.3704  0.6158  0.1901
 6260TIP3   OH242974   4.689   3.209  13.406 -0.1489 -0.1511  0.3359
 6260TIP3    H142975   4.780   3.235  13.394 -0.0523 -0.3194  0.7282
 6260TIP3    H242976   4.687   3.115  13.385 -0.7159  0.3587 -2.2766
 6261TIP3   OH242977   6.365   7.357  12.483 -0.2622  0.5452  0.3587
 6261TIP3    H142978   6.318   7.415  12.424  0.5115  2.1340  1.2284
 6261TIP3    H242979   6.327   7.271  12.467 -0.7176  1.0722 -1.7452
 6262TIP3   OH242980   4.992   1.768  12.204  0.1347  0.2223  0.0538
 6262TIP3    H142981   4.967   1.801  12.118 -0.8490  0.4862  0.4211
 6262TIP3    H242982   4.908   1.753  12.249  0.5861 -1.1895  0.4904
 6263TIP3   OH242983   5.682   1.436  12.667 -0.5136  0.3172  0.2657
 6263TIP3    H142984   5.727   1.398  12.742 -0.1291  1.0711  0.4328
 6263TIP3    H242985   5.729   1.517  12.650 -0.6797  0.2182 -0.7133
 6264TIP3   OH242986   2.200   6.279  12.028 -0.1806  0.6476  0.3454
 6264TIP3    H142987   2.267   6.238  11.973  0.9325  1.8521  0.7659
 6264TIP3    H242988   2.200   6.226  12.108 -2.2338 -1.4939 -0.9307
 6265TIP3   OH242989   7.702   0.427  12.301 -0.5244  0.0961 -0.1432
 6265TIP3    H142990   7.714   0.515  12.337 -3.0385 -0.4241  2.2845
 6265TIP3    H242991   7.724   0.368  12.372 -0.2629 -1.2357 -1.2765
 6266TIP3   OH242992   8.093   4.886  12.622  0.0127  0.1009 -0.0358
 6266TIP3    H142993   8.055   4.964  12.581  1.1844  0.2867 -0.8168
 6266TIP3    H242994   8.069   4.814  12.564  0.2227  0.1096 -0.1334
 6267TIP3   OH242995   1.159   2.243  11.821 -0.2891 -0.2065  0.1793
 6267TIP3    H142996   1.223   2.284  11.762  0.6327 -2.4789 -0.5116
 6267TIP3    H242997   1.195   2.157  11.840 -2.7470 -1.2806  0.4362
 6268TIP3   OH242998   8.233   1.878  11.970  0.1266  0.1267 -0.1801
 6268TIP3    H142999   8.282   1.831  11.902 -0.8990 -0.4193 -0.5513
 6268TIP3    H243000   8.189   1.949  11.923 -2.7870 -1.8267 -0.6640
 6269TIP3   OH243001   6.760   6.278  12.929  0.1241 -0.1556  0.0310
 6269TIP3    H143002   6.708   6.234  12.996 -0.6941 -0.8072 -0.9915
 6269TIP3    H243003   6.710   6.357  12.907 -0.0528 -0.3882 -0.4120
 6270TIP3   OH243004   1.976   2.484  12.767  0.3361  0.5306 -0.4273
 6270TIP3    H143005   1.913   2.532  12.821  0.7108  2.3524 -1.5373
 6270TIP3    H243006   1.922   2.431  12.708 -0.0991  0.1691  0.2837
 6271TIP3   OH243007   4.292   6.461  12.556 -0.7380  0.0317  0.1952
 6271TIP3    H143008   4.369   6.501  12.596 -0.2172 -1.8009  1.1301
 6271TIP3    H243009   4.323   6.377  12.522 -2.5015 -1.2414  1.5130
 6272TIP3   OH243010   8.153   7.971  12.503 -0.2662  0.4544  0.1804
 6272TIP3    H143011   8.194   7.955  12.588  0.6953 -0.6450 -0.4641
 6272TIP3    H243012   8.217   8.023  12.455 -0.6617  0.7754 -0.0017
 6273TIP3   OH243013   1.188   5.010  12.379  0.0905 -0.5180  0.0325
 6273TIP3    H143014   1.158   4.968  12.299  1.0002  0.2583 -0.7432
 6273TIP3    H243015   1.278   4.980  12.390  0.7160  1.0809 -0.4701
 6274TIP3   OH243016   5.167   0.414  13.582  0.8888  0.0470  0.4916
 6274TIP3    H143017   5.145   0.388  13.672 -1.0157 -0.2976 -0.0130
 6274TIP3    H243018   5.103   0.367  13.528  0.2318  2.3263 -0.8373
 6275TIP3   OH243019   6.229   7.354  11.359 -0.1089  0.5903  0.2728
 6275TIP3    H143020   6.210   7.271  11.316 -0.7567  1.5829 -1.4277
 6275TIP3    H243021   6.314   7.340  11.401 -0.7403 -1.2963  1.0583
 6276TIP3   OH243022   5.087   4.953  12.280  0.4806 -0.7319 -0.2222
 6276TIP3    H143023   5.161   5.013  12.271 -0.3588  0.1119 -1.8816
 6276TIP3    H243024   5.100   4.889  12.210 -0.1513 -0.8084 -0.2680
 6277TIP3   OH243025   5.194   4.494  13.523 -0.0444  0.1343  0.3052
 6277TIP3    H143026   5.109   4.498  13.567  0.3718  0.4232  1.1121
 6277TIP3    H243027   5.174   4.466  13.434 -0.8750 -0.9128  0.8007
 6278TIP3   OH243028   0.986   7.349  12.076  0.7435  0.3480  0.1982
 6278TIP3    H143029   0.948   7.433  12.101  2.0312  0.4737  1.9139
 6278TIP3    H243030   0.911   7.292  12.063 -0.1532  1.7403 -1.0124
 6279TIP3   OH243031   6.972   6.365  12.786 -0.8017 -0.0192 -0.6319
 6279TIP3    H143032   6.893   6.316  12.809 -0.3031  0.3614  2.3209
 6279TIP3    H243033   6.945   6.423  12.715 -3.5743  0.9516  1.0603
 6280TIP3   OH243034   6.698   8.365  12.809  0.0354 -0.3432 -0.4876
 6280TIP3    H143035   6.626   8.423  12.833  0.3352 -0.4456  0.7024
 6280TIP3    H243036   6.710   8.308  12.885  1.3860 -0.3171 -0.6512
 6281TIP3   OH243037   1.093   1.844  13.342 -0.6292 -0.5738 -0.5514
 6281TIP3    H143038   1.180   1.829  13.379 -0.7580 -0.9358 -0.3910
 6281TIP3    H243039   1.048   1.761  13.352 -0.6105 -0.7443 -1.6820
 6282TIP3   OH243040   2.254   1.695  11.642  0.2824 -0.2547 -0.0923
 6282TIP3    H143041   2.230   1.611  11.681  0.5435  0.5982  2.0767
 6282TIP3    H243042   2.171   1.741  11.630  0.3076  0.3498  1.7093
 6283TIP3   OH243043   6.797   4.099  13.582 -0.1633  0.9112  0.7023
 6283TIP3    H143044   6.862   4.029  13.588 -1.3659 -0.1662  1.9076
 6283TIP3    H243045   6.721   4.065  13.630 -2.1505  1.5304 -1.7817
 6284TIP3   OH243046   7.683   0.299  12.548 -0.0913  0.4648 -0.2770
 6284TIP3    H143047   7.663   0.386  12.582 -1.7223  0.3687 -0.8948
 6284TIP3    H243048   7.598   0.257  12.536  0.6500 -1.3134  0.2126
 6285TIP3   OH243049   3.635   4.411  12.488 -0.6612 -0.6004 -0.4894
 6285TIP3    H143050   3.666   4.372  12.570  1.2390  0.9879 -0.3749
 6285TIP3    H243051   3.587   4.341  12.445  0.0788 -2.1258  1.0387
 6286TIP3   OH243052   7.263   3.053  11.597 -0.1027  0.0147 -0.6858
 6286TIP3    H143053   7.241   2.977  11.543 -2.7527  1.1450 -1.3830
 6286TIP3    H243054   7.209   3.043  11.676  0.6360  0.4411 -0.1140
 6287TIP3   OH243055   4.745   8.424  11.453  0.2108 -0.7577 -0.4316
 6287TIP3    H143056   4.723   8.332  11.467 -0.9502 -0.1324  2.3434
 6287TIP3    H243057   4.661   8.470  11.453  0.8795  0.5314  0.2181
 6288TIP3   OH243058   6.848   4.363  13.460 -0.3635  0.1219 -0.2423
 6288TIP3    H143059   6.940   4.337  13.469 -0.4135 -0.1165 -0.3986
 6288TIP3    H243060   6.799   4.286  13.490 -0.5124  0.3554  0.1292
 6289TIP3   OH243061   0.821   5.375  12.059 -0.2508 -0.6539 -0.2897
 6289TIP3    H143062   0.733   5.353  12.090 -0.8023  1.3171 -0.3601
 6289TIP3    H243063   0.871   5.392  12.139 -0.6345  0.6506 -0.3014
 6290TIP3   OH243064   7.214   5.956  13.001  0.2251 -0.0864 -0.4403
 6290TIP3    H143065   7.209   5.874  12.952  1.0678 -0.8918  0.7621
 6290TIP3    H243066   7.124   5.988  13.004 -0.3627 -1.6872  0.2400
 6291TIP3   OH243067   0.132   6.012  11.588 -0.1974  0.2989  0.0192
 6291TIP3    H143068   0.120   5.917  11.579 -1.4108  0.4852 -0.5299
 6291TIP3    H243069   0.206   6.021  11.648 -0.2053 -0.9949  0.2574
 6292TIP3   OH243070   3.235   5.070  13.154 -0.5168  0.0270  0.2855
 6292TIP3    H143071   3.187   5.003  13.203  2.0290 -1.5095  0.8324
 6292TIP3    H243072   3.271   5.023  13.079 -1.1443  1.5155 -1.0060
 6293TIP3   OH243073   7.853   4.155  11.364  0.0774  0.5677 -0.4312
 6293TIP3    H143074   7.857   4.061  11.347 -0.6981  0.3730  0.3823
 6293TIP3    H243075   7.760   4.173  11.376  0.1159  1.6496 -1.6456
 6294TIP3   OH243076   4.842   1.054  11.626 -0.2697 -0.0277 -0.1673
 6294TIP3    H143077   4.936   1.070  11.629 -0.0186 -1.4504  0.5457
 6294TIP3    H243078   4.822   1.018  11.713 -1.6012  0.8654 -0.0761
 6295TIP3   OH243079   4.875   6.326  13.457 -0.4723  0.1397  0.6438
 6295TIP3    H143080   4.932   6.280  13.395  0.5365  2.5467 -0.3563
 6295TIP3    H243081   4.839   6.257  13.512 -0.1964 -1.9718 -1.6136
 6296TIP3   OH243082   4.226   6.991  13.132  0.0769 -1.1228  0.3484
 6296TIP3    H143083   4.141   7.005  13.174  0.2401 -0.8260  0.5919
 6296TIP3    H243084   4.264   6.917  13.179  0.0456 -1.1101  0.3943
 6297TIP3   OH243085   7.700   6.271  13.000 -0.2876 -0.8105  0.2225
 6297TIP3    H143086   7.639   6.197  12.997 -1.9048  0.5006 -1.4068
 6297TIP3    H243087   7.668   6.331  12.933  0.8843  1.4393  1.5547
 6298TIP3   OH243088   0.277   5.368  11.807  0.1868 -0.2100 -0.1404
 6298TIP3    H143089   0.249   5.348  11.717  2.5254 -1.5459 -0.6516
 6298TIP3    H243090   0.269   5.285  11.853  0.5691  0.0808  0.4525
 6299TIP3   OH243091   6.245   2.811  12.832 -0.8314 -0.6169 -0.2139
 6299TIP3    H143092   6.154   2.789  12.816 -1.8239  2.0658  1.0714
 6299TIP3    H243093   6.259   2.893  12.785  0.6014 -0.4037  0.5111
 6300TIP3   OH243094   6.750   4.389  11.704 -0.1849 -0.2125 -0.3366
 6300TIP3    H143095   6.836   4.365  11.669 -0.3084  0.5026 -1.1643
 6300TIP3    H243096   6.750   4.485  11.704 -1.6531 -0.1512 -2.1254
 6301TIP3   OH243097   3.292   0.625  13.768  0.5504 -0.3583  0.3684
 6301TIP3    H143098   3.336   0.592  13.846 -1.4879 -1.1178  1.2561
 6301TIP3    H243099   3.285   0.550  13.710  2.2507  0.2535 -0.6910
 6302TIP3   OH243100   4.929   5.865  11.626 -0.0346 -0.1746  0.1278
 6302TIP3    H143101   4.996   5.843  11.561 -1.0113 -2.4277 -0.2270
 6302TIP3    H243102   4.949   5.955  11.651  2.2611 -0.2871 -0.9787
 6303TIP3   OH243103   1.295   3.766  11.511  0.0897  0.3634 -0.2095
 6303TIP3    H143104   1.292   3.859  11.535 -1.4559  0.3704 -0.3489
 6303TIP3    H243105   1.383   3.738  11.536  0.8242  2.0225 -0.7807
 6304TIP3   OH243106   6.925   7.200  11.359  0.0727 -0.2424  0.6381
 6304TIP3    H143107   6.942   7.114  11.321 -1.4348  0.5087 -2.0065
 6304TIP3    H243108   6.857   7.184  11.425 -1.4861 -0.9336 -1.0507
 6305TIP3   OH243109   2.280   2.120  11.702  0.9033 -0.2996 -0.1373
 6305TIP3    H143110   2.205   2.177  11.713  1.0666  0.0681 -0.8833
 6305TIP3    H243111   2.311   2.103  11.791 -1.6440 -2.6254  0.4587
 6306TIP3   OH243112   3.960   3.014  13.556 -0.0239  0.3185 -0.0728
 6306TIP3    H143113   3.954   3.005  13.651  1.9785 -0.0036  0.0635
 6306TIP3    H243114   3.969   3.109  13.542 -0.5398  0.3845  0.0424
 6307TIP3   OH243115   1.213   1.224  12.233  0.1266 -0.1998  0.0588
 6307TIP3    H143116   1.166   1.299  12.197 -0.2004 -0.3753  0.1218
 6307TIP3    H243117   1.305   1.242  12.213  0.1086  0.4865  0.5503
 6308TIP3   OH243118   7.538   8.063  12.494 -0.1641 -0.6106  0.0349
 6308TIP3    H143119   7.543   8.088  12.586 -0.8901 -0.0833 -0.0644
 6308TIP3    H243120   7.630   8.054  12.467  0.0955  0.5806  0.4477
 6309TIP3   OH243121   0.612   7.197  11.607  0.1952 -0.5928  0.5190
 6309TIP3    H143122   0.640   7.260  11.541  1.8731 -1.4598  0.3324
 6309TIP3    H243123   0.592   7.250  11.684  0.1943  0.2643 -0.0562
 6310TIP3   OH243124   3.553   4.019  12.742  0.3507  0.0687  0.1790
 6310TIP3    H143125   3.590   4.001  12.828  0.7406  0.7310  0.1557
 6310TIP3    H243126   3.601   4.096  12.711  1.0037 -0.8211 -1.0992
 6311TIP3   OH243127   0.775   3.964  12.986  0.1881  0.7164  0.3073
 6311TIP3    H143128   0.865   3.948  13.012  0.6693  0.7698 -1.2023
 6311TIP3    H243129   0.732   3.879  12.992  1.3916 -0.2222 -2.6953
 6312TIP3   OH243130   3.893   2.991  12.114  0.0441 -0.0103  0.1115
 6312TIP3    H143131   3.871   2.901  12.093 -0.6736  0.3868 -0.9067
 6312TIP3    H243132   3.836   3.014  12.187 -0.1167 -0.2321  0.0558
 6313TIP3   OH243133   1.231   6.315  12.083  0.0281 -0.0742  0.2108
 6313TIP3    H143134   1.230   6.225  12.051 -1.6440  0.4884 -1.4534
 6313TIP3    H243135   1.311   6.320  12.136  0.3058 -2.4341  0.1333
 6314TIP3   OH243136   1.524   1.517  13.370 -0.5185  0.3053 -0.1183
 6314TIP3    H143137   1.442   1.522  13.419  0.1113  2.9683  0.8568
 6314TIP3    H243138   1.499   1.483  13.284 -2.3920 -0.2142  0.5775
 6315TIP3   OH243139   1.161   4.148  11.941  0.3455 -0.2094  0.5190
 6315TIP3    H143140   1.210   4.135  11.859  0.9040 -0.1083  0.8286
 6315TIP3    H243141   1.217   4.207  11.993 -1.0356  1.5914  0.0767
 6316TIP3   OH243142   3.776   1.728  12.024  0.1965  0.2864 -0.1310
 6316TIP3    H143143   3.766   1.692  12.112  0.8546  1.7556  0.5819
 6316TIP3    H243144   3.789   1.652  11.968  0.2841 -0.6463  1.1179
 6317TIP3   OH243145   7.377   5.126  11.181 -0.1279 -0.2678  0.3542
 6317TIP3    H143146   7.366   5.033  11.199 -0.1195  0.0796  2.4563
 6317TIP3    H243147   7.460   5.149  11.222  0.9788  0.2694 -2.0287
 6318TIP3   OH243148   5.337   1.806  12.512 -0.0601  0.0710 -0.2953
 6318TIP3    H143149   5.406   1.747  12.482 -0.4521  0.5413 -2.2361
 6318TIP3    H243150   5.273   1.748  12.555  0.1877 -0.7487 -1.0030
 6319TIP3   OH243151   0.112   3.665  13.443 -0.0310  0.3077 -0.3352
 6319TIP3    H143152   0.039   3.719  13.412 -0.0403  1.9165  2.1442
 6319TIP3    H243153   0.148   3.715  13.516  1.6391 -1.8951  0.4475
 6320TIP3   OH243154   3.750   1.606  12.280 -0.0542 -0.4704 -0.7618
 6320TIP3    H143155   3.724   1.545  12.349 -1.1842  0.9971  0.1784
 6320TIP3    H243156   3.836   1.638  12.307 -0.9580  0.9187  0.6098
 6321TIP3   OH243157   5.643   5.026  12.401  0.0644 -0.7026 -0.4982
 6321TIP3    H143158   5.694   5.007  12.481 -0.6633 -1.3878 -0.1893
 6321TIP3    H243159   5.555   5.046  12.433  0.1631  0.6721 -1.0160
 6322TIP3   OH243160   7.457   5.327  11.653  0.3114 -0.0529  0.9064
 6322TIP3    H143161   7.480   5.393  11.718 -0.8631  1.7168 -0.3675
 6322TIP3    H243162   7.540   5.292  11.623  1.1311  2.3560  0.1628
 6323TIP3   OH243163   3.713   4.322  12.093 -0.0577  0.1296  0.1169
 6323TIP3    H143164   3.763   4.389  12.142 -0.2030  0.2485  0.1021
 6323TIP3    H243165   3.672   4.370  12.022  0.8079 -0.1820 -0.6084
 6324TIP3   OH243166   6.344   5.728  11.652  0.2822  0.0764 -0.7144
 6324TIP3    H143167   6.377   5.806  11.697  2.4823 -0.6039 -1.0205
 6324TIP3    H243168   6.379   5.735  11.563  0.1790 -1.0617 -0.8592
 6325TIP3   OH243169   3.947   5.528  12.895 -0.4703 -0.0476  0.3324
 6325TIP3    H143170   3.991   5.541  12.811 -1.3980  1.9058  0.1025
 6325TIP3    H243171   3.987   5.592  12.954  0.2061 -1.4279  1.4326
 6326TIP3   OH243172   2.939   7.005  11.588  0.1739 -0.0341  0.4039
 6326TIP3    H143173   2.933   6.930  11.647 -0.6908  1.6653  2.6196
 6326TIP3    H243174   2.856   7.003  11.539 -0.2949  0.0027  1.1720
 6327TIP3   OH243175   2.864   4.112  12.695 -0.3696  0.1882  0.3608
 6327TIP3    H143176   2.781   4.096  12.651 -0.0924  0.7570 -0.3923
 6327TIP3    H243177   2.921   4.147  12.627  0.1666  0.7919  1.1006
 6328TIP3   OH243178   5.327   1.009  12.873 -0.3108  0.3176 -0.3887
 6328TIP3    H143179   5.250   0.954  12.886 -0.0542 -0.7344 -2.7610
 6328TIP3    H243180   5.401   0.948  12.878  0.1047  0.7323 -1.2742
 6329TIP3   OH243181   2.157   4.213  12.723 -0.2141  0.4573  0.3661
 6329TIP3    H143182   2.148   4.136  12.668 -0.1664  0.3566  0.4985
 6329TIP3    H243183   2.067   4.246  12.732 -0.0490  1.3712 -1.0396
 6330TIP3   OH243184   5.687   0.488  12.131  0.5241  0.1111 -0.0092
 6330TIP3    H143185   5.679   0.419  12.066  1.0503 -0.6054  0.6688
 6330TIP3    H243186   5.600   0.529  12.134  0.3497 -0.1905 -0.7649
 6331TIP3   OH243187   6.763   5.483  11.142  0.0907 -0.2111 -0.5170
 6331TIP3    H143188   6.740   5.509  11.052  0.5327  1.9142 -0.0765
 6331TIP3    H243189   6.694   5.519  11.196 -0.3939 -1.8513 -0.0075
 6332TIP3   OH243190   4.462   4.065  11.862 -0.5206 -0.2710 -0.4036
 6332TIP3    H143191   4.411   4.002  11.812 -1.1073 -0.2591  0.1656
 6332TIP3    H243192   4.461   4.145  11.810  0.3806 -0.7661 -1.2185
 6333TIP3   OH243193   2.790   2.426  12.747 -0.4269 -0.0871  0.2368
 6333TIP3    H143194   2.703   2.405  12.713 -0.1669 -0.4015 -0.2489
 6333TIP3    H243195   2.814   2.351  12.801 -0.4631  0.0044  0.3798
 6334TIP3   OH243196   7.285   0.163  12.197  0.2828  0.0673 -0.3180
 6334TIP3    H143197   7.302   0.082  12.246  1.2394  0.7138  0.4496
 6334TIP3    H243198   7.198   0.150  12.160 -0.2761 -0.6529  1.1497
 6335TIP3   OH243199   0.237   6.415  13.814  0.2843 -0.8751 -0.8719
 6335TIP3    H143200   0.151   6.441  13.847 -0.0085 -0.6730 -1.7694
 6335TIP3    H243201   0.227   6.322  13.792  0.3427 -0.8865 -0.8515
 6336TIP3   OH243202   5.201   4.237  12.309 -0.2583 -0.0024 -0.1676
 6336TIP3    H143203   5.204   4.295  12.385 -1.2863  0.9729 -0.8373
 6336TIP3    H243204   5.174   4.153  12.344 -0.5637  0.3923  0.5643
 6337TIP3   OH243205   1.643   6.326  11.994 -0.0115  0.5807  0.4320
 6337TIP3    H143206   1.555   6.358  11.970 -0.4996 -1.2487 -0.3445
 6337TIP3    H243207   1.634   6.300  12.085 -0.3722  0.1264  0.2731
 6338TIP3   OH243208   2.510   1.562  13.282  0.0492  0.7839  0.1478
 6338TIP3    H143209   2.432   1.614  13.262  0.2830  2.4140  2.9107
 6338TIP3    H243210   2.478   1.472  13.291 -0.7497  0.7084 -2.6379
 6339TIP3   OH243211   0.418   6.658  13.288  0.6193 -0.0191 -0.1950
 6339TIP3    H143212   0.405   6.610  13.206  2.0766 -0.9967  0.1083
 6339TIP3    H243213   0.387   6.597  13.356 -1.0490  0.9760 -0.0034
 6340TIP3   OH243214   5.963   8.379  12.760  0.1345 -0.1000  0.0827
 6340TIP3    H143215   6.014   8.356  12.682  0.4305  0.6207  0.0505
 6340TIP3    H243216   5.939   8.471  12.745 -0.5918 -0.2335  0.4163
 6341TIP3   OH243217   4.094   8.392  11.953 -0.4382  0.5975  0.9095
 6341TIP3    H143218   4.094   8.322  12.018 -0.1253  1.4518  1.8586
 6341TIP3    H243219   4.172   8.444  11.973  0.6462 -0.0459 -1.2189
 6342TIP3   OH243220   4.038   3.317  13.735  0.0577  0.2963 -0.6533
 6342TIP3    H143221   3.995   3.316  13.650  0.8875  1.3143 -1.1004
 6342TIP3    H243222   4.124   3.355  13.719  0.6819 -0.5953  0.4416
 6343TIP3   OH243223   0.011   7.279  13.006  0.0888 -0.1404  0.1983
 6343TIP3    H143224  -0.048   7.343  13.046  0.1378 -1.3471  2.3882
 6343TIP3    H243225   0.090   7.329  12.985  0.3377  0.4941  2.3435
 6344TIP3   OH243226   8.107   1.775  13.073  0.0488 -0.1790 -0.2089
 6344TIP3    H143227   8.094   1.682  13.056  0.1033  0.1773 -2.5138
 6344TIP3    H243228   8.201   1.784  13.088  0.0806 -0.4624 -0.2474
 6345TIP3   OH243229   5.920   6.311  13.436 -0.5551  0.4196 -0.0363
 6345TIP3    H143230   5.974   6.246  13.480 -1.1393 -0.3784 -0.4617
 6345TIP3    H243231   5.835   6.268  13.426 -0.4952  0.6311 -1.7681
 6346TIP3   OH243232   7.808   1.992  12.150 -0.5891 -0.2456 -0.3274
 6346TIP3    H143233   7.852   2.040  12.080 -1.4770  1.2278  0.0952
 6346TIP3    H243234   7.829   2.040  12.230 -0.8053 -1.0612  0.2404
 6347TIP3   OH243235   0.622   8.339  12.561  0.3625 -0.2032 -0.1258
 6347TIP3    H143236   0.592   8.257  12.522  1.2744 -0.4115 -0.4112
 6347TIP3    H243237   0.543   8.392  12.571 -0.1280 -0.8352 -0.6225
 6348TIP3   OH243238   5.681   5.251  14.091  0.0935 -0.0632  0.4284
 6348TIP3    H143239   5.613   5.308  14.127  0.0933  0.0661  0.2275
 6348TIP3    H243240   5.640   5.213  14.013 -0.3597 -1.3235  1.2559
 6349TIP3   OH243241   6.375   2.774  13.072 -0.5003  0.1644 -0.0876
 6349TIP3    H143242   6.326   2.759  12.991 -2.0084 -1.8407  1.1042
 6349TIP3    H243243   6.424   2.854  13.056  0.3585 -0.8711 -3.4894
 6350TIP3   OH243244   1.055   0.764  11.548 -0.1499  0.2176  0.3994
 6350TIP3    H143245   0.960   0.766  11.547 -0.2093 -0.4964  1.9736
 6350TIP3    H243246   1.078   0.694  11.487 -0.6851 -0.2585  0.7283
 6351TIP3   OH243247   5.766   5.840  12.929  0.6092 -0.4369  0.0346
 6351TIP3    H143248   5.855   5.805  12.917  0.3458 -0.9219 -0.5514
 6351TIP3    H243249   5.712   5.762  12.941  0.0693 -0.2111 -0.9055
 6352TIP3   OH243250   2.981   7.596  12.719  0.3717  0.1704  0.3186
 6352TIP3    H143251   2.967   7.656  12.645 -0.9972 -0.7658 -0.2035
 6352TIP3    H243252   3.075   7.603  12.736  0.6729  0.6493 -1.3033
 6353TIP3   OH243253   6.579   4.652  12.613  0.2948 -0.1652 -0.3799
 6353TIP3    H143254   6.582   4.557  12.627  1.6985  0.0137  0.6937
 6353TIP3    H243255   6.550   4.688  12.697 -2.0039  0.2851 -1.3009
 6354TIP3   OH243256   2.950   5.131  13.338  0.1023  0.3775 -0.7695
 6354TIP3    H143257   2.881   5.097  13.280 -0.1791 -0.7478  0.1947
 6354TIP3    H243258   2.978   5.056  13.389  0.6802  1.2426  0.2281
 6355TIP3   OH243259   7.232   5.405  11.434 -0.0568  0.2551  0.3895
 6355TIP3    H143260   7.293   5.355  11.487 -0.0130 -0.0578  0.0491
 6355TIP3    H243261   7.257   5.496  11.448  0.1415  0.1579  0.6719
 6356TIP3   OH243262   6.459   8.025  13.979 -0.2422 -0.4607  0.5636
 6356TIP3    H143263   6.551   8.034  13.954  0.2282 -1.9301  1.5818
 6356TIP3    H243264   6.417   8.104  13.945  1.1772 -0.2546 -0.8524
 6357TIP3   OH243265   1.607   1.473  11.820  0.2244 -0.1970 -0.2913
 6357TIP3    H143266   1.578   1.496  11.908  2.2956  0.6733  0.2165
 6357TIP3    H243267   1.578   1.383  11.808 -0.2428 -0.2703  1.1981
 6358TIP3   OH243268   5.493   3.012  13.649 -0.0641 -0.2660  0.1642
 6358TIP3    H143269   5.552   2.980  13.718  0.5106  0.1048 -0.1506
 6358TIP3    H243270   5.442   2.935  13.624  0.7847 -0.7703 -0.0563
 6359TIP3   OH243271   7.952   0.241  12.480  0.2657 -0.6926  0.2885
 6359TIP3    H143272   7.859   0.218  12.478 -0.1747  0.9262 -1.7575
 6359TIP3    H243273   7.955   0.332  12.452  2.5381 -1.0252 -0.8201
 6360TIP3   OH243274   8.028   3.297  13.186  0.9981  0.1069 -0.3152
 6360TIP3    H143275   8.013   3.388  13.161 -0.5776 -0.5873 -2.1160
 6360TIP3    H243276   8.053   3.254  13.105 -0.8189 -1.5437 -0.0768
 6361TIP3   OH243277   5.847   5.148  12.271 -0.1370  0.0954 -0.0584
 6361TIP3    H143278   5.763   5.111  12.300 -0.9244  2.4293  0.8626
 6361TIP3    H243279   5.848   5.133  12.176 -1.9162  0.6172 -0.1876
 6362TIP3   OH243280   0.711   3.152  12.020 -0.5268  0.4841  0.5792
 6362TIP3    H143281   0.793   3.199  12.004 -0.5122  0.6268  1.0542
 6362TIP3    H243282   0.667   3.203  12.088 -0.5075 -0.1999  1.1115
 6363TIP3   OH243283   2.420   7.545  13.475 -0.2765 -0.0611  0.1387
 6363TIP3    H143284   2.368   7.620  13.446  0.1816  0.4831  0.6834
 6363TIP3    H243285   2.508   7.582  13.489 -0.0278 -0.7233  0.3327
 6364TIP3   OH243286   0.017   5.645  13.721 -0.5390  0.4240  0.4931
 6364TIP3    H143287  -0.077   5.631  13.728 -0.3426 -0.4980  1.5116
 6364TIP3    H243288   0.054   5.556  13.715  0.3549  0.7076  1.4972
 6365TIP3   OH243289   2.203   6.108  12.234 -0.9306  0.2342  0.8048
 6365TIP3    H143290   2.194   6.037  12.170 -1.4734  0.4947  0.5922
 6365TIP3    H243291   2.189   6.065  12.319  1.0631 -0.3831  0.8998
 6366TIP3   OH243292   3.685   1.787  11.688  0.2948  0.1620 -0.3602
 6366TIP3    H143293   3.749   1.854  11.713 -2.1051  1.7203  2.0683
 6366TIP3    H243294   3.621   1.833  11.634 -1.0515 -0.2483  0.8220
 6367TIP3   OH243295   7.149   6.577  12.087 -0.4517 -0.1508  1.0837
 6367TIP3    H143296   7.156   6.515  12.160  1.4543  0.8051  1.7671
 6367TIP3    H243297   7.174   6.661  12.125 -1.2336  0.7145 -0.2577
 6368TIP3   OH243298   1.532   7.122  11.784  0.6644  0.5995  0.7556
 6368TIP3    H143299   1.506   7.214  11.780 -0.5431  0.4293  3.0205
 6368TIP3    H243300   1.450   7.073  11.780  1.0002 -0.2149  2.7154
 6369TIP3   OH243301   4.833   0.336  12.954  0.2705 -0.8729  0.2511
 6369TIP3    H143302   4.845   0.263  12.893 -0.1688 -1.4579  0.8633
 6369TIP3    H243303   4.794   0.297  13.032  3.0976 -0.6122  1.9498
 6370TIP3   OH243304   2.557   6.714  13.330  0.1898 -0.2304 -0.0228
 6370TIP3    H143305   2.572   6.623  13.355 -0.8006 -0.8729 -1.6372
 6370TIP3    H243306   2.485   6.743  13.385  1.0970 -0.1057  1.1355
 6371TIP3   OH243307   1.009   2.927  12.782 -0.2341  0.4309  0.4091
 6371TIP3    H143308   1.063   2.918  12.861  0.1596  3.4579  0.5794
 6371TIP3    H243309   0.920   2.935  12.816 -0.5711 -1.8815  0.2603
 6372TIP3   OH243310   3.487   2.399  11.632 -0.4173  0.3657  0.2507
 6372TIP3    H143311   3.494   2.413  11.727 -1.2701 -1.8815  0.7292
 6372TIP3    H243312   3.578   2.390  11.602 -0.1752 -0.5770  1.1968
 6373TIP3   OH243313   0.631   2.150  12.513 -0.3774  0.5746 -0.4190
 6373TIP3    H143314   0.536   2.151  12.516 -0.4256 -0.5122  3.1844
 6373TIP3    H243315   0.656   2.070  12.559  2.2940  1.2161 -0.5706
 6374TIP3   OH243316   8.377   7.348  12.333 -0.3401 -0.1926 -0.3387
 6374TIP3    H143317   8.365   7.277  12.397 -1.0603  0.6883  0.5414
 6374TIP3    H243318   8.330   7.318  12.255 -2.5623  0.2208  0.7599
 6375TIP3   OH243319   3.759   1.121  12.526  0.5991  0.7035  0.1245
 6375TIP3    H143320   3.802   1.075  12.454  0.3422 -0.3671  0.6449
 6375TIP3    H243321   3.753   1.212  12.496  1.3982  0.4693 -0.7825
 6376TIP3   OH243322   7.784   2.606  12.413 -0.9543  0.7715  0.2652
 6376TIP3    H143323   7.808   2.685  12.364 -0.3166  0.8011  0.6191
 6376TIP3    H243324   7.779   2.634  12.504  0.9030  0.0773  0.6249
 6377TIP3   OH243325   0.400   3.743  12.738  0.1158  0.0632 -0.2894
 6377TIP3    H143326   0.327   3.777  12.687 -1.4158 -1.5108  0.7407
 6377TIP3    H243327   0.442   3.680  12.681  1.2247  1.5308 -1.1737
 6378TIP3   OH243328   6.076   4.108  12.894  0.1413 -0.0466 -0.0630
 6378TIP3    H143329   6.171   4.108  12.909  0.0384 -0.7788  0.6474
 6378TIP3    H243330   6.064   4.050  12.819  0.2686  0.1941 -0.2712
 6379TIP3   OH243331   5.950   2.446  12.928  0.1458 -0.5883 -0.0105
 6379TIP3    H143332   5.923   2.415  13.015  1.0553 -2.0833 -0.2300
 6379TIP3    H243333   5.875   2.425  12.872  1.1216 -3.6924 -0.3893
 6380TIP3   OH243334   5.839   5.615  12.533 -0.3527  0.0521 -0.3441
 6380TIP3    H143335   5.926   5.654  12.528  0.6475 -1.7095  1.6925
 6380TIP3    H243336   5.840   5.546  12.466 -0.1254 -0.0308 -0.2587
 6381TIP3   OH243337   5.948   1.642  11.755 -0.0494 -0.1308  0.2249
 6381TIP3    H143338   5.993   1.654  11.839 -0.7265 -0.0397  0.5824
 6381TIP3    H243339   5.962   1.725  11.709 -1.0510  0.4471  0.9218
 6382TIP3   OH243340   7.528   5.214  13.743 -0.1978  0.3210 -0.3642
 6382TIP3    H143341   7.562   5.303  13.749 -1.0594  0.5785  1.5532
 6382TIP3    H243342   7.446   5.217  13.792  0.4918 -1.8805  1.0452
 6383TIP3   OH243343   4.171   7.787  11.686 -0.5848 -0.5066 -0.0898
 6383TIP3    H143344   4.138   7.875  11.665  2.0566  0.5791 -0.0885
 6383TIP3    H243345   4.195   7.750  11.602 -0.3248 -0.6404  0.0447
 6384TIP3   OH243346   3.980   1.732  12.270  0.3011  0.3093  0.0933
 6384TIP3    H143347   4.024   1.771  12.346  0.0238  1.9504 -0.5439
 6384TIP3    H243348   4.017   1.779  12.195  2.3170 -2.8425 -1.0971
 6385TIP3   OH243349   7.547   1.243  12.736 -0.3354  0.6899 -0.2883
 6385TIP3    H143350   7.593   1.281  12.661  1.0416  1.5382  0.9287
 6385TIP3    H243351   7.517   1.319  12.786 -0.5642  0.1476  0.4181
 6386TIP3   OH243352   1.984   4.962  11.938 -0.0070  0.3113 -1.0079
 6386TIP3    H143353   2.052   5.026  11.916  1.6500 -0.8657  0.3445
 6386TIP3    H243354   1.931   4.955  11.859  1.4902  1.2486 -2.1624
 6387TIP3   OH243355   5.819   0.873  12.507 -0.5693 -0.2227  0.2199
 6387TIP3    H143356   5.727   0.855  12.487 -1.2410  1.5632  1.4292
 6387TIP3    H243357   5.858   0.891  12.421 -1.6424  0.1295 -0.2271
 6388TIP3   OH243358   7.147   0.705  11.799 -1.0422  0.0036 -0.0176
 6388TIP3    H143359   7.099   0.626  11.774 -1.8381  0.6019 -0.4182
 6388TIP3    H243360   7.207   0.676  11.868 -2.2030 -0.7071  0.7260
 6389TIP3   OH243361   0.600   4.259  12.354  0.3559  0.1257  0.2680
 6389TIP3    H143362   0.543   4.184  12.368 -1.5943  1.5539  0.4963
 6389TIP3    H243363   0.541   4.335  12.356  1.4137  1.4446 -4.6433
 6390TIP3   OH243364   1.656   2.124  11.829  0.2357  0.6888 -0.0836
 6390TIP3    H143365   1.747   2.144  11.808  0.9467 -1.4142  0.7924
 6390TIP3    H243366   1.640   2.170  11.911  1.5401 -1.3404  1.4031
 6391TIP3   OH243367   7.853   4.010  12.016 -0.4533  0.0957  0.4633
 6391TIP3    H143368   7.886   3.922  12.038 -2.8145 -1.0479 -0.2604
 6391TIP3    H243369   7.907   4.036  11.941 -0.1784 -1.0626  0.2249
 6392TIP3   OH243370   4.428   6.604  12.749  0.0060 -0.1752  0.5102
 6392TIP3    H143371   4.410   6.694  12.722  0.0044 -0.4310 -0.3456
 6392TIP3    H243372   4.518   6.607  12.782  1.1715 -0.4562 -2.3738
 6393TIP3   OH243373   6.143   2.057  12.648  0.0956  0.3510 -0.5914
 6393TIP3    H143374   6.221   2.023  12.604  0.0033  0.4369 -0.8249
 6393TIP3    H243375   6.134   2.146  12.614  2.5693  2.1491  2.8683
 6394TIP3   OH243376   2.489   4.831  12.854 -0.2995 -0.1675  0.2200
 6394TIP3    H143377   2.446   4.778  12.922  0.1172 -0.6606  0.1121
 6394TIP3    H243378   2.427   4.832  12.782 -1.1374  1.1242  0.9310
 6395TIP3   OH243379   6.485   4.168  13.541 -0.0331  0.3561 -0.3443
 6395TIP3    H143380   6.531   4.089  13.568 -2.8419 -1.1889  0.3809
 6395TIP3    H243381   6.470   4.157  13.447 -0.7247 -0.1798 -0.1779
 6396TIP3   OH243382   3.342   1.386  18.525  0.3050 -0.7405  0.3287
 6396TIP3    H143383   3.314   1.464  18.572 -0.5807 -1.1868  0.5753
 6396TIP3    H243384   3.269   1.367  18.465  0.6833 -1.1471 -0.0117
 6397TIP3   OH243385   5.746   2.319  12.764 -0.5684  0.4418 -0.3109
 6397TIP3    H143386   5.682   2.315  12.835 -0.3078  0.1645 -0.0880
 6397TIP3    H243387   5.719   2.250  12.704 -0.5868  0.4474 -0.3094
 6398TIP3   OH243388   0.273   2.239  12.102 -0.0774 -0.4792  0.3809
 6398TIP3    H143389   0.242   2.254  12.013  1.8293 -1.0816 -0.4431
 6398TIP3    H243390   0.347   2.298  12.112 -0.5440 -0.0863  1.7543
 6399TIP3   OH243391   1.558   4.961  13.019 -0.3394 -0.1156 -0.0556
 6399TIP3    H143392   1.494   4.909  12.970 -0.5837 -0.3798  0.5407
 6399TIP3    H243393   1.612   4.897  13.063 -1.5939  0.1097  1.9280
 6400TIP3   OH243394   1.145   5.772  12.543 -0.4797 -0.0537 -0.2243
 6400TIP3    H143395   1.053   5.769  12.571 -0.5467  0.2460 -0.4087
 6400TIP3    H243396   1.182   5.689  12.575 -0.5725  0.2332  0.6631
 6401TIP3   OH243397   1.637   2.214  13.523 -0.5777 -0.1789  0.2934
 6401TIP3    H143398   1.709   2.151  13.515 -1.3483 -0.8417 -2.9145
 6401TIP3    H243399   1.666   2.291  13.475 -0.6782  1.0114  2.0247
 6402TIP3   OH243400   4.846   3.291  12.828 -0.1486  0.1847 -0.0420
 6402TIP3    H143401   4.847   3.363  12.890  1.0521 -2.2019  2.9925
 6402TIP3    H243402   4.766   3.243  12.847 -0.5552  0.2249 -1.4942
 6403TIP3   OH243403   6.997   5.011  11.927  0.3361 -0.4072 -0.0951
 6403TIP3    H143404   6.990   4.921  11.894  0.6892 -0.5024  0.0847
 6403TIP3    H243405   7.013   5.064  11.848 -1.8590 -0.2153 -0.4979
 6404TIP3   OH243406   5.157   5.562  11.808  0.0051 -0.2136 -0.2711
 6404TIP3    H143407   5.244   5.580  11.845 -0.5550 -1.2942  1.7260
 6404TIP3    H243408   5.097   5.609  11.866 -0.9999 -2.8691  1.0176
 6405TIP3   OH243409   7.480   5.245  11.982  0.5067  0.1199 -0.2427
 6405TIP3    H143410   7.529   5.183  11.928  1.6335  0.0204  0.8623
 6405TIP3    H243411   7.399   5.260  11.933  0.7621 -1.2472 -1.1353
 6406TIP3   OH243412   5.022   6.240  12.221  0.3863  0.2232 -0.1103
 6406TIP3    H143413   5.075   6.217  12.298 -0.9434 -1.1172  0.4508
 6406TIP3    H243414   5.005   6.156  12.178 -1.9102  0.5055  0.1595
 6407TIP3   OH243415   4.243   2.025  13.876  0.3962 -0.3867 -0.1399
 6407TIP3    H143416   4.295   2.029  13.796 -0.7251  0.1667 -0.8705
 6407TIP3    H243417   4.153   2.037  13.846 -0.0300 -0.0144  1.2354
 6408TIP3   OH243418   7.161   2.431  11.729 -0.1497  0.3437 -0.0318
 6408TIP3    H143419   7.220   2.430  11.804 -0.4287 -1.0157  0.1991
 6408TIP3    H243420   7.075   2.454  11.766 -0.0466  0.9371 -0.1487
 6409TIP3   OH243421   5.604   7.472  12.156 -0.1971  0.0833 -0.2045
 6409TIP3    H143422   5.565   7.531  12.091 -0.4481  0.6293  0.4351
 6409TIP3    H243423   5.529   7.432  12.200 -0.0767  1.4098  1.2809
 6410TIP3   OH243424   0.629   5.248  12.821  0.1269 -0.0645 -0.4268
 6410TIP3    H143425   0.688   5.269  12.894  0.1803  0.7752 -0.7063
 6410TIP3    H243426   0.544   5.235  12.863  0.0494  0.9188 -0.2667
 6411TIP3   OH243427   6.029   5.342  11.770  0.1326  0.1463  0.1218
 6411TIP3    H143428   6.049   5.426  11.728  1.5480 -0.8036 -1.2141
 6411TIP3    H243429   5.971   5.298  11.708 -0.1622 -0.0972  0.5647
 6412TIP3   OH243430   7.296   0.665  12.800  0.2545  0.4597 -0.0841
 6412TIP3    H143431   7.265   0.727  12.734 -2.2134  0.6359  1.1289
 6412TIP3    H243432   7.389   0.685  12.810  0.0658  2.2941 -1.4932
 6413TIP3   OH243433   0.568   0.856  11.672  0.0176  0.2957 -0.2762
 6413TIP3    H143434   0.547   0.865  11.765 -0.9301  1.3295 -0.5673
 6413TIP3    H243435   0.600   0.942  11.646  1.3892 -0.3048 -0.6617
 6414TIP3   OH243436   2.511   3.659  11.718  0.0859  0.1443  0.3862
 6414TIP3    H143437   2.531   3.719  11.789  0.7505  1.1455 -0.6058
 6414TIP3    H243438   2.539   3.573  11.750 -0.4469  0.4229  1.6475
 6415TIP3   OH243439   7.412   7.203  11.655  0.5855  0.7321 -0.4734
 6415TIP3    H143440   7.496   7.157  11.657  0.5720  0.7297  0.0884
 6415TIP3    H243441   7.432   7.288  11.617  0.8423  0.7361 -0.3296
 6416TIP3   OH243442   0.782   1.010  13.169  0.3130 -0.0420  0.7065
 6416TIP3    H143443   0.872   1.040  13.158  0.6878 -1.1682  0.5644
 6416TIP3    H243444   0.762   1.025  13.261  0.2941  1.0978  0.5381
 6417TIP3   OH243445   7.307   7.486  12.017  0.0622 -0.1228  0.2674
 6417TIP3    H143446   7.226   7.526  12.049  0.2716  0.5599 -0.0422
 6417TIP3    H243447   7.279   7.402  11.980 -0.5048  0.1193  0.1375
 6418TIP3   OH243448   7.446   0.093  11.680  0.5318 -0.3915 -0.1587
 6418TIP3    H143449   7.526   0.145  11.688 -0.4918  1.1837  0.3476
 6418TIP3    H243450   7.473   0.004  11.700  1.9062  0.3277  1.4280
 6419TIP3   OH243451   3.615   1.379  12.001  0.8342  0.4758 -0.4453
 6419TIP3    H143452   3.537   1.424  12.033 -1.2804 -2.2627 -1.3722
 6419TIP3    H243453   3.640   1.427  11.922 -0.0131  1.3106 -0.2248
 6420TIP3   OH243454   2.751   0.047  11.871  0.7572  0.2414 -0.1990
 6420TIP3    H143455   2.739   0.134  11.909  0.2590 -0.0204  0.2607
 6420TIP3    H243456   2.662   0.018  11.848  0.8536 -0.3802  0.1910
 6421TIP3   OH243457   8.245   2.190  12.124  0.1430  0.3160  0.1962
 6421TIP3    H143458   8.286   2.277  12.129  0.4189  0.2876 -1.1211
 6421TIP3    H243459   8.232   2.164  12.215 -1.8327  2.6130  0.6638
 6422TIP3   OH243460   7.988   4.997  11.846 -0.1360  0.0717 -0.0227
 6422TIP3    H143461   8.051   4.993  11.918  0.1743 -2.1348 -0.3440
 6422TIP3    H243462   8.000   4.914  11.800 -1.0260  1.0089 -2.0329
 6423TIP3   OH243463   4.000   5.561  12.637 -0.0675 -0.6701 -0.1591
 6423TIP3    H143464   3.934   5.524  12.578 -0.0421  0.6500 -1.0460
 6423TIP3    H243465   3.978   5.654  12.641  0.6430 -0.5402  1.0040
 6424TIP3   OH243466   6.300   3.109  11.771 -0.7699  0.2759 -0.1449
 6424TIP3    H143467   6.281   3.181  11.710 -0.9908  1.8994  1.7262
 6424TIP3    H243468   6.361   3.053  11.723 -1.0115  1.3950 -1.8821
 6425TIP3   OH243469   3.472   3.442  12.436 -0.3960 -1.0650  0.3573
 6425TIP3    H143470   3.421   3.402  12.365 -0.9488  1.2858 -0.6608
 6425TIP3    H243471   3.407   3.483  12.493  0.2217  1.1964 -0.4635
 6426TIP3   OH243472   2.689   1.063  12.347  0.6997  0.1397  0.2674
 6426TIP3    H143473   2.680   1.013  12.428  1.0196 -1.1780 -0.4657
 6426TIP3    H243474   2.749   1.134  12.369 -0.0904  0.4623  1.4523
 6427TIP3   OH243475   0.003   0.136  13.470  0.1705 -0.0672 -0.2740
 6427TIP3    H143476   0.087   0.104  13.502  0.0070  1.7655  2.3047
 6427TIP3    H243477  -0.046   0.159  13.549 -0.5444  4.2721 -1.6927
 6428TIP3   OH243478   1.425   2.779  13.276  0.4780  0.5535 -0.3833
 6428TIP3    H143479   1.520   2.789  13.279  0.4829  0.2527  0.8789
 6428TIP3    H243480   1.397   2.785  13.367 -0.4914 -1.3427 -0.5017
 6429TIP3   OH243481   3.679   7.826  12.802  0.2017  0.1266 -0.3339
 6429TIP3    H143482   3.720   7.779  12.874  1.4038  1.3945 -0.1609
 6429TIP3    H243483   3.598   7.862  12.839 -1.0935 -2.2568 -0.6377
 6430TIP3   OH243484   3.888   0.963  12.361 -0.6724  0.3988  0.0430
 6430TIP3    H143485   3.970   0.960  12.311 -1.4687  0.1737 -1.2797
 6430TIP3    H243486   3.868   0.871  12.379 -0.6576  0.4527  0.3385
 6431TIP3   OH243487   3.976   1.463  13.070 -0.1195  0.2143 -0.4548
 6431TIP3    H143488   4.028   1.393  13.110  0.7304  1.3853  0.5446
 6431TIP3    H243489   3.981   1.446  12.976  0.2511 -0.9259 -0.2477
 6432TIP3   OH243490   5.669   7.115  12.436  0.8865  0.7196  0.5758
 6432TIP3    H143491   5.720   7.196  12.451  1.9202  0.5919 -1.7980
 6432TIP3    H243492   5.624   7.130  12.353 -1.4848  0.0244  1.6421
 6433TIP3   OH243493   0.003   3.405  12.359 -0.2859 -0.0459  0.4105
 6433TIP3    H143494   0.050   3.405  12.275 -1.7714 -1.5966 -0.4758
 6433TIP3    H243495  -0.039   3.491  12.363  0.1471  0.2010 -0.2161
 6434TIP3   OH243496   2.995   1.028  13.224  0.0915 -0.0046  0.8841
 6434TIP3    H143497   2.913   1.066  13.257 -0.0536 -0.0848  0.6126
 6434TIP3    H243498   3.048   1.015  13.303 -0.4699 -0.7108  1.1594
 6435TIP3   OH243499   1.390   5.881  12.460  0.5182  0.2290 -0.3354
 6435TIP3    H143500   1.310   5.846  12.498  0.3553 -0.8355 -1.5929
 6435TIP3    H243501   1.373   5.974  12.450 -0.3668  0.0974 -0.1297
 6436TIP3   OH243502   1.282   5.247  12.664  0.4593  0.7295  0.6466
 6436TIP3    H143503   1.273   5.151  12.668  1.3986  0.6498  1.1539
 6436TIP3    H243504   1.210   5.280  12.717 -0.3384  0.3370 -0.1667
 6437TIP3   OH243505   1.827   5.424  12.974  0.8945  0.0982 -0.3029
 6437TIP3    H143506   1.861   5.444  12.886 -1.5285 -0.5525 -1.4810
 6437TIP3    H243507   1.905   5.424  13.030  2.6764 -0.4112 -2.5976
 6438TIP3   OH243508   7.791   7.763  12.830 -0.5068 -0.3821 -0.1412
 6438TIP3    H143509   7.755   7.812  12.905 -0.5257 -1.0220  0.2731
 6438TIP3    H243510   7.886   7.769  12.842 -0.5069 -1.9086  0.8968
 6439TIP3   OH243511   6.990   5.525  12.027 -0.3105 -0.0235  0.5531
 6439TIP3    H143512   7.047   5.468  12.079  1.0077  0.6672 -0.1013
 6439TIP3    H243513   7.048   5.564  11.962 -1.4067  1.1995  0.2790
 6440TIP3   OH243514   6.575   7.918  11.891  0.1334  0.4189  0.2188
 6440TIP3    H143515   6.529   7.865  11.955  0.1332  0.7961  0.5372
 6440TIP3    H243516   6.606   7.856  11.825 -1.5276  0.2542 -0.4360
 6441TIP3   OH243517   3.606   6.291  13.273 -0.1079  0.1886 -0.4434
 6441TIP3    H143518   3.592   6.381  13.300 -0.2780  0.0381 -0.0136
 6441TIP3    H243519   3.538   6.241  13.319  0.0765 -0.1758 -0.5575
 6442TIP3   OH243520   2.253   0.661  13.416  0.3652  0.1516  0.1437
 6442TIP3    H143521   2.240   0.580  13.367 -0.5587 -0.1049  0.7780
 6442TIP3    H243522   2.260   0.633  13.507 -1.5022  0.8690  0.5550
 6443TIP3   OH243523   3.118   7.813  13.101  0.1122 -0.5285 -0.1199
 6443TIP3    H143524   3.132   7.722  13.125 -0.0479 -0.8151 -1.0757
 6443TIP3    H243525   3.189   7.861  13.145 -0.7775 -0.8606  1.7921
 6444TIP3   OH243526   3.218   5.770  11.935 -0.1954 -0.0003  0.0032
 6444TIP3    H143527   3.152   5.798  11.872  0.8866  0.1995 -1.0869
 6444TIP3    H243528   3.297   5.756  11.882  0.7504  0.1789  1.3198
 6445TIP3   OH243529   6.955   5.245  13.798 -0.3998 -0.3132 -0.0553
 6445TIP3    H143530   6.972   5.339  13.786  2.5549 -0.5132  1.7477
 6445TIP3    H243531   6.898   5.241  13.875 -1.1181 -0.0362 -0.5487
 6446TIP3   OH243532   1.672   5.226  12.765  0.0134  0.4315  0.2426
 6446TIP3    H143533   1.714   5.175  12.697 -0.6789  1.5020 -1.0279
 6446TIP3    H243534   1.741   5.243  12.829  0.9359  0.2924 -0.6962
 6447TIP3   OH243535   3.081   6.167  12.584 -0.3138 -0.6403 -0.5090
 6447TIP3    H143536   3.089   6.262  12.580 -0.7671 -0.5009  1.0075
 6447TIP3    H243537   3.115   6.144  12.671 -1.5647 -1.6807 -0.2580
 6448TIP3   OH243538   7.407   6.162  12.681 -0.4302 -0.2572  0.0148
 6448TIP3    H143539   7.401   6.068  12.663 -0.8928  0.1181 -2.1441
 6448TIP3    H243540   7.393   6.203  12.595 -0.5859  1.7949  0.9690
 6449TIP3   OH243541   0.059   2.625  13.312 -0.2729 -0.1849 -0.9016
 6449TIP3    H143542   0.096   2.681  13.380 -0.1156 -0.8437 -0.4421
 6449TIP3    H243543   0.083   2.536  13.337  0.7731 -0.3730 -2.4103
 6450TIP3   OH243544   7.110   6.846  13.417 -0.4224 -0.2854  0.0008
 6450TIP3    H143545   7.033   6.903  13.426 -0.7061 -0.5193 -0.8578
 6450TIP3    H243546   7.083   6.763  13.456 -0.6356 -0.3889 -0.3595
 6451TIP3   OH243547   3.844   3.004  12.764  0.6180 -0.0429  0.3980
 6451TIP3    H143548   3.869   3.045  12.681 -1.4218  0.1261 -0.1885
 6451TIP3    H243549   3.809   3.076  12.816 -2.8497 -0.8337 -0.5772
 6452TIP3   OH243550   6.089   6.170  13.232  0.4048 -0.0377 -0.1539
 6452TIP3    H143551   6.031   6.094  13.222  1.3034 -1.2104  2.6631
 6452TIP3    H243552   6.037   6.235  13.279  0.9170 -0.6022  1.2406
 6453TIP3   OH243553   4.607   2.918  13.146 -0.1686  0.0826  0.4218
 6453TIP3    H143554   4.514   2.941  13.142 -0.1047  0.2917  0.0647
 6453TIP3    H243555   4.629   2.919  13.239 -0.8556 -1.2998  0.6122
 6454TIP3   OH243556   0.765   5.948  12.268 -0.2698  0.1682 -0.0369
 6454TIP3    H143557   0.823   5.981  12.336  0.0796 -0.6294  0.0695
 6454TIP3    H243558   0.704   5.890  12.314  0.4162 -0.9365 -0.4797
 6455TIP3   OH243559   4.241   7.845  12.748  0.0540  0.3484 -0.4594
 6455TIP3    H143560   4.179   7.788  12.703 -0.4987 -0.2686  1.0095
 6455TIP3    H243561   4.323   7.795  12.750 -0.0628  0.1621 -0.3411
 6456TIP3   OH243562   7.236   7.465  12.441 -0.4049 -0.3206 -0.0269
 6456TIP3    H143563   7.152   7.509  12.439  0.1532  0.7368 -1.5570
 6456TIP3    H243564   7.276   7.484  12.357  2.0791  0.5864  1.2584
 6457TIP3   OH243565   5.541   1.584  12.142 -0.1815 -0.5635  0.3999
 6457TIP3    H143566   5.626   1.551  12.113  0.0844  0.7002 -0.3470
 6457TIP3    H243567   5.485   1.507  12.144  0.7200 -1.2590 -0.0736
 6458TIP3   OH243568   6.907   2.580  12.249 -0.4831 -0.0883 -0.1676
 6458TIP3    H143569   6.901   2.663  12.203  0.0337 -0.1519 -0.3547
 6458TIP3    H243570   6.993   2.583  12.292  0.5205 -1.4160 -1.9400
 6459TIP3   OH243571   7.923   8.174  12.575 -0.1807 -0.4505 -0.0727
 6459TIP3    H143572   7.997   8.128  12.537 -0.6013 -2.1047  0.9799
 6459TIP3    H243573   7.954   8.203  12.661 -0.1054  0.7483 -0.4910
 6460TIP3   OH243574   6.880   5.925  12.236  0.3192 -0.3712  0.7127
 6460TIP3    H143575   6.810   5.945  12.298  1.2629  1.6008  1.2058
 6460TIP3    H243576   6.839   5.866  12.172 -1.5866  0.1831  1.3533
 6461TIP3   OH243577   0.918   3.690  11.747 -0.2454  0.1973 -0.0880
 6461TIP3    H143578   0.861   3.625  11.787 -0.8105  1.4238  1.1488
 6461TIP3    H243579   0.998   3.687  11.800  0.0158  0.0049 -0.4865
 6462TIP3   OH243580   3.011   1.946  12.201  0.6684  0.1060 -0.2309
 6462TIP3    H143581   2.989   1.880  12.135  1.2733  0.6811 -1.0382
 6462TIP3    H243582   3.048   2.018  12.150  0.8654  0.6908  0.7239
 6463TIP3   OH243583   1.180   8.442  12.815 -0.1657 -0.4885 -0.3104
 6463TIP3    H143584   1.209   8.517  12.764 -1.3811  0.3204  0.1366
 6463TIP3    H243585   1.201   8.366  12.760  2.6113  0.0087 -0.0524
 6464TIP3   OH243586   3.522   6.235  12.470 -0.1787 -0.1349 -0.2470
 6464TIP3    H143587   3.583   6.187  12.525  0.2582  0.4504 -0.2077
 6464TIP3    H243588   3.572   6.310  12.438 -1.1171  0.8647  0.5294
 6465TIP3   OH243589   0.618   7.386  11.809 -0.6714  0.2323  0.0330
 6465TIP3    H143590   0.549   7.432  11.760 -1.0430  0.8742  1.1201
 6465TIP3    H243591   0.608   7.417  11.899 -0.4982 -1.4855  0.6850
 6466TIP3   OH243592   3.378   7.441  11.727 -0.2074  0.0395  0.4205
 6466TIP3    H143593   3.346   7.471  11.813 -1.5921  1.2482 -0.4604
 6466TIP3    H243594   3.364   7.516  11.669  0.3516 -0.8776 -0.9514
 6467TIP3   OH243595   1.971   8.249  13.477  0.5883 -0.1502  0.0341
 6467TIP3    H143596   1.946   8.318  13.415  0.8181 -1.4831 -1.5952
 6467TIP3    H243597   2.064   8.233  13.459  0.5742 -0.7778  0.4893
 6468TIP3   OH243598   5.937   4.268  13.940  0.0801 -0.4555 -0.5605
 6468TIP3    H143599   5.870   4.337  13.939 -0.5252 -0.9946  0.4157
 6468TIP3    H243600   5.970   4.269  14.030 -0.9861 -2.3914 -0.0990
 6469TIP3   OH243601   6.953   2.992  12.383  0.2536 -0.6522 -0.5043
 6469TIP3    H143602   6.902   3.066  12.417 -0.3238 -1.3794  0.2458
 6469TIP3    H243603   6.888   2.925  12.362  0.8178 -1.1952 -0.5606
 6470TIP3   OH243604   6.469   0.980  12.250 -0.0824 -1.1831 -0.3000
 6470TIP3    H143605   6.411   0.970  12.174 -2.6837 -0.7748  1.5409
 6470TIP3    H243606   6.451   0.903  12.304  0.7114 -0.7627  0.5921
 6471TIP3   OH243607   3.133   1.193  12.695 -0.4468 -0.1827  0.0033
 6471TIP3    H143608   3.158   1.198  12.603 -4.4040 -2.2242 -1.4075
 6471TIP3    H243609   3.051   1.241  12.700 -1.6218 -2.2087  1.8399
 6472TIP3   OH243610   3.376   7.360  12.487 -0.0594 -0.1205  0.0754
 6472TIP3    H143611   3.359   7.281  12.539 -1.4154 -0.0360 -0.2183
 6472TIP3    H243612   3.356   7.432  12.547 -0.1754 -0.0107 -0.0970
 6473TIP3   OH243613   4.059   6.215  13.396 -0.3875  0.1475 -0.2283
 6473TIP3    H143614   4.000   6.157  13.445  0.0949  0.6191  0.9368
 6473TIP3    H243615   4.048   6.301  13.437 -0.0228  0.5770 -1.0010
 6474TIP3   OH243616   5.613   5.301  12.637 -0.0944  0.0573 -0.4531
 6474TIP3    H143617   5.605   5.351  12.718  0.5901 -0.1645 -0.2424
 6474TIP3    H243618   5.582   5.361  12.569 -1.6499 -0.1065  0.0665
 6475TIP3   OH243619   6.760   1.212  13.114 -0.3579 -0.1100 -0.0924
 6475TIP3    H143620   6.813   1.212  13.034 -1.4715 -0.1578 -0.8603
 6475TIP3    H243621   6.804   1.150  13.172  1.7063  1.5424  0.2073
 6476TIP3   OH243622   0.030   2.040  12.105 -0.1644 -0.5962 -0.8739
 6476TIP3    H143623   0.087   2.117  12.115 -0.9756  0.1404 -1.8051
 6476TIP3    H243624  -0.059   2.075  12.113 -0.6048 -1.1479 -2.9149
 6477TIP3   OH243625   0.273   6.826  13.698 -0.7185  0.0545 -0.0839
 6477TIP3    H143626   0.354   6.775  13.705 -2.0905 -2.3290 -0.3956
 6477TIP3    H243627   0.243   6.834  13.789  0.9829  3.0876  0.3458
 6478TIP3   OH243628   4.136   1.155  12.420  0.0595 -0.4880  0.4972
 6478TIP3    H143629   4.214   1.172  12.367 -1.0888  0.0761 -1.0982
 6478TIP3    H243630   4.130   1.060  12.424 -0.1655 -0.5600 -0.9726
 6479TIP3   OH243631   8.214   0.231  12.941  0.2092  0.3237 -0.2721
 6479TIP3    H143632   8.205   0.275  13.026  2.5654 -1.2209  0.8939
 6479TIP3    H243633   8.178   0.293  12.878  0.0717  2.3328  1.6503
 6480TIP3   OH243634   1.805   1.817  12.483  1.0253  0.4760  0.7312
 6480TIP3    H143635   1.749   1.794  12.409 -1.7299  0.9296  2.5308
 6480TIP3    H243636   1.846   1.734  12.509  1.3668  0.1609 -0.7063
 6481TIP3   OH243637   0.142   3.065  12.156  0.2960  0.0538 -0.3828
 6481TIP3    H143638   0.167   2.973  12.170  0.5147  0.3403  1.2213
 6481TIP3    H243639   0.225   3.110  12.139  0.3599  0.2098  0.3329
 6482TIP3   OH243640   8.422   5.376  12.168  0.1716  0.5517  0.0516
 6482TIP3    H143641   8.466   5.455  12.198 -2.4278  2.1697 -0.0976
 6482TIP3    H243642   8.337   5.377  12.214 -0.3192 -1.6489 -0.6863
 6483TIP3   OH243643   1.136   2.910  13.044  0.0439  0.0170 -0.2335
 6483TIP3    H143644   1.202   2.971  13.075 -0.0015  0.2200 -0.5313
 6483TIP3    H243645   1.053   2.942  13.081  0.3578 -1.4287  1.9012
 6484TIP3   OH243646   6.311   1.113  12.548  0.0101 -0.4170 -0.4286
 6484TIP3    H143647   6.303   1.206  12.525  0.3547 -0.4289 -0.5893
 6484TIP3    H243648   6.254   1.103  12.624  0.6966  0.1286  0.1712
 6485TIP3   OH243649   2.448   1.332  12.901 -0.1813  0.2164 -0.0484
 6485TIP3    H143650   2.486   1.331  12.813  0.0794  0.7970  0.0570
 6485TIP3    H243651   2.510   1.381  12.954 -0.0314 -0.6516  0.6064
 6486TIP3   OH243652   0.650   6.369  11.771  0.1980  0.1975  0.2455
 6486TIP3    H143653   0.713   6.440  11.754 -0.4541  0.2592 -2.3035
 6486TIP3    H243654   0.566   6.413  11.779 -0.1253 -0.1969 -0.7859
 6487TIP3   OH243655   0.632   5.486  12.353  0.8782  0.0725 -0.4893
 6487TIP3    H143656   0.685   5.441  12.419  1.5287 -0.2256 -1.1960
 6487TIP3    H243657   0.587   5.416  12.306  0.1056  0.3059 -0.1141
 6488TIP3   OH243658   0.581   7.702  12.528 -0.3726  0.3272 -0.1843
 6488TIP3    H143659   0.542   7.769  12.472  0.1830  0.5096 -0.3551
 6488TIP3    H243660   0.588   7.624  12.472 -0.0086  0.4482 -0.3055
 6489TIP3   OH243661   1.527   3.555  12.164  0.3670 -0.0511  0.4543
 6489TIP3    H143662   1.445   3.583  12.126  0.6376 -1.4013 -1.2404
 6489TIP3    H243663   1.592   3.619  12.134  0.3010 -0.2053 -0.0164
 6490TIP3   OH243664   2.910   0.826  12.476  0.5102 -0.0380 -0.1785
 6490TIP3    H143665   2.824   0.853  12.508  0.9777  0.8229  0.3851
 6490TIP3    H243666   2.893   0.748  12.423 -0.2236 -1.8909  2.6039
 6491TIP3   OH243667   4.703   7.428  12.302 -0.2638 -0.1644 -0.9379
 6491TIP3    H143668   4.797   7.411  12.297 -0.5202 -2.6077  0.7759
 6491TIP3    H243669   4.677   7.440  12.211  1.8271  1.7223 -1.3794
 6492TIP3   OH243670   5.111   5.409  12.441  0.1081 -0.2342 -0.1039
 6492TIP3    H143671   5.172   5.380  12.373  2.6889  1.4842  1.2706
 6492TIP3    H243672   5.144   5.369  12.521 -2.7705 -2.0798  0.2647
 6493TIP3   OH243673   6.496   4.028  13.278 -0.1117  0.2506  0.3636
 6493TIP3    H143674   6.515   4.093  13.210 -1.2288  1.3404  1.0604
 6493TIP3    H243675   6.419   3.980  13.245 -2.0638  2.2392  1.7429
 6494TIP3   OH243676   6.319   5.641  13.526  0.8038  0.4871  0.0352
 6494TIP3    H143677   6.269   5.722  13.520  1.2073  0.8381  1.0618
 6494TIP3    H243678   6.275   5.590  13.595  1.5936  0.6309  0.6691
 6495TIP3   OH243679   2.392   7.589  11.635  0.3896 -0.1945  0.2744
 6495TIP3    H143680   2.318   7.548  11.592 -0.2917  0.1608  1.0656
 6495TIP3    H243681   2.378   7.683  11.623 -0.2093 -0.0491  1.8412
 6496TIP3   OH243682   2.985   3.417  12.772  0.1599  0.3968  0.1631
 6496TIP3    H143683   3.005   3.430  12.679  0.5811  0.6802  0.2893
 6496TIP3    H243684   2.891   3.433  12.779 -0.0249 -0.3685 -0.3420
 6497TIP3   OH243685   3.426   5.488  12.337  0.4647  0.3392 -0.1128
 6497TIP3    H143686   3.403   5.554  12.273 -0.3746  1.7436  1.5437
 6497TIP3    H243687   3.481   5.535  12.401 -1.8133  0.0927  2.2134
 6498TIP3   OH243688   8.416   2.508  11.895 -0.7130  0.3685 -0.0193
 6498TIP3    H143689   8.381   2.597  11.896  2.0031  1.7694 -4.2278
 6498TIP3    H243690   8.346   2.456  11.855 -1.8168  0.8015  1.2618
 6499TIP3   OH243691   1.039   1.056  13.482  0.2610  0.5243  0.3417
 6499TIP3    H143692   1.085   1.140  13.477 -0.8504  1.1136 -0.6384
 6499TIP3    H243693   0.975   1.068  13.553 -0.2575  0.7111 -0.1479
 6500TIP3   OH243694   5.582   6.713  11.666  0.8609 -0.0554 -0.2181
 6500TIP3    H143695   5.549   6.801  11.646  1.8920  0.5226  0.5925
 6500TIP3    H243696   5.666   6.708  11.621  0.8743 -0.5758 -0.1380
 6501TIP3   OH243697   5.707   4.316  12.739 -0.3679 -0.1454  0.6264
 6501TIP3    H143698   5.635   4.356  12.691 -1.0828 -1.3800  0.6399
 6501TIP3    H243699   5.741   4.387  12.794  0.7857  1.4541 -1.9679
 6502TIP3   OH243700   3.944   2.427  11.786  0.6125 -0.3563 -0.1590
 6502TIP3    H143701   4.032   2.460  11.772  0.4105  0.0405 -0.5351
 6502TIP3    H243702   3.947   2.384  11.871  1.1858 -0.4153 -0.2055
 6503TIP3   OH243703   7.394   2.432  12.175 -0.0739 -0.1228 -0.5649
 6503TIP3    H143704   7.470   2.453  12.230 -1.9922  2.3237  1.3833
 6503TIP3    H243705   7.393   2.501  12.109 -0.7545  0.0282 -0.4000
 6504TIP3   OH243706   2.862   4.204  11.724  0.3166 -0.0643 -0.2582
 6504TIP3    H143707   2.820   4.119  11.712 -0.8686  0.4620  0.0166
 6504TIP3    H243708   2.795   4.268  11.698  0.7610  0.8153  0.6952
 6505TIP3   OH243709   0.478   2.420  12.109  0.0026  0.3272 -0.3930
 6505TIP3    H143710   0.561   2.389  12.144 -0.5183  0.4989  1.0736
 6505TIP3    H243711   0.491   2.514  12.096  0.1154  0.3057 -0.4345
 6506TIP3   OH243712   8.179   1.510  13.597 -0.3303 -0.2257  0.6405
 6506TIP3    H143713   8.105   1.561  13.564  0.7001  0.9525  0.0520
 6506TIP3    H243714   8.250   1.574  13.605  0.3650 -1.1234  2.1331
 6507TIP3   OH243715   3.182   5.153  11.987 -0.3989  0.2340  0.2064
 6507TIP3    H143716   3.207   5.243  12.009  0.1444  0.8278 -2.5149
 6507TIP3    H243717   3.096   5.162  11.945 -0.4497 -0.5445  0.1336
 6508TIP3   OH243718   4.797   4.812  12.647 -0.1945  0.3936 -0.1716
 6508TIP3    H143719   4.718   4.816  12.593 -0.7184 -0.7534  0.4774
 6508TIP3    H243720   4.838   4.729  12.624  0.6104  0.7878 -0.1899
 6509TIP3   OH243721   7.017   1.184  12.610  0.4632  0.6434  0.4043
 6509TIP3    H143722   6.950   1.228  12.557  1.1357  1.5093  0.2488
 6509TIP3    H243723   7.094   1.182  12.554  1.1328  1.4003  1.2718
 6510TIP3   OH243724   2.343   4.105  13.205  0.5062  0.4895  0.4235
 6510TIP3    H143725   2.335   4.133  13.114  1.1383  1.0956  0.5461
 6510TIP3    H243726   2.423   4.148  13.237 -0.3822  1.2988  1.6444
 6511TIP3   OH243727   3.322   4.355  11.773 -0.2451  0.0818  0.4251
 6511TIP3    H143728   3.400   4.312  11.736 -0.6384 -0.9538  0.7702
 6511TIP3    H243729   3.356   4.410  11.843  0.1800 -0.3961  0.6012
 6512TIP3   OH243730   5.445   5.587  13.143 -0.1732 -0.0586  0.3800
 6512TIP3    H143731   5.527   5.597  13.191  0.6332 -0.4460 -0.8750
 6512TIP3    H243732   5.468   5.534  13.067 -1.8421 -1.1877  0.6035
 6513TIP3   OH243733   2.016   6.439  13.033  0.0696 -0.1303  0.2129
 6513TIP3    H143734   2.076   6.456  13.105  0.9353  1.2265 -0.7765
 6513TIP3    H243735   1.929   6.452  13.071  0.4630 -0.3042  1.2115
 6514TIP3   OH243736   4.030   7.722  12.620  0.4228 -0.3261 -0.3165
 6514TIP3    H143737   3.981   7.776  12.558 -0.4763 -0.8415 -0.0572
 6514TIP3    H243738   4.029   7.634  12.582 -0.8458 -0.8268  0.8154
 6515TIP3   OH243739   7.430   3.897  11.891  0.0526  0.1373 -0.0333
 6515TIP3    H143740   7.387   3.957  11.831 -0.3887  1.6105  1.6891
 6515TIP3    H243741   7.485   3.842  11.835 -0.3006  1.4777 -1.7524
 6516TIP3   OH243742   5.174   5.688  12.545  0.6565  0.1158  0.0796
 6516TIP3    H143743   5.268   5.672  12.552  0.4209 -0.8960  1.2651
 6516TIP3    H243744   5.138   5.608  12.508  0.1783  0.1700  0.4098
 6517TIP3   OH243745   5.578   4.820  12.222 -0.2890  0.3153  0.2057
 6517TIP3    H143746   5.594   4.897  12.275  0.9403  1.4880 -1.7393
 6517TIP3    H243747   5.640   4.827  12.149 -0.5666 -2.1919 -0.3796
 6518TIP3   OH243748   4.952   3.803  13.082  0.6649 -0.0833  0.0225
 6518TIP3    H143749   4.867   3.846  13.094  1.3926  0.9312  1.9590
 6518TIP3    H243750   4.961   3.796  12.987 -1.5904 -0.2824 -0.2460
 6519TIP3   OH243751   7.882   6.311  13.411 -0.6730 -0.5428  0.7042
 6519TIP3    H143752   7.964   6.311  13.461 -0.8226  0.6066  0.9713
 6519TIP3    H243753   7.902   6.258  13.334  0.6204  0.4378  0.3235
 6520TIP3   OH243754   4.860   4.664  12.183 -0.3590  0.3404 -0.1464
 6520TIP3    H143755   4.948   4.700  12.194 -0.1538 -0.6117  1.7221
 6520TIP3    H243756   4.805   4.740  12.165  0.6853  1.0523 -0.4521
 6521TIP3   OH243757   7.693   8.158  13.399  0.0808 -0.7649 -0.6280
 6521TIP3    H143758   7.617   8.114  13.363 -0.6332 -0.7895  0.8324
 6521TIP3    H243759   7.732   8.094  13.459  0.7563 -0.4479 -0.7132
 6522TIP3   OH243760   5.458   7.160  11.817 -0.2770 -0.2891 -0.6373
 6522TIP3    H143761   5.387   7.218  11.845 -0.9242 -1.1943 -0.3380
 6522TIP3    H243762   5.434   7.074  11.853  0.3759 -0.8601 -1.5152
 6523TIP3   OH243763   1.784   4.012  13.557  0.5587 -0.4487 -0.2154
 6523TIP3    H143764   1.723   3.998  13.629 -1.3497  0.1420 -1.6469
 6523TIP3    H243765   1.830   3.929  13.549 -0.7616 -1.2586  0.2759
 6524TIP3   OH243766   0.407   5.944  13.056  0.2908 -0.1459 -0.1884
 6524TIP3    H143767   0.414   6.031  13.096 -1.6949  0.1772 -0.4374
 6524TIP3    H243768   0.346   5.897  13.112 -1.2734 -0.2284 -1.8490
 6525TIP3   OH243769   5.007   3.693  13.357 -0.3754  0.1774 -0.1496
 6525TIP3    H143770   4.955   3.716  13.281 -0.8463  0.1235  0.1506
 6525TIP3    H243771   4.968   3.743  13.429 -0.5148 -0.4788  0.2331
 6526TIP3   OH243772   2.068   3.794  11.935  0.3709 -0.5664  0.4296
 6526TIP3    H143773   1.993   3.840  11.897 -0.7855 -1.9148  0.9926
 6526TIP3    H243774   2.139   3.806  11.871 -0.7288 -0.4526 -0.8026
 6527TIP3   OH243775   7.372   5.351  12.532 -0.3732  0.1320 -0.1834
 6527TIP3    H143776   7.350   5.284  12.597  1.2733 -0.7357 -0.4698
 6527TIP3    H243777   7.340   5.315  12.449 -1.5781  0.7863 -0.0192
 6528TIP3   OH243778   7.047   6.987  12.384 -0.3456  0.1573 -0.4216
 6528TIP3    H143779   7.077   6.938  12.307  1.1662  1.7727 -0.9313
 6528TIP3    H243780   7.119   7.047  12.404 -0.7832 -0.0729  2.1717
 6529TIP3   OH243781   5.121   1.061  11.622  0.3657 -0.7494  0.0293
 6529TIP3    H143782   5.208   1.098  11.605 -0.5064  1.5135  0.1488
 6529TIP3    H243783   5.138   0.983  11.675  2.3335 -0.6688 -0.4069
 6530TIP3   OH243784   6.583   2.592  12.793 -0.1737  0.4962  0.1141
 6530TIP3    H143785   6.496   2.560  12.769 -0.3135  1.1954 -0.3413
 6530TIP3    H243786   6.569   2.684  12.815  0.0758  0.0650  2.2380
 6531TIP3   OH243787   4.100   6.612  12.674  0.0580 -0.0050  0.6128
 6531TIP3    H143788   4.157   6.539  12.650 -1.9591 -1.1649 -0.9603
 6531TIP3    H243789   4.085   6.659  12.592 -0.5033  0.8433  1.1867
 6532TIP3   OH243790   2.083   2.138  13.635  0.3432  0.3911  0.6528
 6532TIP3    H143791   2.051   2.213  13.584 -1.6316  0.5707  2.0863
 6532TIP3    H243792   2.005   2.088  13.656  1.7005 -3.0826 -1.6259
 6533TIP3   OH243793   2.210   4.554  12.753  0.3176  0.7479  0.0888
 6533TIP3    H143794   2.131   4.561  12.699  1.0724  1.4011 -0.9850
 6533TIP3    H243795   2.255   4.477  12.719 -0.0039  0.1910  0.9099
 6534TIP3   OH243796   7.624   6.285  13.509  0.7308  0.0585 -0.1121
 6534TIP3    H143797   7.702   6.321  13.467  0.8514  0.4235  0.4030
 6534TIP3    H243798   7.655   6.253  13.594  0.2889  0.3911  0.1813
 6535TIP3   OH243799   0.314   7.456  13.174 -0.6406  0.6902  0.1959
 6535TIP3    H143800   0.329   7.536  13.224  0.2775  1.2447 -0.9573
 6535TIP3    H243801   0.287   7.485  13.087 -1.6826 -0.2666  0.1678
 6536TIP3   OH243802   6.797   5.723  12.081 -0.5562 -0.3378 -0.6011
 6536TIP3    H143803   6.730   5.689  12.141  2.3364 -1.1435  2.5261
 6536TIP3    H243804   6.857   5.650  12.069  1.1754  1.0852 -1.0055
 6537TIP3   OH243805   0.074   7.393  13.591 -0.1954  0.8453 -0.2423
 6537TIP3    H143806   0.074   7.472  13.537 -0.7352  0.6039 -0.6039
 6537TIP3    H243807  -0.017   7.382  13.619 -0.0332  0.6325  0.2289
 6538TIP3   OH243808   0.578   6.440  12.847 -0.2142 -0.6090  0.6441
 6538TIP3    H143809   0.532   6.361  12.820 -1.4620 -0.0314  0.9876
 6538TIP3    H243810   0.660   6.409  12.886 -0.8521 -1.7446  1.1192
 6539TIP3   OH243811   4.901   0.861  13.575 -0.1874  0.4305 -0.6438
 6539TIP3    H143812   4.894   0.770  13.603 -0.2971  0.4075 -0.7446
 6539TIP3    H243813   4.991   0.870  13.544  0.3763  0.8304  1.0111
 6540TIP3   OH243814   7.593   4.875  12.811  0.0070  0.0632 -0.9494
 6540TIP3    H143815   7.599   4.818  12.887 -1.2410  3.5500  2.0612
 6540TIP3    H243816   7.500   4.887  12.796  0.2285  1.1185 -1.6338
 6541TIP3   OH243817   3.216   1.496  13.955 -0.7854  0.3238 -0.3933
 6541TIP3    H143818   3.191   1.404  13.960 -1.5155  0.5148 -0.5247
 6541TIP3    H243819   3.182   1.526  13.872 -0.8531  0.8084 -0.1935
 6542TIP3   OH243820   3.717   3.820  11.620  0.4917  0.3149  0.2224
 6542TIP3    H143821   3.696   3.913  11.613  0.1034  0.1346 -2.0931
 6542TIP3    H243822   3.648   3.777  11.570  1.0661 -1.1605  0.6533
 6543TIP3   OH243823   4.470   0.006  11.758 -0.6894  0.4840  0.4700
 6543TIP3    H143824   4.477  -0.078  11.714 -1.3791  0.2911  0.7113
 6543TIP3    H243825   4.513   0.068  11.699  1.1106 -0.2468  0.9533
 6544TIP3   OH243826   0.868   3.899  12.644  0.2167  0.4226 -0.2875
 6544TIP3    H143827   0.798   3.961  12.624 -0.7625 -0.5995 -0.0769
 6544TIP3    H243828   0.927   3.949  12.701 -0.9867  0.9184  0.5719
 6545TIP3   OH243829   0.136   8.090  12.874 -0.4200 -0.2721 -0.5123
 6545TIP3    H143830   0.042   8.110  12.877  0.0164  1.9771  1.2005
 6545TIP3    H243831   0.168   8.115  12.961  1.6342 -1.9678 -0.6871
 6546TIP3   OH243832   6.662   0.913  12.984 -0.1896 -0.7865 -0.0090
 6546TIP3    H143833   6.637   1.001  12.956 -0.2150 -0.7411  0.1566
 6546TIP3    H243834   6.645   0.858  12.907 -0.0926 -0.6338 -0.1419
 6547TIP3   OH243835   5.799   5.080  12.644 -0.2408 -0.3286  0.7746
 6547TIP3    H143836   5.807   5.065  12.738 -0.2322  0.8379  0.9694
 6547TIP3    H243837   5.746   5.159  12.636  2.7915  1.8091 -0.0514
 6548TIP3   OH243838   5.176   4.757  11.891 -0.0295 -0.0647  0.0631
 6548TIP3    H143839   5.173   4.676  11.941  1.3306 -0.7570 -0.9211
 6548TIP3    H243840   5.184   4.826  11.958 -0.8182 -0.7604  0.8864
 6549TIP3   OH243841   0.191   1.003  11.475  0.2501  0.5640 -0.0933
 6549TIP3    H143842   0.209   0.918  11.434 -0.0762  0.0834  0.7375
 6549TIP3    H243843   0.096   1.004  11.487  0.2223  1.1633 -0.3335
 6550TIP3   OH243844   0.766   5.211  13.098 -0.0794  0.0640 -0.1012
 6550TIP3    H143845   0.725   5.283  13.145  2.7661  2.4066 -0.8688
 6550TIP3    H243846   0.818   5.165  13.164  1.5449  1.5105 -0.2935
 6551TIP3   OH243847   4.311   4.937  12.784  0.0619  0.2730 -0.0782
 6551TIP3    H143848   4.246   4.980  12.839 -1.4858 -0.6802 -1.0896
 6551TIP3    H243849   4.393   4.983  12.803 -0.9812  1.7967  0.9134
 6552TIP3   OH243850   1.494   5.510  13.413 -0.1784 -0.7009  0.1743
 6552TIP3    H143851   1.401   5.512  13.389  0.0686 -0.3115 -0.7993
 6552TIP3    H243852   1.498   5.554  13.498 -0.8211 -0.2708 -0.0077
 6553TIP3   OH243853   5.930   7.986  13.668 -0.2317 -0.0999  0.2543
 6553TIP3    H143854   6.011   8.020  13.706  0.7995 -1.6901 -0.3974
 6553TIP3    H243855   5.861   8.037  13.709  0.9534 -0.1992  2.5353
 6554TIP3   OH243856   6.286   3.815  11.802  0.1881  0.5244 -0.5662
 6554TIP3    H143857   6.263   3.804  11.710 -0.7395  0.2786 -0.3158
 6554TIP3    H243858   6.333   3.735  11.826 -1.1604 -0.2362 -0.3635
 6555TIP3   OH243859   7.568   4.854  13.313 -0.2538  0.0048 -0.0884
 6555TIP3    H143860   7.504   4.806  13.366  1.1140 -0.7694  0.9470
 6555TIP3    H243861   7.633   4.884  13.377  1.6521 -1.2643 -1.3326
 6556TIP3   OH243862   0.425   2.586  13.012 -0.3877 -0.0685 -0.0381
 6556TIP3    H143863   0.441   2.511  13.070  1.9803 -2.0432 -2.9452
 6556TIP3    H243864   0.353   2.558  12.956 -1.9270  1.3978  1.0856
 6557TIP3   OH243865   1.911   7.185  12.396  0.2175  1.0791  0.4375
 6557TIP3    H143866   1.997   7.219  12.371  0.2384  0.9487  0.3318
 6557TIP3    H243867   1.926   7.093  12.414  0.2570  1.2238  1.2003
 6558TIP3   OH243868   3.214   5.333  13.231 -0.0629  0.3281  0.1294
 6558TIP3    H143869   3.222   5.253  13.180 -0.0767  0.1741  0.3662
 6558TIP3    H243870   3.301   5.372  13.229 -0.9364  2.5710 -3.6174
 6559TIP3   OH243871   8.222   4.103  11.798 -0.2642  0.2059 -0.1131
 6559TIP3    H143872   8.250   4.021  11.839 -2.2180 -0.5150 -0.0903
 6559TIP3    H243873   8.127   4.097  11.796 -0.5500  2.9461  0.8100
 6560TIP3   OH243874   4.311   7.465  13.242 -0.8705 -0.4710  0.2732
 6560TIP3    H143875   4.326   7.391  13.183 -0.5327 -1.9881  2.1566
 6560TIP3    H243876   4.260   7.428  13.315 -2.1557  1.5435  0.4983
 6561TIP3   OH243877   3.353   1.486  12.014  0.5493  0.6132  0.5300
 6561TIP3    H143878   3.287   1.430  11.973  0.2912  1.2540  0.0478
 6561TIP3    H243879   3.308   1.570  12.027  1.2382  1.0235  0.2961
 6562TIP3   OH243880   0.696   4.114  11.628  0.5312  0.3911 -0.3938
 6562TIP3    H143881   0.719   4.100  11.719  1.5666  1.2958 -0.4896
 6562TIP3    H243882   0.695   4.210  11.618 -2.5523  0.4569 -0.6169
 6563TIP3   OH243883   4.492   7.768  12.604 -0.7110 -0.0923  0.5120
 6563TIP3    H143884   4.549   7.789  12.678 -0.2197  0.9314 -0.1373
 6563TIP3    H243885   4.540   7.700  12.556 -0.3325  0.2847  0.3416
 6564TIP3   OH243886   0.064   6.699  12.837  0.0062 -0.2212 -0.0444
 6564TIP3    H143887   0.062   6.794  12.833  0.4400 -0.0407  2.3917
 6564TIP3    H243888   0.108   6.672  12.757  0.5177  1.6631 -0.4327
 6565TIP3   OH243889   7.707   1.033  12.801 -0.2481 -0.3887  0.1749
 6565TIP3    H143890   7.716   1.068  12.890 -1.1792 -2.9532  1.3691
 6565TIP3    H243891   7.671   1.106  12.751 -0.2492  0.9700  2.0370
 6566TIP3   OH243892   7.342   2.930  13.344  0.1005  0.5346 -0.7848
 6566TIP3    H143893   7.256   2.895  13.321 -0.0226 -0.1903  0.6835
 6566TIP3    H243894   7.322   3.006  13.399  0.3545 -0.2188  0.4018
 6567TIP3   OH243895   2.328   7.288  12.865  0.4484 -0.5160 -0.0862
 6567TIP3    H143896   2.404   7.346  12.871  0.5072 -0.5431 -0.5411
 6567TIP3    H243897   2.292   7.304  12.778  0.6005 -1.3327 -0.3095
 6568TIP3   OH243898   2.590   3.864  13.616  0.6010  0.2046 -0.1498
 6568TIP3    H143899   2.679   3.897  13.606  0.6660 -0.4293 -2.2458
 6568TIP3    H243900   2.536   3.924  13.566 -0.2420  0.7389  1.3288
 6569TIP3   OH243901   3.409   0.406  13.217  0.1638  0.0999  0.5148
 6569TIP3    H143902   3.386   0.383  13.127  1.4440 -0.9110  0.4083
 6569TIP3    H243903   3.325   0.412  13.262 -0.4754  0.0964 -0.6207
 6570TIP3   OH243904   3.393   6.058  12.099  0.3832  0.4582  0.6014
 6570TIP3    H143905   3.347   6.097  12.173 -2.0175 -1.0285 -0.0264
 6570TIP3    H243906   3.325   6.038  12.036  1.8794 -1.8904 -0.3871
 6571TIP3   OH243907   7.925   6.849  13.667 -0.7313  0.7035 -0.3126
 6571TIP3    H143908   7.850   6.795  13.644 -1.7247  1.3508  1.2583
 6571TIP3    H243909   7.896   6.939  13.651 -0.1924  0.9411  0.0126
 6572TIP3   OH243910   5.359   4.300  12.808  0.5076 -0.2035  0.3998
 6572TIP3    H143911   5.322   4.366  12.749  1.0256  0.6601  1.0083
 6572TIP3    H243912   5.416   4.351  12.867  0.5387 -1.1378  1.1907
 6573TIP3   OH243913   3.516   4.656  12.179  0.3643  0.2617  0.1438
 6573TIP3    H143914   3.594   4.614  12.145 -0.5555 -1.2230 -0.2205
 6573TIP3    H243915   3.496   4.611  12.260 -1.1681 -0.7355 -0.7190
 6574TIP3   OH243916   2.450   0.319  12.294 -0.3028 -0.0024 -0.0066
 6574TIP3    H143917   2.453   0.405  12.337 -0.4601 -0.3830  0.7687
 6574TIP3    H243918   2.441   0.340  12.201 -0.3600  0.8254  0.1763
 6575TIP3   OH243919   2.350   3.126  12.900  0.7219 -0.0857 -0.6512
 6575TIP3    H143920   2.352   3.087  12.987 -1.7432  0.5160 -0.2437
 6575TIP3    H243921   2.368   3.219  12.916  0.2416  0.0292 -0.7705
 6576TIP3   OH243922   0.376   8.316  11.295  0.4213 -0.1534 -0.0641
 6576TIP3    H143923   0.461   8.355  11.315  0.3613 -1.7835  4.3514
 6576TIP3    H243924   0.394   8.223  11.284 -0.6059 -0.2600 -1.0896
 6577TIP3   OH243925   5.260   2.358  11.813 -0.2853  0.4589  0.7288
 6577TIP3    H143926   5.173   2.320  11.804  0.7259 -1.6244 -1.8638
 6577TIP3    H243927   5.303   2.303  11.879 -0.0576 -0.4831 -0.1707
 6578TIP3   OH243928   6.960   5.234  12.143 -0.0585  0.1413 -0.1794
 6578TIP3    H143929   6.973   5.183  12.223 -0.3836 -0.1750 -0.3245
 6578TIP3    H243930   7.012   5.188  12.077  1.0048  0.9559  0.0575
 6579TIP3   OH243931   5.824   0.758  12.057 -0.0119  0.1716 -0.2351
 6579TIP3    H143932   5.743   0.729  12.016 -0.5253  0.0021  0.8765
 6579TIP3    H243933   5.818   0.854  12.055  0.6172  0.2101 -1.7930
 6580TIP3   OH243934   4.377   2.195  13.463  0.2731  0.1374  0.7149
 6580TIP3    H143935   4.365   2.117  13.517  0.1356  1.6108  2.9641
 6580TIP3    H243936   4.291   2.236  13.462 -0.3495 -0.9580 -2.6495
 6581TIP3   OH243937   0.657   0.680  11.493  0.0550  0.0906 -0.2506
 6581TIP3    H143938   0.670   0.734  11.415  2.7340 -0.4700 -0.3177
 6581TIP3    H243939   0.621   0.739  11.559  0.9417  1.4623 -0.9432
 6582TIP3   OH243940   7.277   0.812  11.594 -0.4165  0.6948  0.1663
 6582TIP3    H143941   7.292   0.742  11.530  0.0587  0.6537  0.3216
 6582TIP3    H243942   7.230   0.769  11.665 -0.3248  0.5833  0.1601
 6583TIP3   OH243943   2.087   0.071  12.074 -0.1594 -0.0971 -0.0135
 6583TIP3    H143944   2.019   0.005  12.064 -0.1210 -0.2044  0.4450
 6583TIP3    H243945   2.103   0.076  12.168  0.7467 -0.3523 -0.1430
 6584TIP3   OH243946   0.389   4.081  12.412  0.5351  0.0124  0.0938
 6584TIP3    H143947   0.305   4.121  12.433  0.7778 -0.5895  2.4495
 6584TIP3    H243948   0.368   4.014  12.347 -0.9573 -0.6797  1.2396
 6585TIP3   OH243949   1.250   7.373  12.709 -0.9066  0.0627 -0.0917
 6585TIP3    H143950   1.236   7.458  12.667 -0.6992  1.0184  1.6564
 6585TIP3    H243951   1.337   7.346  12.677 -0.1070  1.4551  0.7695
 6586TIP3   OH243952   6.113   8.314  12.551 -0.0170  0.0480  0.8276
 6586TIP3    H143953   6.117   8.405  12.522  0.8521 -0.0989  0.4639
 6586TIP3    H243954   6.101   8.263  12.471  0.4886 -0.2292  0.9257
 6587TIP3   OH243955   2.230   2.446  12.025 -0.0342  0.6179 -0.1866
 6587TIP3    H143956   2.175   2.373  11.997  1.9049 -0.2203 -2.1146
 6587TIP3    H243957   2.277   2.472  11.946  1.8228  1.7177  1.2088
 6588TIP3   OH243958   1.053   1.254  12.974  0.5012 -0.8718  0.1687
 6588TIP3    H143959   1.121   1.193  13.002 -1.1351 -2.5091  0.8591
 6588TIP3    H243960   1.037   1.231  12.882  0.9605 -0.3887 -0.0362
 6589TIP3   OH243961   7.136   5.748  12.798 -0.0807  0.3200  0.4016
 6589TIP3    H143962   7.116   5.727  12.707  0.0859 -0.5691  0.5644
 6589TIP3    H243963   7.200   5.682  12.824 -0.2617  0.4602  1.2176
 6590TIP3   OH243964   5.073   1.544  12.343 -0.3991  0.3430  0.8170
 6590TIP3    H143965   5.084   1.575  12.433  1.3313  0.8486  0.4701
 6590TIP3    H243966   5.042   1.621  12.295  3.1375  1.5110  0.1157
 6591TIP3   OH243967   5.358   7.984  12.123  0.1358 -0.1655 -0.0747
 6591TIP3    H143968   5.409   7.920  12.172 -0.9786 -0.3877  0.8253
 6591TIP3    H243969   5.389   7.976  12.033  1.4336 -0.5287  0.3802
 6592TIP3   OH243970   0.439   5.617  13.268 -0.3781  0.0484  0.0735
 6592TIP3    H143971   0.374   5.680  13.234 -1.8924 -0.8943  1.1021
 6592TIP3    H243972   0.430   5.622  13.363  1.9860  0.7816  0.3207
 6593TIP3   OH243973   6.072   4.714  14.150 -0.3876  0.1294 -0.2772
 6593TIP3    H143974   6.072   4.793  14.204 -1.9010 -0.3780  0.5366
 6593TIP3    H243975   6.053   4.745  14.062  0.9304  0.8567 -0.3195
 6594TIP3   OH243976   5.510   1.902  12.256 -0.1573  0.3668 -0.3935
 6594TIP3    H143977   5.494   1.906  12.350 -0.2621  1.7027 -0.4583
 6594TIP3    H243978   5.466   1.822  12.228 -2.4239  1.3258  0.2601
 6595TIP3   OH243979   6.583   6.150  13.086 -0.3463 -0.5438  0.0861
 6595TIP3    H143980   6.531   6.123  13.161  0.9286 -1.2611  0.7362
 6595TIP3    H243981   6.646   6.078  13.073  0.4632  0.2811 -0.6867
 6596TIP3   OH243982   0.472   2.077  11.652 -0.3796 -0.6013  0.5797
 6596TIP3    H143983   0.563   2.057  11.630 -0.2003 -0.2408  0.9755
 6596TIP3    H243984   0.421   2.006  11.613 -0.1625  0.4359 -1.7419
 6597TIP3   OH243985   6.491   2.333  13.510  0.1479  0.3166  0.2897
 6597TIP3    H143986   6.565   2.317  13.452  0.1414 -0.1198  0.4009
 6597TIP3    H243987   6.498   2.426  13.533  0.8319  0.2075  0.5374
 6598TIP3   OH243988   4.279   8.417  12.272 -0.0368 -0.0842  0.2051
 6598TIP3    H143989   4.269   8.505  12.236  1.1604 -0.0542 -0.0691
 6598TIP3    H243990   4.225   8.417  12.351  0.8721  1.2750  0.8540
 6599TIP3   OH243991   0.671   3.728  13.140 -0.0480 -0.6838  0.4272
 6599TIP3    H143992   0.656   3.679  13.059 -0.8559 -1.9209  1.3049
 6599TIP3    H243993   0.730   3.673  13.192  2.1553  1.0130 -0.0935
 6600TIP3   OH243994   4.335   7.497  12.514 -0.7875 -0.4740  0.0081
 6600TIP3    H143995   4.301   7.504  12.603 -0.3639  0.4249  0.1136
 6600TIP3    H243996   4.426   7.468  12.525 -1.6778 -3.8707 -0.3085
 6601TIP3   OH243997   0.350   2.114  13.301 -0.4470 -0.1936  0.2024
 6601TIP3    H143998   0.365   2.149  13.213  0.7588 -2.3642 -0.5335
 6601TIP3    H243999   0.256   2.096  13.304 -0.9130  2.0222  0.2459
 6602TIP3   OH244000   6.941   5.726  13.071  0.1067  0.4560  0.4421
 6602TIP3    H144001   7.015   5.675  13.104  0.0268  0.1255  0.1194
 6602TIP3    H244002   6.895   5.665  13.012  1.2827  1.5884 -1.7710
 6603TIP3   OH244003   7.796   7.324  11.585  0.6113  0.6237 -0.1318
 6603TIP3    H144004   7.874   7.373  11.558  0.8108  0.2545 -0.2407
 6603TIP3    H244005   7.722   7.379  11.557  0.8268  1.5550  1.0611
 6604TIP3   OH244006   3.307   5.483  11.566  0.0759 -0.5879 -0.4828
 6604TIP3    H144007   3.370   5.414  11.587 -1.0447 -0.9691  1.8458
 6604TIP3    H244008   3.224   5.438  11.555 -0.3900  0.2448 -0.4748
 6605TIP3   OH244009   1.236   2.907  12.377 -0.4345  0.0965 -0.4722
 6605TIP3    H144010   1.329   2.929  12.366 -0.2847  0.6497  1.5298
 6605TIP3    H244011   1.213   2.861  12.297  1.6110 -0.1575 -0.9739
 6606TIP3   OH244012   4.003   0.949  12.925 -0.5810 -0.1690 -0.1136
 6606TIP3    H144013   4.080   0.956  12.868  0.6405  1.1293  1.5796
 6606TIP3    H244014   3.961   0.867  12.899  0.6840 -0.2929 -1.9242
 6607TIP3   OH244015   4.624   4.177  12.294  0.1508 -0.5183 -0.2886
 6607TIP3    H144016   4.612   4.130  12.211  0.2696 -0.1579 -0.5128
 6607TIP3    H244017   4.711   4.216  12.287  0.4483 -1.0759  0.3047
 6608TIP3   OH244018   5.460   3.756  12.606  0.1691  0.1030  0.2885
 6608TIP3    H144019   5.535   3.813  12.624  0.3902  0.0726 -0.5138
 6608TIP3    H244020   5.404   3.765  12.684  0.8460  0.3717  0.7552
 6609TIP3   OH244021   3.044   7.382  11.857  0.2642 -0.0401 -0.1386
 6609TIP3    H144022   2.974   7.375  11.792  1.6969 -0.8740 -1.6783
 6609TIP3    H244023   3.003   7.424  11.933 -1.8268 -0.3384 -1.0502
 6610TIP3   OH244024   2.629   1.969  17.535 -0.2926  0.2526 -0.1016
 6610TIP3    H144025   2.567   2.023  17.486 -2.0492 -2.0859 -0.6504
 6610TIP3    H244026   2.668   2.029  17.599 -1.5289  2.3118 -1.1694
 6611TIP3   OH244027   7.021   8.271  11.807  0.0181 -0.3264  0.6861
 6611TIP3    H144028   7.076   8.198  11.782 -1.0467  0.0123 -3.2792
 6611TIP3    H244029   7.079   8.347  11.804  0.1306 -0.4306  0.1006
 6612TIP3   OH244030   3.829   4.782  13.464  0.1276  0.1765  0.3187
 6612TIP3    H144031   3.793   4.758  13.549  0.8191  0.5048  0.7113
 6612TIP3    H244032   3.827   4.701  13.413  0.4096 -0.1995  0.9015
 6613TIP3   OH244033   3.932   1.905  11.873 -0.3988 -0.3202  1.1176
 6613TIP3    H144034   3.956   1.850  11.799 -0.3914  0.0563  0.8399
 6613TIP3    H244035   3.888   1.846  11.934 -0.1124 -0.6978  0.9598
 6614TIP3   OH244036   4.904   2.530  12.410  0.4521 -0.1073 -0.3381
 6614TIP3    H144037   4.961   2.606  12.402  1.6918 -1.1268 -1.6463
 6614TIP3    H244038   4.831   2.548  12.351  0.9864 -0.1269 -1.0137
 6615TIP3   OH244039   4.858   5.099  12.751  0.1531  0.3473 -0.3876
 6615TIP3    H144040   4.840   5.068  12.839  0.2383  1.2013 -0.0628
 6615TIP3    H244041   4.918   5.034  12.714 -0.7667 -0.6227 -0.2269
 6616TIP3   OH244042   5.686   4.995  11.632 -0.1009 -0.5897 -0.6192
 6616TIP3    H144043   5.594   5.022  11.641  0.2908  0.6422 -0.1002
 6616TIP3    H244044   5.681   4.900  11.618 -1.5229 -0.3189 -2.3439
 6617TIP3   OH244045   6.722   8.142  11.963 -0.1546 -0.3564 -0.0400
 6617TIP3    H144046   6.656   8.080  11.930  0.4824 -0.7574 -0.5822
 6617TIP3    H244047   6.734   8.205  11.892 -1.4299  0.9276  0.8381
 6618TIP3   OH244048   0.395   3.368  13.593  0.2405 -0.5381  1.1822
 6618TIP3    H144049   0.483   3.371  13.631  1.1284 -0.5184 -0.7489
 6618TIP3    H244050   0.401   3.302  13.524 -0.9270  0.2795  0.2628
 6619TIP3   OH244051   5.111   2.972  13.423 -0.3457 -0.2772 -0.0802
 6619TIP3    H144052   5.133   2.930  13.507 -2.0062  2.3928  1.8400
 6619TIP3    H244053   5.038   2.921  13.389  1.1255 -2.1471 -0.6615
 6620TIP3   OH244054   5.158   0.770  13.582 -0.7512  0.3039 -0.0101
 6620TIP3    H144055   5.129   0.678  13.580  0.2003 -0.0560  1.0349
 6620TIP3    H244056   5.252   0.765  13.564 -0.7458  1.0998 -0.1957
 6621TIP3   OH244057   4.013   3.590  12.229  0.5160  0.2607 -0.0612
 6621TIP3    H144058   3.931   3.636  12.207 -0.2099 -0.7007  0.5447
 6621TIP3    H244059   4.079   3.660  12.232 -0.0330  0.8981 -1.7120
 6622TIP3   OH244060   7.178   6.241  11.482 -0.1045 -0.6434  0.3834
 6622TIP3    H144061   7.203   6.236  11.574 -1.3855 -1.3849  0.7162
 6622TIP3    H244062   7.247   6.294  11.442  0.1153  0.2701  1.8798
 6623TIP3   OH244063   4.311   4.433  12.120  0.7090  0.4190  0.1052
 6623TIP3    H144064   4.249   4.487  12.169  0.5123 -0.6135  1.0336
 6623TIP3    H244065   4.331   4.360  12.178  1.5469 -0.1242 -0.8230
 6624TIP3   OH244066   6.207   3.771  11.541  0.1957  0.0423  0.0566
 6624TIP3    H144067   6.231   3.680  11.522  0.3012  0.3863 -1.6438
 6624TIP3    H244068   6.164   3.801  11.461 -0.7386  1.1988  0.9593
 6625TIP3   OH244069   1.955   7.978  13.561 -0.5250  0.2574  0.7920
 6625TIP3    H144070   2.004   7.945  13.485 -1.0539  1.0489  0.0908
 6625TIP3    H244071   1.960   8.073  13.554  0.1984  0.3485  2.2835
 6626TIP3   OH244072   0.940   7.633  12.807 -0.0045  0.3491  0.4012
 6626TIP3    H144073   0.942   7.600  12.717 -0.7795  0.9207  0.1586
 6626TIP3    H244074   0.863   7.591  12.846  0.7375 -0.4591  1.0345
 6627TIP3   OH244075   7.943   2.488  13.620  0.4381 -0.2351  0.2543
 6627TIP3    H144076   7.881   2.516  13.688 -1.2309  1.3859 -1.7995
 6627TIP3    H244077   7.926   2.394  13.610 -0.3995 -0.1760  0.9873
 6628TIP3   OH244078   1.429   6.878  12.636 -0.0475 -0.3350  0.0302
 6628TIP3    H144079   1.362   6.944  12.656 -0.4080 -0.3402 -1.0890
 6628TIP3    H244080   1.398   6.837  12.555  1.1314 -0.5927 -0.2996
 6629TIP3   OH244081   6.520   3.930  12.615 -0.1735  0.0552 -0.2278
 6629TIP3    H144082   6.514   3.979  12.534 -1.7395 -1.1176 -0.8557
 6629TIP3    H244083   6.561   3.847  12.590  1.1705  0.4383  0.5734
 6630TIP3   OH244084   1.896   4.309  12.713  0.3332 -0.0665 -0.3771
 6630TIP3    H144085   1.841   4.351  12.647  1.0923  1.6680  0.0319
 6630TIP3    H244086   1.836   4.252  12.761 -1.0804  1.5404 -0.1287
 6631TIP3   OH244087   2.909   3.803  11.854  0.3326  0.3232 -0.1782
 6631TIP3    H144088   2.959   3.769  11.780 -1.3665  0.3461 -1.4035
 6631TIP3    H244089   2.858   3.876  11.817  0.2261  1.0129  1.2638
 6632TIP3   OH244090   1.643   2.001  12.234  0.1158 -0.5601 -0.3825
 6632TIP3    H144091   1.599   1.919  12.256 -1.2560 -0.1425 -1.4478
 6632TIP3    H244092   1.604   2.066  12.292  0.9480 -0.5714  0.2118
 6633TIP3   OH244093   5.188   5.840  12.123  0.1993  0.3388  0.7354
 6633TIP3    H144094   5.208   5.816  12.213  1.4749  2.0353  0.9699
 6633TIP3    H244095   5.255   5.795  12.071 -0.4194 -0.4865  0.6352
 6634TIP3   OH244096   3.592   3.375  14.109  0.4132  0.1586 -0.1010
 6634TIP3    H144097   3.632   3.455  14.076  0.9856  0.0100  0.2153
 6634TIP3    H244098   3.535   3.404  14.180  0.9506  0.2460  0.2999
 6635TIP3   OH244099   6.264   5.890  12.536  0.3375  0.1499  0.1496
 6635TIP3    H144100   6.209   5.822  12.496 -1.3831  0.9913  0.9769
 6635TIP3    H244101   6.346   5.886  12.488 -0.1097 -1.7920 -0.5273
 6636TIP3   OH244102   8.240   0.115  11.935 -0.4621 -0.5676 -0.0117
 6636TIP3    H144103   8.237   0.109  11.840 -0.8739 -1.0043  0.0279
 6636TIP3    H244104   8.158   0.157  11.959  0.8448  2.2381 -0.0361
 6637TIP3   OH244105   0.494   0.334  11.812  0.5879 -0.4204 -0.5432
 6637TIP3    H144106   0.419   0.391  11.793  1.1546  1.0708  1.4157
 6637TIP3    H244107   0.467   0.248  11.779 -1.4019  0.3827 -1.1685
 6638TIP3   OH244108   5.260   1.392  12.229 -0.4002  0.6537 -0.2380
 6638TIP3    H144109   5.333   1.400  12.291  1.2048  0.6463 -2.0115
 6638TIP3    H244110   5.191   1.446  12.265  0.7931  1.3159  1.1239
 6639TIP3   OH244111   1.466   0.515  13.508 -0.5652  0.1725  0.3795
 6639TIP3    H144112   1.466   0.420  13.497 -1.8071  0.0004  1.6507
 6639TIP3    H244113   1.377   0.542  13.487 -0.2646  1.0500  0.1929
 6640TIP3   OH244114   2.888   5.046  12.849  0.0106 -0.0014 -0.3821
 6640TIP3    H144115   2.810   5.020  12.801  0.2380  0.1525 -0.8410
 6640TIP3    H244116   2.950   5.073  12.781  1.7305 -3.3602 -0.3501
 6641TIP3   OH244117   4.649   1.085  11.965 -0.6732  0.2004  0.0450
 6641TIP3    H144118   4.689   1.068  12.050  1.8063 -1.6011 -1.3324
 6641TIP3    H244119   4.572   1.028  11.963 -0.7975  0.3142  1.0732
 6642TIP3   OH244120   5.541   2.303  11.582  0.0117  0.2701  0.4455
 6642TIP3    H144121   5.459   2.345  11.557 -0.2525 -0.8893 -0.6788
 6642TIP3    H244122   5.606   2.373  11.574 -0.6540  0.8737  0.1216
 6643TIP3   OH244123   7.792   7.339  12.668 -0.0249  0.4339 -0.2443
 6643TIP3    H144124   7.712   7.323  12.618  0.1527  2.2111 -1.1725
 6643TIP3    H244125   7.820   7.427  12.642  2.1861 -0.0876  0.1221
 6644TIP3   OH244126   6.035   8.387  11.599 -0.0860 -0.2400 -0.8017
 6644TIP3    H144127   6.028   8.350  11.688 -0.9346  0.8734 -0.3914
 6644TIP3    H244128   6.047   8.311  11.543  0.2686 -0.9856  0.2430
 6645TIP3   OH244129   8.409   6.430  12.489  0.2285 -0.7348 -0.4794
 6645TIP3    H144130   8.407   6.400  12.580  2.3360 -1.5854 -0.6611
 6645TIP3    H244131   8.324   6.471  12.476 -0.0816 -0.4584  1.9150
 6646TIP3   OH244132   4.550   0.988  11.588 -0.0367 -0.1388 -0.1125
 6646TIP3    H144133   4.545   0.939  11.506 -0.4127 -1.2730  0.5794
 6646TIP3    H244134   4.633   1.036  11.582  0.1066 -0.4700 -0.9920
 6647TIP3   OH244135   0.242   4.463  13.964  0.4908  0.5101 -0.4973
 6647TIP3    H144136   0.157   4.431  13.934 -0.0540  1.7222 -0.3304
 6647TIP3    H244137   0.251   4.549  13.921  1.5543  0.4731 -0.3727
 6648TIP3   OH244138   4.097   0.911  12.192 -0.8426 -0.0381  0.5303
 6648TIP3    H144139   4.026   0.874  12.140  1.2104 -2.5955 -0.7542
 6648TIP3    H244140   4.142   0.834  12.227  0.6740  1.5053  2.1278
 6649TIP3   OH244141   8.441   1.113  12.448 -0.3259 -0.1316 -0.8148
 6649TIP3    H144142   8.534   1.120  12.471 -0.5010 -1.0925  0.2928
 6649TIP3    H244143   8.406   1.201  12.461  0.6571  0.5520 -2.4437
 6650TIP3   OH244144   0.429   0.033  12.965 -0.2023 -0.3574  0.7396
 6650TIP3    H144145   0.346   0.080  12.958 -1.4991 -2.5696  0.3007
 6650TIP3    H244146   0.419  -0.042  12.907  2.2210 -0.5766  0.5132
 6651TIP3   OH244147   0.192   3.095  13.021 -0.6638 -0.8444 -1.2312
 6651TIP3    H144148   0.148   3.059  13.098  0.5483 -2.3214 -1.1910
 6651TIP3    H244149   0.134   3.075  12.948 -0.4319 -2.1038 -1.0825
 6652TIP3   OH244150   6.438   1.900  11.919 -0.2193 -0.0943 -0.6159
 6652TIP3    H144151   6.403   1.929  11.834  0.9505  0.1851 -1.0199
 6652TIP3    H244152   6.531   1.888  11.904  0.0558  0.1954  0.6991
 6653TIP3   OH244153   4.650   2.997  11.885  0.2947  0.5013 -0.1576
 6653TIP3    H144154   4.641   3.085  11.848  0.6507  0.1297 -1.1746
 6653TIP3    H244155   4.720   3.005  11.950  0.1628  1.0122 -0.0746
 6654TIP3   OH244156   3.191   0.903  12.220 -0.2767  0.0128  0.5055
 6654TIP3    H144157   3.266   0.962  12.214  0.6389 -1.2058 -3.3599
 6654TIP3    H244158   3.225   0.828  12.269  0.6690  0.0413 -0.0599
 6655TIP3   OH244159   4.973   4.457  13.075 -0.4262  0.2853 -0.2023
 6655TIP3    H144160   5.015   4.443  13.160  0.2512 -0.5983 -0.6553
 6655TIP3    H244161   5.012   4.539  13.043 -0.6892  0.6258  0.3349
 6656TIP3   OH244162   6.485   8.365  12.072 -0.3780 -0.5230 -0.2332
 6656TIP3    H144163   6.570   8.353  12.029  1.4336  0.0577  2.8923
 6656TIP3    H244164   6.490   8.452  12.111 -2.2925 -0.6113  0.2930
 6657TIP3   OH244165   1.126   4.096  12.294  0.2675  0.0594 -0.1633
 6657TIP3    H144166   1.195   4.130  12.239 -0.3843  2.7253  0.5173
 6657TIP3    H244167   1.152   4.120  12.383 -0.1906 -1.4104  0.3981
 6658TIP3   OH244168   5.439   5.676  12.641 -0.5777 -0.9792  0.5466
 6658TIP3    H144169   5.499   5.731  12.590 -2.1445 -0.0773 -0.4086
 6658TIP3    H244170   5.431   5.722  12.725 -0.2765 -0.8632  0.5147
 6659TIP3   OH244171   2.367   8.215  11.732 -0.4684  0.4683  0.0529
 6659TIP3    H144172   2.418   8.225  11.813  0.2390  0.8337 -0.4230
 6659TIP3    H244173   2.379   8.299  11.686 -1.1622  0.3987 -0.2594
 6660TIP3   OH244174   3.886   1.946  11.537  0.5194 -0.2703 -0.6744
 6660TIP3    H144175   3.863   1.862  11.497  0.0601 -0.7743  0.5811
 6660TIP3    H244176   3.972   1.931  11.575  0.4579 -0.1632 -0.4914
 6661TIP3   OH244177   8.007   8.285  11.572 -0.3368 -0.1744  0.1085
 6661TIP3    H144178   8.099   8.304  11.553 -0.2439  0.7443  1.3444
 6661TIP3    H244179   7.966   8.274  11.486  0.9747 -0.8815 -0.4543
 6662TIP3   OH244180   5.311   2.192  12.041 -0.0197  0.0918 -0.2747
 6662TIP3    H144181   5.262   2.235  12.111  2.3698  0.7140  1.1360
 6662TIP3    H244182   5.284   2.100  12.045 -2.1686  0.6607 -0.6126
 6663TIP3   OH244183   1.510   0.420  12.370 -0.2979 -0.3705  1.0034
 6663TIP3    H144184   1.554   0.443  12.451 -0.7098 -1.6613  1.6186
 6663TIP3    H244185   1.527   0.494  12.311  3.6556 -1.2557  0.7935
 6664TIP3   OH244186   7.165   1.487  11.827 -0.9151  0.0796 -0.9086
 6664TIP3    H144187   7.249   1.473  11.784 -0.7594  0.5945 -0.7791
 6664TIP3    H244188   7.139   1.401  11.860 -0.1920  0.0138 -0.5029
 6665TIP3   OH244189   3.633   1.362  13.326 -0.1348 -1.1686  0.6483
 6665TIP3    H144190   3.659   1.425  13.258  0.1723 -0.7042  1.1885
 6665TIP3    H244191   3.714   1.347  13.376 -1.1599  1.6802  3.4954
 6666TIP3   OH244192   0.728   2.307  13.727  0.1530  0.5177 -0.3414
 6666TIP3    H144193   0.696   2.236  13.671  4.1498 -1.9120  0.0671
 6666TIP3    H244194   0.759   2.263  13.806 -0.0508  3.1849  1.3373
 6667TIP3   OH244195   7.723   7.851  12.551  0.0861 -0.0538  0.7986
 6667TIP3    H144196   7.629   7.837  12.545  0.3794 -1.6039 -1.4252
 6667TIP3    H244197   7.737   7.886  12.639 -2.6321  1.0274  0.8931
 6668TIP3   OH244198   4.166   1.427  12.425 -0.1945  0.4911 -0.1517
 6668TIP3    H144199   4.148   1.333  12.430  1.2798  0.2354  1.5346
 6668TIP3    H244200   4.175   1.445  12.332 -0.5223 -1.0356 -0.5074
 6669TIP3   OH244201   5.049   2.211  11.847 -0.2581  0.2015 -0.5000
 6669TIP3    H144202   5.070   2.129  11.893 -0.0258  0.5799  0.0899
 6669TIP3    H244203   4.988   2.256  11.906  1.5290  1.5723  0.3926
 6670TIP3   OH244204   1.972   0.365  13.096 -0.2729 -0.2784  0.9759
 6670TIP3    H144205   1.911   0.365  13.022  1.2427  0.0177 -0.3406
 6670TIP3    H244206   2.003   0.274  13.102 -0.7287 -0.4021  1.5618
 6671TIP3   OH244207   0.217   4.086  12.785 -0.0588  0.0425 -0.5456
 6671TIP3    H144208   0.204   4.107  12.693  0.1027  2.0296 -0.1642
 6671TIP3    H244209   0.209   4.170  12.830 -2.1796 -1.1234  1.5061
 6672TIP3   OH244210   4.200   2.512  11.832 -0.3263 -0.4933 -0.0395
 6672TIP3    H144211   4.225   2.443  11.770  1.6222 -0.4133  0.5906
 6672TIP3    H244212   4.267   2.580  11.820 -1.7760  0.9722 -0.1132
 6673TIP3   OH244213   2.062   1.850  11.984  0.1383  0.5142 -0.4176
 6673TIP3    H144214   2.056   1.833  12.078  0.2976  2.3864 -0.0350
 6673TIP3    H244215   2.155   1.840  11.964  0.2361  0.9321 -0.1893
 6674TIP3   OH244216   3.503   1.611  12.844 -0.3569  0.3695  0.4896
 6674TIP3    H144217   3.470   1.546  12.783 -0.0248  0.0311  0.6687
 6674TIP3    H244218   3.551   1.561  12.910  0.4756  0.8509  0.2604
 6675TIP3   OH244219   3.788   4.713  11.894 -0.6811  0.1089  0.6291
 6675TIP3    H144220   3.825   4.780  11.951  0.8363 -0.9488  0.9793
 6675TIP3    H244221   3.758   4.760  11.817  0.6230  1.1791  0.7356
 6676TIP3   OH244222   5.196   1.834  12.995 -0.0032 -0.2003 -0.1171
 6676TIP3    H144223   5.272   1.843  12.937  2.0211  2.3059  2.6647
 6676TIP3    H244224   5.129   1.890  12.956  1.1756  1.1347 -0.2627
 6677TIP3   OH244225   5.793   5.553  12.807  0.3811  0.2609 -0.2449
 6677TIP3    H144226   5.812   5.589  12.720  0.9388 -0.7975 -0.5918
 6677TIP3    H244227   5.876   5.559  12.854 -0.0437  1.2751  0.3931
 6678TIP3   OH244228   5.753   5.003  13.446  0.1178  0.2604  0.1312
 6678TIP3    H144229   5.693   5.066  13.488 -0.5373  1.5096 -2.5020
 6678TIP3    H244230   5.706   4.919  13.451 -0.2019  0.4808  1.2739
 6679TIP3   OH244231   0.056   2.652  12.255  0.3333 -0.6501  0.4041
 6679TIP3    H144232  -0.011   2.679  12.318  1.0526  0.7085  0.6221
 6679TIP3    H244233   0.132   2.631  12.310  0.5532 -0.7294  0.0668
 6680TIP3   OH244234   7.430   1.015  13.737  0.0740  0.4436 -0.0005
 6680TIP3    H144235   7.442   1.108  13.717  1.6040  0.1155 -0.7819
 6680TIP3    H244236   7.518   0.984  13.761 -0.9533 -0.0958  3.5450
 6681TIP3   OH244237   5.366   2.609  13.308 -0.1661 -0.0718 -0.1571
 6681TIP3    H144238   5.454   2.647  13.308  0.3326 -1.1383 -1.5980
 6681TIP3    H244239   5.322   2.653  13.235 -0.3957 -0.4590 -0.2552
 6682TIP3   OH244240   6.875   1.771  13.126 -0.5006 -0.4090  0.1939
 6682TIP3    H144241   6.959   1.750  13.165 -0.7408 -0.6597  0.5797
 6682TIP3    H244242   6.819   1.696  13.146 -1.2325  0.3721  1.1772
 6683TIP3   OH244243   2.842   2.600  12.041  0.1855 -0.3645 -0.2930
 6683TIP3    H144244   2.820   2.533  11.977 -1.7885  0.0944 -0.1734
 6683TIP3    H244245   2.882   2.551  12.114 -0.4028 -1.2945 -0.5735
 6684TIP3   OH244246   8.376   4.845  11.818  0.0256 -0.0246 -0.1177
 6684TIP3    H144247   8.303   4.860  11.878 -0.3002  0.6239 -0.6640
 6684TIP3    H244248   8.361   4.757  11.784 -0.5156  0.1050 -0.2349
 6685TIP3   OH244249   5.561   1.833  11.983 -0.5355  0.7188  0.3961
 6685TIP3    H144250   5.496   1.901  12.001 -0.7900  0.1168  1.9187
 6685TIP3    H244251   5.525   1.754  12.024  0.0217 -0.2018 -0.8452
 6686TIP3   OH244252   5.353   3.714  13.333 -0.3899 -0.0805 -0.1594
 6686TIP3    H144253   5.280   3.687  13.390 -1.7658  0.6933 -1.4873
 6686TIP3    H244254   5.424   3.736  13.394 -2.5575  3.0685  1.5469
 6687TIP3   OH244255   6.405   3.226  12.543 -0.4200  0.5417  0.2328
 6687TIP3    H144256   6.434   3.286  12.612 -0.3909 -0.9568  1.5846
 6687TIP3    H244257   6.318   3.258  12.519 -0.8502  0.5511  1.6734
 6688TIP3   OH244258   7.173   6.124  12.158 -0.3886 -0.4755 -0.2794
 6688TIP3    H144259   7.121   6.114  12.078 -0.4301 -0.2076 -0.2863
 6688TIP3    H244260   7.263   6.105  12.131 -0.3134  0.2161 -0.5222
 6689TIP3   OH244261   8.353   4.319  11.916 -0.7400  0.2450 -0.1189
 6689TIP3    H144262   8.321   4.234  11.884 -0.1047 -0.1518  0.2833
 6689TIP3    H244263   8.273   4.370  11.930 -1.0453  0.6210 -2.7361
 6690TIP3   OH244264   2.713   7.724  13.379  0.0042  0.3954 -0.8238
 6690TIP3    H144265   2.721   7.780  13.302 -2.7469  3.5809  0.9318
 6690TIP3    H244266   2.668   7.645  13.347  1.2652  0.4277 -2.8506
 6691TIP3   OH244267   6.532   8.212  12.658  0.1629  0.0749 -0.8698
 6691TIP3    H144268   6.595   8.234  12.727 -0.8798 -1.0583  0.4823
 6691TIP3    H244269   6.549   8.276  12.589  3.1209 -0.4638 -0.7766
 6692TIP3   OH244270   0.847   2.499  12.718 -0.3864  0.2704 -0.0301
 6692TIP3    H144271   0.940   2.510  12.738 -0.3544  0.0469 -0.0500
 6692TIP3    H244272   0.834   2.547  12.636 -0.0986 -0.4078 -0.4831
 6693TIP3   OH244273   0.802   1.161  13.608  0.0359 -0.6808 -0.4077
 6693TIP3    H144274   0.796   1.157  13.704 -0.8595 -0.5901 -0.4542
 6693TIP3    H244275   0.820   1.253  13.589  1.0253 -0.8334 -0.3020
 6694TIP3   OH244276   0.148   1.136  12.904 -0.2625 -0.2914 -0.3373
 6694TIP3    H144277   0.057   1.109  12.910 -0.8481  1.4942 -0.4789
 6694TIP3    H244278   0.182   1.128  12.993 -1.4363  1.7492  0.3623
 6695TIP3   OH244279   0.822   4.657  13.016  0.2224  0.2935  0.2966
 6695TIP3    H144280   0.859   4.624  12.935  1.4977  0.6443  0.7140
 6695TIP3    H244281   0.819   4.752  13.004 -0.5122  0.2817  0.3002
 6696TIP3   OH244282   4.211   4.151  11.620  0.0076  0.0138  0.0281
 6696TIP3    H144283   4.222   4.064  11.583  0.2039 -1.0198  2.3226
 6696TIP3    H244284   4.292   4.167  11.668 -0.1151  1.3884 -0.1857
 6697TIP3   OH244285   4.097   5.208  12.216  0.0204 -0.1559  0.4419
 6697TIP3    H144286   4.018   5.226  12.266 -0.2774 -1.8706  0.6597
 6697TIP3    H244287   4.133   5.128  12.255  1.7343  0.4344  0.1771
 6698TIP3   OH244288   6.541   1.439  12.612  0.4551  0.1941 -0.1132
 6698TIP3    H144289   6.447   1.426  12.626  0.4702  0.2228  0.0219
 6698TIP3    H244290   6.554   1.424  12.519  0.2089  0.8493 -0.2558
 6699TIP3   OH244291   7.561   2.830  12.751  0.2357 -0.0414  0.1486
 6699TIP3    H144292   7.543   2.923  12.760  2.7637  0.4932  0.4604
 6699TIP3    H244293   7.534   2.809  12.661  0.1670  1.1128 -0.1139
 6700TIP3   OH244294   2.941   5.430  13.194  0.4126  0.3622  0.1305
 6700TIP3    H144295   2.850   5.448  13.170  0.9438  0.8373 -1.7192
 6700TIP3    H244296   2.976   5.381  13.120  1.5248 -0.3458  1.0819
 6701TIP3   OH244297   1.986   4.246  13.446 -0.2053 -0.4240  0.1319
 6701TIP3    H144298   1.950   4.317  13.500 -0.3950 -0.5670  0.1948
 6701TIP3    H244299   1.919   4.178  13.448 -0.4502 -0.2180 -0.7384
 6702TIP3   OH244300   7.877   1.241  12.359  0.1182 -0.5838 -0.5408
 6702TIP3    H144301   7.950   1.195  12.401 -0.2776 -0.5707  0.1789
 6702TIP3    H244302   7.827   1.173  12.315 -0.0966 -0.7597 -0.0329
 6703TIP3   OH244303   1.326   5.506  12.281 -0.0081 -0.4809  0.1465
 6703TIP3    H144304   1.343   5.439  12.347  0.3996  0.8231  1.4321
 6703TIP3    H244305   1.238   5.538  12.302  0.1227 -0.0660  0.0715
 6704TIP3   OH244306   6.542   7.648  13.637  0.2153 -0.3821 -0.0489
 6704TIP3    H144307   6.594   7.610  13.566  0.0356 -1.1734  0.2373
 6704TIP3    H244308   6.578   7.609  13.717 -0.3460 -0.3876  0.2061
 6705TIP3   OH244309   7.119   6.808  12.806  0.6598  0.9274 -0.1825
 6705TIP3    H144310   7.199   6.781  12.761  0.7194 -0.3028  0.6088
 6705TIP3    H244311   7.118   6.903  12.798  2.1156  0.9521 -0.3529
 6706TIP3   OH244312   0.946   6.372  12.402  0.1433 -0.2666 -0.1687
 6706TIP3    H144313   1.037   6.402  12.406  0.8911 -2.3548 -0.3372
 6706TIP3    H244314   0.910   6.416  12.325  0.5577  1.6360  0.6532
 6707TIP3   OH244315   3.653   7.957  11.883 -0.3871 -0.1390 -0.6999
 6707TIP3    H144316   3.619   7.974  11.971  0.2198 -0.9977 -0.2959
 6707TIP3    H244317   3.704   7.877  11.891 -1.4507 -1.0002 -2.1296
 6708TIP3   OH244318   3.901   0.531  13.538 -0.4316  0.1477  0.2709
 6708TIP3    H144319   3.846   0.455  13.559 -1.4759  0.1276 -2.1830
 6708TIP3    H244320   3.899   0.584  13.618 -1.0900 -1.5661  1.4608
 6709TIP3   OH244321   3.772   4.085  12.463  0.1365  0.3056  0.1258
 6709TIP3    H144322   3.834   4.138  12.415 -1.1092  0.9387 -0.8388
 6709TIP3    H244323   3.825   4.018  12.506  1.4765  0.9090 -0.5548
 6710TIP3   OH244324   2.282   0.484  11.813  0.0210  0.5479  0.1300
 6710TIP3    H144325   2.304   0.575  11.794 -0.5051  0.4050 -1.3213
 6710TIP3    H244326   2.196   0.489  11.855 -0.2748  0.6945 -0.4834
 6711TIP3   OH244327   3.017   1.204  11.600 -0.1601 -0.0738  0.7777
 6711TIP3    H144328   2.925   1.201  11.575 -0.2066  1.6876  0.6049
 6711TIP3    H244329   3.035   1.297  11.614  1.0297 -0.5636  2.9584
 6712TIP3   OH244330   4.024   6.458  12.203 -0.5252 -0.1964  0.0933
 6712TIP3    H144331   4.071   6.525  12.252 -0.6969  0.0244 -0.0397
 6712TIP3    H244332   3.941   6.500  12.179  0.1638  0.2374 -1.6699
 6713TIP3   OH244333   4.443   7.169  12.469  0.0261  0.2219  0.1941
 6713TIP3    H144334   4.410   7.159  12.380 -0.1528 -1.9110  0.4512
 6713TIP3    H244335   4.377   7.221  12.513  0.0019  1.1010 -0.8379
 6714TIP3   OH244336   5.313   0.001  12.638  0.0709  0.1879 -0.2701
 6714TIP3    H144337   5.380   0.048  12.589  0.8572 -0.0959  0.5034
 6714TIP3    H244338   5.305   0.050  12.720 -0.2771 -0.0926 -0.1366
 6715TIP3   OH244339   7.267   8.361  13.123  0.4010  0.1709  0.2882
 6715TIP3    H144340   7.351   8.394  13.154  0.0994  1.5449 -0.2777
 6715TIP3    H244341   7.216   8.440  13.103 -1.9485 -0.5346  2.8730
 6716TIP3   OH244342   8.047   5.387  13.040  0.5495  0.4764  0.0553
 6716TIP3    H144343   7.957   5.367  13.064  0.1167  1.3000 -0.8153
 6716TIP3    H244344   8.048   5.383  12.944  1.2590  1.1783  0.0229
 6717TIP3   OH244345   3.766   8.312  12.066  0.3519 -0.1263 -0.3400
 6717TIP3    H144346   3.758   8.406  12.049  0.9335  0.0675  0.3999
 6717TIP3    H244347   3.795   8.275  11.983  2.5205  0.6928 -0.0132
 6718TIP3   OH244348   8.215   4.543  13.048 -0.3886 -0.0613  0.1272
 6718TIP3    H144349   8.203   4.550  12.953  0.9699 -0.2865 -0.0795
 6718TIP3    H244350   8.187   4.454  13.070 -0.5436 -0.0654 -0.0825
 6719TIP3   OH244351   4.174   4.365  13.961 -0.0162 -0.2767 -0.3153
 6719TIP3    H144352   4.133   4.279  13.950  1.2397 -1.0018  0.4694
 6719TIP3    H244353   4.268   4.348  13.957  0.3301  0.6681  2.2817
 6720TIP3   OH244354   1.149   2.278  12.262  0.0827 -0.1916  0.3588
 6720TIP3    H144355   1.121   2.354  12.212  0.1812  0.0618  0.6905
 6720TIP3    H244356   1.168   2.212  12.195 -0.8773 -0.2328  0.1056
 6721TIP3   OH244357   6.892   1.178  12.846 -0.4464 -0.1689 -0.2923
 6721TIP3    H144358   6.946   1.226  12.784 -1.9787  1.2854 -0.5889
 6721TIP3    H244359   6.822   1.141  12.793 -0.6215 -0.6901  0.2872
 6722TIP3   OH244360   0.636   4.906  14.077  0.4162 -0.1342 -0.6330
 6722TIP3    H144361   0.572   4.834  14.074  0.5045 -0.2256 -0.3809
 6722TIP3    H244362   0.585   4.983  14.102  0.1933  0.0417 -1.6043
 6723TIP3   OH244363   6.848   7.210  12.123  0.4142 -0.0539  0.6644
 6723TIP3    H144364   6.863   7.128  12.169  0.0638 -0.6499 -0.2442
 6723TIP3    H244365   6.921   7.217  12.062 -1.1316 -1.3414 -1.5024
 6724TIP3   OH244366   0.595   2.953  12.153  0.1870 -0.0735 -0.3482
 6724TIP3    H144367   0.656   3.018  12.118 -0.4521  0.4257 -0.5656
 6724TIP3    H244368   0.517   2.961  12.097 -0.1205 -0.6259 -0.0118
 6725TIP3   OH244369   0.905   0.788  11.894 -0.2410 -0.0726  0.3952
 6725TIP3    H144370   0.898   0.708  11.843 -1.1811  0.6177 -0.6219
 6725TIP3    H244371   0.894   0.761  11.985 -2.4977 -0.8872 -0.0690
 6726TIP3   OH244372   3.103   0.986  13.481  0.2445 -0.0920 -0.0755
 6726TIP3    H144373   3.173   1.051  13.483  0.2658 -0.1318  0.5595
 6726TIP3    H244374   3.133   0.916  13.540 -0.3759 -0.0496  0.2995
 6727TIP3   OH244375   6.817   4.869  13.494  0.3636  0.2971 -0.2758
 6727TIP3    H144376   6.768   4.919  13.560  0.1111 -1.7287  1.1364
 6727TIP3    H244377   6.874   4.935  13.453 -0.3507  1.8617  1.0948
 6728TIP3   OH244378   7.078   0.270  14.052  0.1956 -0.3775  0.3396
 6728TIP3    H144379   7.115   0.215  14.121  0.4813  0.3788  0.7998
 6728TIP3    H244380   7.150   0.279  13.989  0.4749  0.2504  0.7362
 6729TIP3   OH244381   1.728   4.744  13.034  0.0276  0.0832  0.1791
 6729TIP3    H144382   1.760   4.772  13.119  0.0157 -0.2862  0.3040
 6729TIP3    H244383   1.763   4.656  13.022  0.0685  0.1520 -0.2173
 6730TIP3   OH244384   5.565   5.751  13.790  0.3624  0.1882  0.4595
 6730TIP3    H144385   5.569   5.843  13.815  1.1428 -0.0266  1.1589
 6730TIP3    H244386   5.471   5.730  13.793  0.1305  1.0613 -0.1379
 6731TIP3   OH244387   7.913   2.825  11.463  0.0247 -0.0332  0.0699
 6731TIP3    H144388   7.879   2.740  11.435  1.2576  0.2491 -2.6384
 6731TIP3    H244389   7.835   2.880  11.474 -0.6497 -0.7239 -1.0841
 6732TIP3   OH244390   0.637   7.523  12.046 -0.5161  0.4980  0.1667
 6732TIP3    H144391   0.643   7.494  12.137 -0.2482  0.1620  0.0418
 6732TIP3    H244392   0.562   7.583  12.045 -1.4753 -0.6576  0.3081
 6733TIP3   OH244393   0.285   7.483  12.504  0.6243  0.9597  0.0540
 6733TIP3    H144394   0.213   7.526  12.550  0.7514 -0.2196  1.4094
 6733TIP3    H244395   0.350   7.464  12.572  0.7164 -1.0611 -0.5440
 6734TIP3   OH244396   3.118   4.902  13.467 -0.1871  0.0587  0.0716
 6734TIP3    H144397   3.213   4.907  13.465  0.2416 -4.0661  1.3761
 6734TIP3    H244398   3.093   4.876  13.378 -0.0738  0.4443 -0.0777
 6735TIP3   OH244399   7.218   0.425  12.211  0.0499  0.4752 -0.2734
 6735TIP3    H144400   7.283   0.495  12.201  1.3906 -0.8524 -1.2823
 6735TIP3    H244401   7.259   0.348  12.171 -2.4744 -0.2342 -1.6868
 6736TIP3   OH244402   3.376   5.466  11.893 -0.0330 -0.0466 -0.2742
 6736TIP3    H144403   3.398   5.412  11.968  0.8154  0.2408 -0.3036
 6736TIP3    H244404   3.368   5.404  11.820  0.3834 -0.1955 -0.1965
 6737TIP3   OH244405   3.724   2.641  11.831 -0.7619 -0.8185  0.2171
 6737TIP3    H144406   3.768   2.564  11.794 -0.5230 -1.5323  1.9001
 6737TIP3    H244407   3.643   2.607  11.869 -1.1662 -0.0526  0.0700
 6738TIP3   OH244408   3.127   6.583  11.857 -0.3077  0.1178 -0.3618
 6738TIP3    H144409   3.177   6.572  11.938  1.6593 -0.5626 -1.5970
 6738TIP3    H244410   3.125   6.496  11.818 -5.0811 -0.6242  0.9274
 6739TIP3   OH244411   6.737   2.800  12.392 -0.0315 -0.1736  0.1511
 6739TIP3    H144412   6.737   2.710  12.424 -1.3979  0.1056  0.9992
 6739TIP3    H244413   6.657   2.838  12.427  0.5411  1.3929 -0.1598
 6740TIP3   OH244414   1.144   4.657  13.050 -0.1490  0.4139 -0.4369
 6740TIP3    H144415   1.232   4.667  13.084  0.6278  1.3594 -2.5168
 6740TIP3    H244416   1.145   4.572  13.005 -0.3297  0.3891 -0.3953
 6741TIP3   OH244417   2.863   4.983  13.116 -0.3860  0.2738  0.3260
 6741TIP3    H144418   2.871   5.015  13.026  1.3165 -2.2767 -0.5376
 6741TIP3    H244419   2.801   4.911  13.111  0.9131 -0.9353  0.8127
 6742TIP3   OH244420   5.638   5.922  12.021 -0.1556  0.7280 -0.6282
 6742TIP3    H144421   5.733   5.918  12.022 -0.1947 -0.3584  0.4168
 6742TIP3    H244422   5.611   5.841  11.978 -0.6348 -0.5926  2.0036
 6743TIP3   OH244423   7.565   5.679  12.914  0.3686 -0.4102  0.8778
 6743TIP3    H144424   7.552   5.649  12.824 -0.6449 -1.6672  1.4071
 6743TIP3    H244425   7.543   5.603  12.968  1.7040  0.0653  2.1811
 6744TIP3   OH244426   0.911   3.713  12.410  0.5162 -0.0535  0.3932
 6744TIP3    H144427   0.872   3.794  12.443 -1.0334 -0.6000 -0.0034
 6744TIP3    H244428   0.987   3.698  12.467  1.9281  2.5655 -0.6095
 6745TIP3   OH244429   2.273   6.813  12.337  0.0466  0.5809 -0.3776
 6745TIP3    H144430   2.246   6.722  12.324  1.3349  0.1928 -0.4622
 6745TIP3    H244431   2.222   6.842  12.413  0.3774 -0.5454  0.3046
 6746TIP3   OH244432   5.730   0.722  13.513  0.2030 -0.1428 -0.2874
 6746TIP3    H144433   5.822   0.700  13.503  0.2305 -0.4344  0.5326
 6746TIP3    H244434   5.728   0.818  13.513  0.3665 -0.1245 -1.4162
 6747TIP3   OH244435   5.919   1.259  12.695  0.8276  0.0065  0.5569
 6747TIP3    H144436   5.834   1.223  12.670  1.9544 -3.3051  1.0095
 6747TIP3    H244437   5.955   1.293  12.613  0.8427 -2.6863 -0.6676
 6748TIP3   OH244438   1.317   6.854  13.486  0.7466 -0.1137  0.3607
 6748TIP3    H144439   1.384   6.788  13.471  0.9721  0.2274 -0.1817
 6748TIP3    H244440   1.364   6.937  13.480  0.6522  0.0811  1.9781
 6749TIP3   OH244441   5.588   1.676  11.717 -0.2559 -0.5852  0.3631
 6749TIP3    H144442   5.635   1.731  11.779  1.5161 -2.5250  0.8505
 6749TIP3    H244443   5.585   1.727  11.636  1.2280  0.2663  0.8276
 6750TIP3   OH244444   4.431   4.852  13.308  0.2185  0.1747 -0.1630
 6750TIP3    H144445   4.366   4.822  13.372 -1.4772  0.5356 -1.6166
 6750TIP3    H244446   4.406   4.943  13.291  0.7702  0.1449 -1.1703
 6751TIP3   OH244447   8.349   0.738  11.380  0.1956 -0.9003 -0.2569
 6751TIP3    H144448   8.440   0.763  11.364 -0.2017  1.0489  0.2722
 6751TIP3    H244449   8.354   0.653  11.423  1.6715 -1.6384 -1.7652
 6752TIP3   OH244450   0.328   5.179  13.851 -0.5281  0.2659 -0.2913
 6752TIP3    H144451   0.296   5.264  13.822  0.0223  0.2309 -1.0329
 6752TIP3    H244452   0.408   5.165  13.800  0.9824  0.5790  1.8825
 6753TIP3   OH244453   2.121   6.029  13.590 -0.0205 -0.0563  0.1166
 6753TIP3    H144454   2.026   6.023  13.598  0.1351 -2.3196  0.7123
 6753TIP3    H244455   2.140   6.122  13.608 -1.9419  0.0670  1.8821
 6754TIP3   OH244456   5.572   4.772  12.581  0.2201  0.0009 -0.4158
 6754TIP3    H144457   5.625   4.743  12.507  1.0525  2.3128 -0.8076
 6754TIP3    H244458   5.487   4.795  12.543  1.0270  2.3817 -0.9993
 6755TIP3   OH244459   5.207   1.531  13.901  0.6182 -0.1026  0.1835
 6755TIP3    H144460   5.231   1.589  13.829  0.0430  0.0018  0.0714
 6755TIP3    H244461   5.154   1.585  13.960 -1.2951 -0.8845 -0.7138
 6756TIP3   OH244462   7.063   6.861  13.803 -0.0521 -0.1649 -0.2092
 6756TIP3    H144463   7.063   6.769  13.777  1.4937 -0.7523  1.6855
 6756TIP3    H244464   7.126   6.902  13.745 -2.3632  0.2914 -2.6231
 6757TIP3   OH244465   7.888   7.552  12.018  0.2871 -0.1250 -0.5560
 6757TIP3    H144466   7.856   7.463  12.001 -1.4841  0.2949  0.2979
 6757TIP3    H244467   7.865   7.568  12.109 -0.4101  1.5837 -0.9939
 6758TIP3   OH244468   8.243   1.261  12.086 -0.4420  0.0578  0.1897
 6758TIP3    H144469   8.229   1.303  12.001 -1.8267 -1.5327 -0.4247
 6758TIP3    H244470   8.331   1.288  12.112  0.6660 -0.6265 -2.4981
 6759TIP3   OH244471   7.210   6.206  11.755  0.1034  0.4985  0.3587
 6759TIP3    H144472   7.292   6.237  11.793  0.1613  0.3099  0.3890
 6759TIP3    H244473   7.196   6.120  11.795 -0.2168  0.6181  0.5132
 6760TIP3   OH244474   1.153   4.145  12.549 -0.6894 -0.0539 -0.8352
 6760TIP3    H144475   1.141   4.158  12.643  1.6696  0.5439 -0.5509
 6760TIP3    H244476   1.119   4.057  12.533 -2.4101  0.3533  0.2744
 6761TIP3   OH244477   2.016   5.823  11.670 -0.1273  0.2729  0.8987
 6761TIP3    H144478   1.960   5.893  11.636  0.5715 -0.6676 -2.6600
 6761TIP3    H244479   1.955   5.755  11.699 -0.8475  0.6738  0.3650
 6762TIP3   OH244480   1.055   4.188  13.029  0.4340 -0.2731 -0.1379
 6762TIP3    H144481   1.000   4.136  13.087 -0.3136  1.7439  1.0883
 6762TIP3    H244482   0.994   4.222  12.962  0.8331 -0.6504 -0.7009
 6763TIP3   OH244483   8.303   3.288  12.980  0.0552  0.2809  0.2921
 6763TIP3    H144484   8.311   3.278  12.885  2.0245 -0.4140  0.4861
 6763TIP3    H244485   8.274   3.378  12.992 -1.6412 -0.0259 -0.9838
 6764TIP3   OH244486   0.379   5.205  12.937 -0.0326  0.0383  0.3113
 6764TIP3    H144487   0.395   5.178  13.028  0.8242 -0.6137 -0.0221
 6764TIP3    H244488   0.294   5.249  12.940  0.4193  0.8720  1.6065
 6765TIP3   OH244489   8.439   6.191  13.556 -0.0014 -0.7123  0.0705
 6765TIP3    H144490   8.520   6.156  13.518  0.6358  0.7611  0.0054
 6765TIP3    H244491   8.460   6.204  13.649 -0.4953 -1.2385  0.2612
 6766TIP3   OH244492   7.242   8.437  11.848  0.6148 -0.1960  0.4813
 6766TIP3    H144493   7.286   8.408  11.928  1.2943  2.6793  1.2779
 6766TIP3    H244494   7.312   8.453  11.786  0.2174 -0.8271 -0.1423
 6767TIP3   OH244495   2.237   0.879  12.393  0.1968 -0.5967  0.1651
 6767TIP3    H144496   2.247   0.974  12.380  2.7028 -0.5910  1.5646
 6767TIP3    H244497   2.249   0.866  12.487 -0.9726 -2.2517  0.1215
 6768TIP3   OH244498   1.436   2.317  13.688 -0.1153 -0.1088 -0.2170
 6768TIP3    H144499   1.430   2.406  13.654  1.0930  0.7034  1.5123
 6768TIP3    H244500   1.508   2.277  13.640 -1.0290 -0.3951 -1.4050
 6769TIP3   OH244501   2.564   2.277  12.760  0.3059  0.1042 -0.1834
 6769TIP3    H144502   2.623   2.242  12.828 -0.5346  0.2506  0.6391
 6769TIP3    H244503   2.561   2.208  12.694  0.0976 -0.6166  0.5593
 6770TIP3   OH244504   5.425   1.134  13.710 -0.0380  0.0401 -0.2260
 6770TIP3    H144505   5.465   1.216  13.682 -1.2312  1.2807  1.5096
 6770TIP3    H244506   5.442   1.129  13.804 -0.5090 -1.4164 -0.1829
 6771TIP3   OH244507   1.054   2.463  13.361 -0.1886  0.2689 -0.4047
 6771TIP3    H144508   1.086   2.377  13.388 -1.4374  0.3395  1.4872
 6771TIP3    H244509   0.965   2.468  13.396  0.0250  2.5035 -0.0321
 6772TIP3   OH244510   1.362   8.361  12.263  0.6171 -0.0950  0.3742
 6772TIP3    H144511   1.312   8.314  12.195 -1.3124 -1.2328  2.4477
 6772TIP3    H244512   1.381   8.446  12.223 -0.2747 -0.7666 -1.6484
 6773TIP3   OH244513   7.815   3.177  12.988 -0.4142  0.0704  0.2783
 6773TIP3    H144514   7.784   3.185  13.079 -0.8808  0.8571  0.0537
 6773TIP3    H244515   7.870   3.099  12.989 -1.2366 -0.5238  1.0173
 6774TIP3   OH244516   8.123   7.727  12.235  0.4949 -0.9511  0.5668
 6774TIP3    H144517   8.121   7.642  12.190  0.3230 -0.4427 -0.4213
 6774TIP3    H244518   8.119   7.705  12.328 -2.1982 -1.9645  0.3051
 6775TIP3   OH244519   0.850   1.389  13.133  0.0725 -0.0424  0.1521
 6775TIP3    H144520   0.900   1.420  13.208  1.5469 -0.2288 -0.7110
 6775TIP3    H244521   0.911   1.332  13.086 -1.6143 -1.9086  0.1202
 6776TIP3   OH244522   5.891   5.740  13.526  0.8716 -0.1395 -0.9134
 6776TIP3    H144523   5.849   5.789  13.455  0.3129  1.1977  0.2837
 6776TIP3    H244524   5.985   5.754  13.512  0.9335 -1.7627 -2.6359
 6777TIP3   OH244525   7.023   7.583  12.777  0.7393 -0.8768 -0.4434
 6777TIP3    H144526   7.016   7.569  12.871  0.8015  1.2428 -0.0788
 6777TIP3    H244527   6.960   7.521  12.739 -0.7526 -0.4203  1.1326
 6778TIP3   OH244528   5.907   1.142  12.199  0.3273 -0.7914 -0.3850
 6778TIP3    H144529   5.935   1.226  12.163  0.7507 -0.8716 -0.2462
 6778TIP3    H244530   5.845   1.107  12.134 -0.0866 -0.2330 -0.2943
 6779TIP3   OH244531   0.734   1.463  13.767 -0.2538  0.0375 -0.1805
 6779TIP3    H144532   0.805   1.451  13.704  0.0743 -2.2838  0.5297
 6779TIP3    H244533   0.764   1.534  13.824  1.1773 -0.4027 -0.3430
 6780TIP3   OH244534   2.773   3.575  12.010 -0.0818 -0.5292  0.2561
 6780TIP3    H144535   2.760   3.659  11.966 -1.0956 -0.0118  1.4781
 6780TIP3    H244536   2.741   3.589  12.099  0.3362 -2.0303  0.6787
 6781TIP3   OH244537   3.586   7.629  12.644 -0.3886 -0.4442  0.1302
 6781TIP3    H144538   3.638   7.705  12.671  0.6088 -1.5460  1.3780
 6781TIP3    H244539   3.612   7.559  12.703 -2.3750 -1.3946 -0.0413
 6782TIP3   OH244540   6.504   4.852  12.057  0.4172  0.2389 -0.2540
 6782TIP3    H144541   6.419   4.810  12.050  0.5865 -0.6265  2.1170
 6782TIP3    H244542   6.561   4.787  12.098  2.0674  1.0367 -1.1383
 6783TIP3   OH244543   1.960   2.753  13.577  0.1618  0.1083 -0.2143
 6783TIP3    H144544   2.034   2.733  13.521  1.2901 -0.2591  1.3555
 6783TIP3    H244545   1.965   2.848  13.589 -0.9234  0.4120 -1.8129
 6784TIP3   OH244546   5.272   5.512  12.845  0.4399 -0.3248 -0.8227
 6784TIP3    H144547   5.355   5.465  12.855  1.1024  1.1149  1.1044
 6784TIP3    H244548   5.291   5.601  12.877 -1.3097  0.6559 -2.3329
 6785TIP3   OH244549   5.851   8.243  12.437 -0.6307 -0.3704 -0.4133
 6785TIP3    H144550   5.866   8.201  12.521 -0.1842 -0.9898 -0.7987
 6785TIP3    H244551   5.757   8.235  12.423 -0.7238 -0.1684  0.0739
 6786TIP3   OH244552   1.764   2.808  12.857  0.3016  0.3167 -0.5363
 6786TIP3    H144553   1.850   2.817  12.817  0.6482 -0.2627  0.0521
 6786TIP3    H244554   1.724   2.733  12.813  0.1739  0.4561 -0.6629
 6787TIP3   OH244555   8.020   2.000  12.940  0.2593 -0.3260  0.5883
 6787TIP3    H144556   8.078   2.035  12.872 -1.3209 -1.2179 -1.3067
 6787TIP3    H244557   8.057   1.914  12.961  0.1692 -0.4944  0.0750
 6788TIP3   OH244558   7.861   1.529  13.407  0.5330  0.1609 -0.4243
 6788TIP3    H144559   7.815   1.579  13.340  0.6507  1.0810  0.1619
 6788TIP3    H244560   7.862   1.439  13.374  2.8198  0.9742 -2.9154
 6789TIP3   OH244561   7.963   0.884  12.943  0.7830 -0.2787 -0.0941
 6789TIP3    H144562   7.915   0.958  12.981 -0.2411 -0.9197 -0.1064
 6789TIP3    H244563   8.048   0.886  12.986  0.5981  0.6201  0.2580
 6790TIP3   OH244564   5.593   0.162  12.249 -0.1252 -0.5978  0.4132
 6790TIP3    H144565   5.635   0.083  12.215 -1.4442 -0.7627 -0.9239
 6790TIP3    H244566   5.645   0.234  12.214  0.7673 -0.8271  1.2053
 6791TIP3   OH244567   1.036   5.620  13.073  0.0144 -0.4932 -0.1229
 6791TIP3    H144568   1.044   5.612  13.168  0.5895 -2.6715 -0.3010
 6791TIP3    H244569   1.121   5.592  13.039 -0.2309  0.1067 -1.2950
 6792TIP3   OH244570   6.771   7.371  13.520  0.2419 -0.5491 -0.0176
 6792TIP3    H144571   6.728   7.306  13.464 -0.3348 -1.1709  1.1240
 6792TIP3    H244572   6.758   7.338  13.609 -2.0144  2.2105  0.8047
 6793TIP3   OH244573   7.188   2.078  11.878 -0.4791 -0.5232 -0.6368
 6793TIP3    H144574   7.117   2.015  11.891 -1.0107  0.1103 -0.4286
 6793TIP3    H244575   7.157   2.158  11.918  1.5906 -1.0258  2.2895
 6794TIP3   OH244576   4.129   4.942  12.333 -0.2432  0.1602 -0.3780
 6794TIP3    H144577   4.196   4.873  12.336  0.6133  0.9550 -0.7668
 6794TIP3    H244578   4.103   4.953  12.425  1.4304  1.0377  0.0274
 6795TIP3   OH244579   3.746   6.454  12.080  0.3092 -0.2727  0.1603
 6795TIP3    H144580   3.780   6.474  11.992  0.2388 -0.0345  0.1887
 6795TIP3    H244581   3.652   6.466  12.073  0.0480 -2.1353 -0.2596
 6796TIP3   OH244582   6.146   0.138  12.573  0.7493 -0.2107 -0.2176
 6796TIP3    H144583   6.095   0.219  12.571 -0.0515 -0.6524  0.9422
 6796TIP3    H244584   6.214   0.153  12.638  0.7523 -0.3828 -0.1799
 6797TIP3   OH244585   3.201   6.481  12.536  0.3955  0.0539  0.0442
 6797TIP3    H144586   3.264   6.495  12.466  0.1816 -1.0569 -0.3817
 6797TIP3    H244587   3.247   6.427  12.600  1.2910  2.7038  1.7819
 6798TIP3   OH244588   5.413   3.145  11.705  0.0266 -0.1794  0.2191
 6798TIP3    H144589   5.495   3.156  11.657 -1.5248 -0.1517 -2.5728
 6798TIP3    H244590   5.395   3.051  11.702  0.8412 -0.4952  2.5604
 6799TIP3   OH244591   3.992   2.822  13.124 -0.1338  0.1214 -0.2444
 6799TIP3    H144592   4.018   2.888  13.188 -2.6850  2.3993 -1.3563
 6799TIP3    H244593   4.049   2.837  13.049  1.4078 -1.1240  0.6236
 6800TIP3   OH244594   3.397   7.599  13.252 -0.2790 -0.1380 -0.0738
 6800TIP3    H144595   3.412   7.512  13.290  0.8291  0.1805  0.2259
 6800TIP3    H244596   3.320   7.586  13.196 -0.3914 -1.2120  0.2925
 6801TIP3   OH244597   2.993   3.800  13.486  0.2189  0.1558 -0.9410
 6801TIP3    H144598   2.947   3.724  13.522  1.6169  0.3847  1.5191
 6801TIP3    H244599   2.923   3.860  13.461 -0.8774 -0.5016  0.4026
 6802TIP3   OH244600   5.459   6.297  12.912  0.3411  0.6444  0.2755
 6802TIP3    H144601   5.376   6.274  12.955  1.3860 -0.2553  1.9466
 6802TIP3    H244602   5.434   6.322  12.823 -1.7661  0.9036  0.8749
 6803TIP3   OH244603   2.886   2.330  13.160 -0.4059 -0.0146  0.5058
 6803TIP3    H144604   2.958   2.348  13.100 -0.0658 -1.1691  0.5591
 6803TIP3    H244605   2.823   2.401  13.143  1.1165  1.5579  1.1179
 6804TIP3   OH244606   0.114   4.827  13.312  0.2875 -0.4505  0.6953
 6804TIP3    H144607   0.147   4.758  13.255 -2.3300 -1.5072  0.3076
 6804TIP3    H244608   0.129   4.794  13.400  2.6026  0.3328  0.6674
 6805TIP3   OH244609   6.606   1.750  13.210  0.1121 -0.5772  0.1546
 6805TIP3    H144610   6.581   1.804  13.134 -1.4824  0.8908  1.6434
 6805TIP3    H244611   6.563   1.666  13.194  2.1702 -1.3335 -1.9246
 6806TIP3   OH244612   7.340   1.764  13.269  0.3770  0.1283  0.1212
 6806TIP3    H144613   7.256   1.733  13.302  0.0514  1.7628  0.9223
 6806TIP3    H244614   7.325   1.855  13.246  1.4503 -0.0628 -1.5738
 6807TIP3   OH244615   8.000   2.094  11.984 -0.1034  1.0392  0.2357
 6807TIP3    H144616   7.985   2.119  11.893 -0.2208  1.9369  0.4916
 6807TIP3    H244617   8.075   2.146  12.012  0.4204  0.2049  0.4378
 6808TIP3   OH244618   1.842   7.518  12.192 -0.2758 -0.2296  0.0105
 6808TIP3    H144619   1.856   7.609  12.168  2.1153 -0.9446 -1.7321
 6808TIP3    H244620   1.816   7.521  12.284  0.2894  2.1618  0.1541
 6809TIP3   OH244621   7.195   2.871  12.469 -0.3464 -0.4098 -0.3990
 6809TIP3    H144622   7.106   2.899  12.446 -0.2658  0.1243 -0.0838
 6809TIP3    H244623   7.197   2.875  12.564 -0.0816 -0.7410 -0.3896
 6810TIP3   OH244624   3.779   1.947  13.345  0.4817  0.0607 -0.3313
 6810TIP3    H144625   3.712   1.956  13.278  1.1205  1.6358 -0.7960
 6810TIP3    H244626   3.812   2.036  13.359  0.9198 -0.3445  1.4987
 6811TIP3   OH244627   3.039   4.573  13.099 -0.4191  0.5849  0.0152
 6811TIP3    H144628   2.971   4.610  13.042  0.3198  1.9546 -0.0257
 6811TIP3    H244629   2.998   4.495  13.137 -1.8245  1.0690 -0.4205
 6812TIP3   OH244630   4.284   5.681  11.873 -0.1429 -0.3212 -0.6212
 6812TIP3    H144631   4.373   5.653  11.896 -0.6379  0.9874  3.8365
 6812TIP3    H244632   4.228   5.610  11.904 -0.8339 -1.7082 -4.4823
 6813TIP3   OH244633   2.689   3.972  12.520 -0.0895  0.6235 -0.0831
 6813TIP3    H144634   2.706   4.031  12.446 -1.4034  0.1611 -0.7942
 6813TIP3    H244635   2.594   3.964  12.523 -0.0537  0.4827  1.5734
 6814TIP3   OH244636   6.058   6.390  11.909 -0.6642 -0.3320 -1.1373
 6814TIP3    H144637   6.087   6.362  11.995 -3.3242  2.7517  0.9788
 6814TIP3    H244638   6.000   6.320  11.879  2.0878 -2.5856 -1.7316
 6815TIP3   OH244639   6.070   1.352  13.433  0.0387  0.3018 -0.1869
 6815TIP3    H144640   6.026   1.303  13.502  0.6323 -0.7069 -0.4980
 6815TIP3    H244641   6.000   1.381  13.375 -0.4778  1.2711  0.8876
 6816TIP3   OH244642   1.748   2.873  13.125 -0.2030  0.0963 -0.3111
 6816TIP3    H144643   1.731   2.866  13.031  0.7983  1.5766 -0.6419
 6816TIP3    H244644   1.841   2.853  13.134 -0.7880 -2.5155  0.7373
 6817TIP3   OH244645   0.575   0.181  12.788  0.4414  0.3729 -0.0866
 6817TIP3    H144646   0.537   0.116  12.847 -0.7460  1.3831  0.2924
 6817TIP3    H244647   0.667   0.155  12.779 -0.1181 -1.6675 -0.3854
 6818TIP3   OH244648   4.278   3.600  13.837 -0.0102  0.1588 -0.3971
 6818TIP3    H144649   4.208   3.600  13.772 -1.6268 -0.1360  1.2843
 6818TIP3    H244650   4.305   3.508  13.843 -0.4619  0.0465 -0.0420
 6819TIP3   OH244651   0.533   3.871  11.804  0.1379 -0.1732 -0.2592
 6819TIP3    H144652   0.580   3.819  11.739 -1.1387  1.2795 -2.4903
 6819TIP3    H244653   0.583   3.953  11.809 -0.8395  0.4969 -0.9675
 6820TIP3   OH244654   1.484   8.216  12.709  0.4544  0.4347  0.1078
 6820TIP3    H144655   1.448   8.271  12.639  0.2780 -2.6407 -2.4561
 6820TIP3    H244656   1.560   8.174  12.669  1.3562 -0.2410  2.3729
 6821TIP3   OH244657   7.474   8.370  13.727  0.1995  0.3099  0.4093
 6821TIP3    H144658   7.410   8.338  13.790  1.1978  0.7280  1.6611
 6821TIP3    H244659   7.496   8.458  13.757  0.2192  0.7750 -0.9048
 6822TIP3   OH244660   5.768   3.028  12.722  0.0876 -0.3546  0.6739
 6822TIP3    H144661   5.692   3.036  12.779 -0.1977  0.1934  0.2245
 6822TIP3    H244662   5.741   2.966  12.654 -0.9362  1.8129 -1.0079
 6823TIP3   OH244663   6.172   2.448  13.406 -0.3138  0.0859 -0.2866
 6823TIP3    H144664   6.132   2.512  13.465 -0.2621  0.6573 -0.8605
 6823TIP3    H244665   6.141   2.363  13.438 -2.5499  0.5209 -1.1124
 6824TIP3   OH244666   4.992   4.348  18.176  0.8791  0.1374  0.3431
 6824TIP3    H144667   5.020   4.401  18.102 -0.5180 -2.7341 -2.4416
 6824TIP3    H244668   4.902   4.375  18.192  1.4162  1.2950  1.6105
 6825TIP3   OH244669   7.885   0.404  12.086 -0.4445 -0.0412 -0.0980
 6825TIP3    H144670   7.822   0.424  12.017  0.4066 -0.0950 -0.9098
 6825TIP3    H244671   7.839   0.425  12.167 -0.1355  4.0547 -0.7628
 6826TIP3   OH244672   7.025   8.001  13.048 -0.3218 -0.5255 -0.0956
 6826TIP3    H144673   7.040   8.096  13.051  0.6213 -0.6228 -1.1761
 6826TIP3    H244674   7.034   7.973  13.139 -0.0650  0.3455  0.1600
 6827TIP3   OH244675   1.463   0.972  12.096  0.5110  0.4009 -0.7686
 6827TIP3    H144676   1.426   1.044  12.147 -0.8235 -0.5709 -0.3295
 6827TIP3    H244677   1.389   0.915  12.077  1.6732 -1.2790 -0.4371
 6828TIP3   OH244678   0.256   2.818  12.782  0.1372 -0.7963  0.2241
 6828TIP3    H144679   0.174   2.835  12.736 -0.4829 -1.4268  1.0659
 6828TIP3    H244680   0.230   2.771  12.861  1.3655 -1.5456  0.2105
 6829TIP3   OH244681   6.302   6.037  11.985 -0.3379  0.2793  0.3404
 6829TIP3    H144682   6.312   6.123  12.024  0.7430  0.9610 -1.3173
 6829TIP3    H244683   6.386   5.993  12.001  0.9261  1.2891 -2.6740
 6830TIP3   OH244684   5.388   7.494  13.137  0.2156 -0.5206 -0.7128
 6830TIP3    H144685   5.343   7.492  13.052 -0.4394 -1.6043 -0.3534
 6830TIP3    H244686   5.436   7.412  13.141  0.3365 -0.4227 -0.0728
 6831TIP3   OH244687   5.706   1.369  13.030  0.3371  0.8770 -0.0642
 6831TIP3    H144688   5.622   1.414  13.034 -0.4806 -0.6603  0.6378
 6831TIP3    H244689   5.695   1.304  12.961 -0.0001 -1.1166  1.7827
 6832TIP3   OH244690   5.686   7.543  11.677 -0.1798  0.4327 -0.2983
 6832TIP3    H144691   5.717   7.541  11.768 -3.1401  1.2620  0.8572
 6832TIP3    H244692   5.732   7.617  11.638  0.8916  0.2851  0.6250
 6833TIP3   OH244693   6.707   0.145  11.295  0.2424 -0.4303 -0.4806
 6833TIP3    H144694   6.622   0.103  11.306  1.0340 -2.0390 -0.1540
 6833TIP3    H244695   6.730   0.128  11.203  0.0575  0.3302 -0.6737
 6834TIP3   OH244696   3.762   3.925  13.211 -0.0154 -0.0297 -0.2540
 6834TIP3    H144697   3.741   3.847  13.263 -0.1958 -0.2564 -0.6637
 6834TIP3    H244698   3.816   3.892  13.139  2.9136  0.6815  1.4262
 6835TIP3   OH244699   4.550   1.901  13.348  0.2721 -0.3624 -0.1341
 6835TIP3    H144700   4.590   1.951  13.418  1.7215 -0.0873 -1.1214
 6835TIP3    H244701   4.457   1.900  13.369  0.4276  1.3569  0.7648
 6836TIP3   OH244702   3.557   2.002  14.413 -0.8483  0.1874 -0.2587
 6836TIP3    H144703   3.651   1.982  14.413 -0.3989  2.0238  1.1267
 6836TIP3    H244704   3.515   1.916  14.418  0.8415 -0.6144  2.1036
 6837TIP3   OH244705   0.447   5.152  11.874  0.3196  0.3147  0.0608
 6837TIP3    H144706   0.454   5.081  11.810  0.2397  1.3601 -1.1552
 6837TIP3    H244707   0.491   5.227  11.832 -1.9533  1.7746  0.0642
 6838TIP3   OH244708   6.842   2.361  12.539 -0.0756  0.0957  0.4719
 6838TIP3    H144709   6.907   2.363  12.468  1.2314  1.7429  1.6066
 6838TIP3    H244710   6.803   2.274  12.534  1.5002 -0.5939 -0.9269
 6839TIP3   OH244711   3.296   1.495  11.581 -0.3941  0.0049 -0.3973
 6839TIP3    H144712   3.342   1.543  11.513 -0.1521  0.2813 -0.0432
 6839TIP3    H244713   3.307   1.403  11.558  1.4780 -0.0039  0.3918
 6840TIP3   OH244714   8.081   5.612  13.472 -0.3114  0.2438 -0.2181
 6840TIP3    H144715   8.092   5.603  13.377  2.0675 -2.9686  0.1990
 6840TIP3    H244716   8.021   5.543  13.497 -0.5265  0.7408  0.7002
 6841TIP3   OH244717   5.061   8.198  12.098 -0.0202  0.3413 -0.1115
 6841TIP3    H144718   5.137   8.153  12.133  0.8347  0.0467 -2.1774
 6841TIP3    H244719   4.996   8.129  12.085  0.0616  0.2657 -0.1197
 6842TIP3   OH244720   6.550   8.339  13.290  0.6114 -0.0006 -0.9145
 6842TIP3    H144721   6.610   8.390  13.235  0.1276  0.4237 -1.0534
 6842TIP3    H244722   6.479   8.314  13.231  0.8628 -0.8816 -0.8578
 6843TIP3   OH244723   7.478   1.274  13.688  0.4125 -0.6029  0.0966
 6843TIP3    H144724   7.566   1.310  13.695  0.4826 -1.0029  1.5494
 6843TIP3    H244725   7.420   1.348  13.708  0.5115 -0.8674  1.4746
 6844TIP3   OH244726   7.657   7.832  13.400 -0.1848 -0.5328  0.6687
 6844TIP3    H144727   7.596   7.772  13.444 -0.8059 -0.4668 -0.0868
 6844TIP3    H244728   7.604   7.875  13.333  0.4333  0.3303  0.7182
 6845TIP3   OH244729   0.253   0.603  13.402  0.0261  0.1133 -0.1391
 6845TIP3    H144730   0.220   0.514  13.405 -2.1134  0.8422 -0.6270
 6845TIP3    H244731   0.191   0.651  13.346  0.0708  2.2956  1.5193
 6846TIP3   OH244732   8.317   7.137  12.513 -0.7549  0.2555 -0.1706
 6846TIP3    H144733   8.249   7.082  12.474  0.2788 -0.5480 -0.9227
 6846TIP3    H244734   8.288   7.151  12.603 -1.8913 -0.0884 -0.4676
 6847TIP3   OH244735   1.517   7.379  12.192 -0.1966  0.0026 -0.5977
 6847TIP3    H144736   1.487   7.291  12.170 -2.1378  0.2576  0.7663
 6847TIP3    H244737   1.536   7.420  12.108 -1.8028 -0.9009 -1.4498
 6848TIP3   OH244738   2.698   6.740  12.562  0.0527  0.2401  0.2906
 6848TIP3    H144739   2.720   6.791  12.485 -0.7933  1.3217  0.7404
 6848TIP3    H244740   2.671   6.655  12.528 -0.0166  0.6007 -0.5797
 6849TIP3   OH244741   5.425   2.670  12.506  0.7386 -0.6018  0.4792
 6849TIP3    H144742   5.375   2.748  12.531  0.1873  0.3100 -2.9428
 6849TIP3    H244743   5.375   2.597  12.543 -2.1609  0.3875 -1.1744
 6850TIP3   OH244744   2.419   0.791  12.158  0.1554  0.2797 -0.3241
 6850TIP3    H144745   2.424   0.886  12.166  0.4735  0.2807 -0.5442
 6850TIP3    H244746   2.325   0.773  12.148  0.0246  0.5099  0.4087
 6851TIP3   OH244747   2.393   5.535  12.634  0.6608 -0.1985  0.3302
 6851TIP3    H144748   2.415   5.629  12.632 -0.2916  0.0230 -0.7340
 6851TIP3    H244749   2.305   5.532  12.670  1.0570 -0.7862  1.2775
 6852TIP3   OH244750   7.178   1.370  13.196 -0.2510  0.0462 -0.0890
 6852TIP3    H144751   7.267   1.371  13.161  0.2249  0.4595  1.0740
 6852TIP3    H244752   7.185   1.319  13.277 -0.8277  1.0520  0.6091
 6853TIP3   OH244753   8.368   0.588  12.351  0.2462 -0.0628 -0.3686
 6853TIP3    H144754   8.291   0.539  12.321  1.0024 -1.6872  0.2108
 6853TIP3    H244755   8.396   0.542  12.430  0.7266  1.6402  0.4926
 6854TIP3   OH244756   3.692   2.504  12.241 -0.6920  0.4172  0.1887
 6854TIP3    H144757   3.611   2.455  12.227  0.2369 -0.8026 -1.2474
 6854TIP3    H244758   3.665   2.595  12.238 -1.9039  0.0614 -1.2706
 6855TIP3   OH244759   6.416   6.168  12.242 -0.2680  0.2233 -0.2743
 6855TIP3    H144760   6.481   6.141  12.177  0.0935  0.9340 -0.2136
 6855TIP3    H244761   6.467   6.184  12.322 -0.7558 -1.0952  0.3456
 6856TIP3   OH244762   6.748   6.208  11.377 -0.8321 -0.0219  0.0509
 6856TIP3    H144763   6.679   6.228  11.440 -0.3780  1.9326 -0.0104
 6856TIP3    H244764   6.821   6.266  11.401  0.2743 -1.0188 -0.7490
 6857TIP3   OH244765   5.908   3.728  12.218  0.1207 -0.0667 -0.0437
 6857TIP3    H144766   5.907   3.803  12.278  0.5607  0.5388 -0.7818
 6857TIP3    H244767   5.832   3.742  12.162 -0.9510 -1.2222  1.0521
 6858TIP3   OH244768   1.046   4.432  12.272 -0.1754  0.4464 -0.2530
 6858TIP3    H144769   1.088   4.348  12.253 -0.9002  0.3548 -1.5362
 6858TIP3    H244770   1.095   4.495  12.219  1.1878  1.0879  1.6606
 6859TIP3   OH244771   7.763   2.588  11.432 -0.2677  0.2181  0.4736
 6859TIP3    H144772   7.679   2.556  11.465  0.1462  0.1263  1.4460
 6859TIP3    H244773   7.802   2.512  11.389 -0.1950 -0.0342  0.9836
 6860TIP3   OH244774   5.269   5.038  14.100  0.3785  0.3789  0.0124
 6860TIP3    H144775   5.184   4.999  14.118  0.8970 -0.5391  0.4997
 6860TIP3    H244776   5.332   4.970  14.121  1.1744  0.4567 -1.9694
 6861TIP3   OH244777   7.210   4.303  13.103  0.2474  0.0953 -0.6529
 6861TIP3    H144778   7.267   4.378  13.118 -0.8752  1.3827 -2.4112
 6861TIP3    H244779   7.146   4.306  13.174  0.9784  0.0127  0.0164
 6862TIP3   OH244780   5.109   7.888  12.226 -0.0166 -0.0460  0.2207
 6862TIP3    H144781   5.132   7.808  12.179  1.5825  0.7336 -0.4132
 6862TIP3    H244782   5.184   7.946  12.212 -0.1315  0.7656  2.5161
 6863TIP3   OH244783   6.451   7.305  11.497  0.2459 -0.5419 -0.0853
 6863TIP3    H144784   6.512   7.346  11.558 -0.9995 -0.2918  1.0564
 6863TIP3    H244785   6.474   7.212  11.497  0.0237 -0.6118  1.0967
 6864TIP3   OH244786   8.080   5.761  13.865 -0.0370  0.7844  0.0258
 6864TIP3    H144787   8.119   5.781  13.950 -0.1021 -1.3469  0.5951
 6864TIP3    H244788   8.141   5.700  13.824 -0.1402  1.5782 -1.3781
 6865TIP3   OH244789   3.088   3.057  12.808 -0.2726 -0.3150 -0.0861
 6865TIP3    H144790   3.007   3.020  12.845  1.6240 -2.6059  2.0854
 6865TIP3    H244791   3.129   3.103  12.881  0.5286  0.7009 -1.1249
 6866TIP3   OH244792   5.567   0.753  12.450 -0.7830 -0.0508  0.1973
 6866TIP3    H144793   5.510   0.689  12.493 -1.0962  0.0808 -0.0249
 6866TIP3    H244794   5.512   0.830  12.438  0.2113  1.1540  2.5724
 6867TIP3   OH244795   0.836   6.792  13.303 -0.1079  0.5273 -0.0027
 6867TIP3    H144796   0.755   6.816  13.258  0.0884  2.3864  0.5808
 6867TIP3    H244797   0.807   6.733  13.374 -0.7244 -0.1822 -0.8148
 6868TIP3   OH244798   2.255   6.065  13.298 -0.0133  0.4910 -0.0502
 6868TIP3    H144799   2.332   6.017  13.267  2.4876  2.7250  2.1987
 6868TIP3    H244800   2.229   6.019  13.378 -2.1155 -1.1530 -1.5653
 6869TIP3   OH244801   0.297   7.837  12.725  0.1498 -0.8395 -0.2880
 6869TIP3    H144802   0.266   7.903  12.787 -1.7971 -1.1241 -0.8874
 6869TIP3    H244803   0.324   7.887  12.648 -0.8606 -0.6751 -0.5534
 6870TIP3   OH244804   2.052   2.881  12.016  0.1664 -0.3913  0.1554
 6870TIP3    H144805   2.089   2.814  12.073  0.3064 -0.4763 -0.0339
 6870TIP3    H244806   2.060   2.962  12.066  0.0897 -0.4980  0.3443
 6871TIP3   OH244807   1.321   1.563  13.578 -0.5123  0.0040  0.3531
 6871TIP3    H144808   1.330   1.645  13.529  1.4154 -0.4677 -0.1527
 6871TIP3    H244809   1.369   1.578  13.659  1.7597 -1.3036 -0.6786
 6872TIP3   OH244810   6.040   6.974  12.227 -0.8235  0.2573  0.6057
 6872TIP3    H144811   6.101   6.966  12.154  0.4042  1.4091  1.4534
 6872TIP3    H244812   5.988   6.894  12.224 -0.5897  0.1301 -1.3126
 6873TIP3   OH244813   2.973   5.843  11.843  0.1854  0.1062 -0.3666
 6873TIP3    H144814   2.966   5.790  11.764  1.1009 -0.0886 -0.3284
 6873TIP3    H244815   2.888   5.834  11.886  0.1382 -0.8791 -0.6500
 6874TIP3   OH244816   0.371   6.717  12.862  0.3661 -0.0953 -0.1698
 6874TIP3    H144817   0.403   6.771  12.790  0.2067 -1.2157 -1.1170
 6874TIP3    H244818   0.285   6.754  12.883 -0.5588 -1.0218 -2.0284
 6875TIP3   OH244819   4.420   5.388  13.376 -0.1537 -0.0338  0.5483
 6875TIP3    H144820   4.430   5.472  13.332  0.9277 -0.0024  0.8366
 6875TIP3    H244821   4.489   5.387  13.442  0.1834 -1.3841  0.1894
 6876TIP3   OH244822   4.876   8.137  13.705  0.7318  0.1955  0.1219
 6876TIP3    H144823   4.801   8.105  13.656  0.8092  1.2319 -0.6892
 6876TIP3    H244824   4.909   8.060  13.752  1.5433 -1.1945 -2.5599
 6877TIP3   OH244825   2.636   5.779  12.540  0.3399 -0.2965  0.3260
 6877TIP3    H144826   2.585   5.790  12.620 -1.4765  0.0549 -0.8158
 6877TIP3    H244827   2.580   5.727  12.482  0.8455  0.9205 -1.3438
 6878TIP3   OH244828   4.412   6.949  11.524  0.4147  0.4613  0.6963
 6878TIP3    H144829   4.381   6.879  11.581 -0.7397 -0.1539 -0.6121
 6878TIP3    H244830   4.484   6.910  11.474  0.1674  0.3838  0.3943
 6879TIP3   OH244831   6.692   7.766  11.718 -0.1853 -0.6761 -0.9692
 6879TIP3    H144832   6.734   7.704  11.778  0.2181  0.4167 -0.0768
 6879TIP3    H244833   6.737   7.753  11.635  1.0677 -0.4250 -0.3531
 6880TIP3   OH244834   3.667   7.622  13.371  0.3657 -0.2508  0.2468
 6880TIP3    H144835   3.651   7.620  13.465 -0.4668  0.2213  0.1257
 6880TIP3    H244836   3.726   7.696  13.358  1.0332 -0.7366  0.4687
 6881TIP3   OH244837   3.148   5.242  13.574 -0.0090  0.3881  0.3430
 6881TIP3    H144838   3.195   5.304  13.630  0.0065 -0.2603  1.0484
 6881TIP3    H244839   3.096   5.189  13.634  2.1734 -2.2441  0.0678
 6882TIP3   OH244840   6.248   1.825  13.122 -0.1033  0.3945  0.1941
 6882TIP3    H144841   6.213   1.747  13.079 -1.8850  1.6688 -0.8029
 6882TIP3    H244842   6.207   1.826  13.208 -2.3119  1.6396 -0.8032
 6883TIP3   OH244843   0.317   1.464  11.968 -0.4650 -0.7159  0.3968
 6883TIP3    H144844   0.271   1.410  11.904  0.3213 -2.8388  1.5466
 6883TIP3    H244845   0.404   1.476  11.930 -0.6294 -0.2326  0.1563
 6884TIP3   OH244846   3.980   7.922  11.437 -0.0317 -0.2419  0.0695
 6884TIP3    H144847   3.936   7.869  11.503 -1.2433  1.1248  0.4021
 6884TIP3    H244848   3.941   8.009  11.445  0.2519  0.1371 -2.0003
 6885TIP3   OH244849   5.559   3.743  12.189 -0.4860  0.4552  0.2159
 6885TIP3    H144850   5.604   3.682  12.131  0.4480  1.5692 -0.2762
 6885TIP3    H244851   5.499   3.689  12.240 -0.4655 -0.7097 -0.9628
 6886TIP3   OH244852   4.277   0.242  13.022  0.3797  0.0170  0.1823
 6886TIP3    H144853   4.336   0.169  13.040  0.3411  0.7356  3.8568
 6886TIP3    H244854   4.189   0.203  13.028  0.3460  0.3042  2.4811
 6887TIP3   OH244855   3.395   1.821  11.774 -0.0463  0.2107 -0.7973
 6887TIP3    H144856   3.404   1.726  11.781 -0.2134  0.1933 -0.8034
 6887TIP3    H244857   3.393   1.852  11.865  0.1544  0.2229 -0.7975
 6888TIP3   OH244858   5.987   7.523  12.939 -0.3112 -0.5095 -0.1640
 6888TIP3    H144859   5.976   7.441  12.987 -0.4810 -1.0335 -1.0600
 6888TIP3    H244860   5.964   7.500  12.849 -2.6579  1.0419 -0.0523
 6889TIP3   OH244861   3.045   7.963  12.878  0.4429  0.9095 -0.0078
 6889TIP3    H144862   3.130   8.006  12.872 -0.2822  2.3951 -0.2332
 6889TIP3    H244863   3.043   7.924  12.965  1.1990  1.2309  0.1550
 6890TIP3   OH244864   2.588   6.965  12.718 -0.7623 -0.1087  0.4337
 6890TIP3    H144865   2.614   6.904  12.786 -0.3324  0.2377  0.5764
 6890TIP3    H244866   2.634   6.935  12.640  2.5243  2.2177  1.2927
 6891TIP3   OH244867   0.697   1.837  12.524  0.2172 -0.1383  0.2273
 6891TIP3    H144868   0.644   1.830  12.603 -0.6369  0.8152 -0.2488
 6891TIP3    H244869   0.657   1.776  12.462  0.9471 -0.9618  0.5350
 6892TIP3   OH244870   7.578   5.073  11.387  0.1318 -0.5514 -0.4098
 6892TIP3    H144871   7.564   5.168  11.383 -1.3560 -0.7832 -2.2373
 6892TIP3    H244872   7.512   5.041  11.448 -0.0635 -0.5231 -0.6073
 6893TIP3   OH244873   2.348   5.595  11.861  0.4961 -1.1113  0.1537
 6893TIP3    H144874   2.387   5.619  11.777  0.7060 -1.5124  0.1371
 6893TIP3    H244875   2.422   5.566  11.915  0.3656 -0.8474  0.4828
 6894TIP3   OH244876   0.201   7.036  11.841  0.0304  0.2918  0.4850
 6894TIP3    H144877   0.190   7.122  11.881  0.2682  0.0026  1.1931
 6894TIP3    H244878   0.266   7.049  11.773 -1.6041  1.1578 -1.0033
 6895TIP3   OH244879   2.984   0.849  12.044  0.4465 -0.2259 -0.0299
 6895TIP3    H144880   3.060   0.871  12.098  1.4611 -0.2302 -1.4081
 6895TIP3    H244881   2.910   0.853  12.105  1.5037  0.0070  1.2981
 6896TIP3   OH244882   3.138   4.298  13.355  0.2242 -0.6067 -0.2223
 6896TIP3    H144883   3.070   4.320  13.292  1.0495 -0.0920 -0.9563
 6896TIP3    H244884   3.180   4.220  13.318 -0.2394 -1.1933  0.4536
 6897TIP3   OH244885   1.854   8.403  13.290  0.3016  0.1362  0.0632
 6897TIP3    H144886   1.878   8.421  13.199  0.1952 -1.1367 -0.2468
 6897TIP3    H244887   1.782   8.463  13.308 -0.0041  0.0752 -0.8715
 6898TIP3   OH244888   4.835   7.818  12.196  0.3447 -0.0294  0.1536
 6898TIP3    H144889   4.929   7.808  12.210  0.0209 -3.1341  0.8597
 6898TIP3    H244890   4.824   7.800  12.102  0.5039  1.2085 -0.1190
 6899TIP3   OH244891   2.360   6.741  11.799  0.0331 -0.4620  0.4359
 6899TIP3    H144892   2.297   6.697  11.857  0.6580 -2.3781 -0.2502
 6899TIP3    H244893   2.444   6.730  11.844  0.4132 -1.3123 -0.4661
 6900TIP3   OH244894   6.638   2.422  11.672  0.1888  0.0731  0.3175
 6900TIP3    H144895   6.566   2.449  11.730  0.7227 -0.0164  1.0284
 6900TIP3    H244896   6.624   2.328  11.660 -1.0255  0.4072 -1.2639
 6901TIP3   OH244897   5.110   7.962  13.790 -0.4492 -0.0679 -0.1913
 6901TIP3    H144898   5.152   8.026  13.732 -0.2463 -0.7815 -0.8443
 6901TIP3    H244899   5.152   7.879  13.768  0.2962 -0.2159  1.6393
 6902TIP3   OH244900   5.737   7.403  13.199  0.3515  0.0219  0.2160
 6902TIP3    H144901   5.817   7.382  13.150  0.0835  0.0423 -0.2317
 6902TIP3    H244902   5.760   7.385  13.291  0.4229 -1.3534 -0.0486
 6903TIP3   OH244903   3.997   3.224  11.539  0.1695  0.4233  0.1956
 6903TIP3    H144904   3.956   3.281  11.604  1.7883  1.8145  0.0695
 6903TIP3    H244905   3.960   3.137  11.556 -0.3730  0.9919  2.1530
 6904TIP3   OH244906   2.276   2.032  13.048  0.0127  0.2494  0.1951
 6904TIP3    H144907   2.262   1.998  13.136  0.9485  0.0734  0.2924
 6904TIP3    H244908   2.366   2.066  13.050 -0.7675  2.4599  0.0073
 6905TIP3   OH244909   3.090   2.652  12.656 -0.2961  0.2376  0.1288
 6905TIP3    H144910   3.165   2.594  12.657  0.3977  1.1079 -0.2118
 6905TIP3    H244911   3.046   2.636  12.740  0.8894  0.5116  0.8177
 6906TIP3   OH244912   0.185   6.085  12.193  0.4744 -0.5863 -0.5226
 6906TIP3    H144913   0.192   6.164  12.246  2.0932 -0.9155 -0.1771
 6906TIP3    H244914   0.112   6.037  12.232  0.4278  0.0504  0.2039
 6907TIP3   OH244915   4.207   4.743  12.002 -0.1852 -0.0048 -0.1280
 6907TIP3    H144916   4.193   4.681  12.074 -0.7659 -1.9571 -1.8152
 6907TIP3    H244917   4.253   4.817  12.042  0.8940 -1.6770  1.9218
 6908TIP3   OH244918   1.939   4.589  13.591 -0.4129  0.5025  0.4230
 6908TIP3    H144919   1.891   4.669  13.570  0.4121  1.1504  0.9217
 6908TIP3    H244920   1.874   4.520  13.587 -1.0443  1.1265 -0.5247
 6909TIP3   OH244921   0.785   0.205  13.034  0.0193 -0.1731 -0.8813
 6909TIP3    H144922   0.859   0.144  13.030 -0.0699 -0.2182 -2.4776
 6909TIP3    H244923   0.795   0.261  12.958 -0.2451  1.4535  0.2360
 6910TIP3   OH244924   1.167   2.578  12.797  0.0052  0.0036 -0.1528
 6910TIP3    H144925   1.171   2.637  12.721 -2.0594  0.8558  0.3202
 6910TIP3    H244926   1.208   2.628  12.867  0.5890 -0.1938 -0.3451
 6911TIP3   OH244927   6.026   4.622  12.431 -0.6706 -0.6666 -0.2152
 6911TIP3    H144928   6.022   4.711  12.467 -0.4201 -0.4486 -0.7081
 6911TIP3    H244929   5.937   4.589  12.440 -1.3182  0.4525 -2.0215
 6912TIP3   OH244930   1.835   3.138  13.083 -0.0308  0.2173  0.1514
 6912TIP3    H144931   1.827   3.043  13.075 -3.5006  0.4812 -1.8541
 6912TIP3    H244932   1.849   3.154  13.176 -1.3218 -2.2478  0.8487
 6913TIP3   OH244933   6.370   6.532  12.246 -0.3757  0.5258  0.0604
 6913TIP3    H144934   6.366   6.479  12.166  0.0663 -0.6595  0.7947
 6913TIP3    H244935   6.455   6.574  12.243 -0.6774  1.1169 -0.4658
 6914TIP3   OH244936   1.107   1.747  12.847 -0.5231 -0.1545 -0.2032
 6914TIP3    H144937   1.198   1.775  12.837 -0.4307 -0.1775  0.5797
 6914TIP3    H244938   1.056   1.817  12.805 -0.1164 -0.5803 -1.4543
 6915TIP3   OH244939   4.098   2.099  13.226 -0.0702 -0.0183  0.3277
 6915TIP3    H144940   4.034   2.119  13.295  0.1771  0.8516  0.3158
 6915TIP3    H244941   4.134   2.015  13.251 -2.6195 -1.5413 -0.7067
 6916TIP3   OH244942   2.181   4.750  13.490  0.0387 -0.4104 -0.1952
 6916TIP3    H144943   2.114   4.701  13.537 -1.3557  0.8227 -0.7818
 6916TIP3    H244944   2.260   4.697  13.497 -0.5817 -1.1569  1.8968
 6917TIP3   OH244945   5.419   7.444  13.447  0.4649  0.4680  0.3323
 6917TIP3    H144946   5.481   7.488  13.504  0.6245 -0.9776  1.3373
 6917TIP3    H244947   5.448   7.465  13.358  1.0845  1.5617  0.7754
 6918TIP3   OH244948   0.833   6.992  13.579  0.6950  0.0224  0.1152
 6918TIP3    H144949   0.928   6.984  13.570  1.0168  3.4908 -1.0815
 6918TIP3    H244950   0.821   7.047  13.656 -0.2176  0.9481 -0.6574
 6919TIP3   OH244951   2.029   1.552  13.505  0.4332  0.0887  0.5691
 6919TIP3    H144952   2.069   1.543  13.419  0.7089 -0.6223  0.7585
 6919TIP3    H244953   1.937   1.570  13.488  0.3823 -0.5555  0.1246
 6920TIP3   OH244954   7.122   4.992  12.908  0.6663 -0.1517 -0.6885
 6920TIP3    H144955   7.046   5.011  12.853 -0.2308 -0.4124  0.4333
 6920TIP3    H244956   7.143   5.076  12.950 -1.0063 -0.6962  1.4228
 6921TIP3   OH244957   4.567   4.508  12.247 -0.7518 -0.1553  0.0530
 6921TIP3    H144958   4.658   4.484  12.259 -1.1659 -1.2429  1.1887
 6921TIP3    H244959   4.551   4.496  12.153  0.2573  0.0429 -0.1536
 6922TIP3   OH244960   3.962   8.162  13.497  0.3552 -0.4749 -0.4375
 6922TIP3    H144961   3.890   8.105  13.522 -1.0060 -0.4397 -3.7994
 6922TIP3    H244962   3.937   8.248  13.530 -0.6318 -0.6673 -0.6629
 6923TIP3   OH244963   7.365   0.448  13.193 -0.2357 -0.4181 -0.2553
 6923TIP3    H144964   7.328   0.410  13.273 -0.4373  1.0419  0.3857
 6923TIP3    H244965   7.360   0.378  13.128 -2.2205 -0.9258  0.3699
 6924TIP3   OH244966   4.488   2.605  13.820  0.7481 -0.2949 -0.0902
 6924TIP3    H144967   4.534   2.642  13.745 -0.1139  0.2725 -0.3498
 6924TIP3    H244968   4.532   2.522  13.836  1.8847  0.2415 -0.3073
 6925TIP3   OH244969   5.378   7.691  11.685 -0.2718 -0.2065 -0.0298
 6925TIP3    H144970   5.371   7.625  11.616 -0.5346  0.9360 -1.1318
 6925TIP3    H244971   5.395   7.773  11.639  1.3554  0.3227  1.3732
 6926TIP3   OH244972   0.400   2.977  11.967  0.9696  0.4897 -0.1344
 6926TIP3    H144973   0.357   2.943  11.888 -3.1378  0.2264  1.9591
 6926TIP3    H244974   0.379   3.071  11.967  0.4920  0.3883  0.8889
 6927TIP3   OH244975   7.704   2.028  11.599  0.1725  0.8914  0.3373
 6927TIP3    H144976   7.794   2.014  11.626  0.4169 -0.3546 -1.0222
 6927TIP3    H244977   7.651   1.994  11.672  0.7914  0.9717  0.8296
 6928TIP3   OH244978   5.487   1.387  12.415 -0.0678 -0.0567  0.4650
 6928TIP3    H144979   5.522   1.476  12.419 -1.7699  0.8670 -2.1607
 6928TIP3    H244980   5.563   1.331  12.401  1.1511  0.7620  3.1673
 6929TIP3   OH244981   2.606   3.428  11.828  0.3062 -0.3114  0.3799
 6929TIP3    H144982   2.632   3.340  11.800  0.6372 -0.3778  0.8731
 6929TIP3    H244983   2.674   3.454  11.890  2.2474  1.7540 -2.3764
 6930TIP3   OH244984   6.218   0.529  11.778  0.4256 -0.0193 -0.2036
 6930TIP3    H144985   6.201   0.436  11.792  0.1648  0.3438  2.4545
 6930TIP3    H244986   6.147   0.559  11.721 -0.2924 -1.1811  0.0536
 6931TIP3   OH244987   6.625   3.200  12.775  0.0707 -0.6650  0.5307
 6931TIP3    H144988   6.600   3.170  12.863 -0.1611 -0.3040  0.5893
 6931TIP3    H244989   6.591   3.290  12.770 -0.2493 -0.8138 -0.0626
 6932TIP3   OH244990   7.528   6.404  12.803  0.4435 -0.1534 -0.2313
 6932TIP3    H144991   7.547   6.428  12.712 -0.0150  1.0785 -0.0315
 6932TIP3    H244992   7.443   6.359  12.799 -0.1098  0.8561 -0.3191
 6933TIP3   OH244993   7.990   7.169  12.816 -0.2950 -0.7125 -0.0893
 6933TIP3    H144994   7.953   7.236  12.759 -2.5720 -1.3644  0.5177
 6933TIP3    H244995   7.976   7.202  12.905 -0.9077 -1.7247  0.1989
 6934TIP3   OH244996   3.854   5.864  12.030 -0.4001  0.2601  0.2308
 6934TIP3    H144997   3.945   5.841  12.011 -0.4516  1.0187 -1.0683
 6934TIP3    H244998   3.859   5.956  12.058 -0.9216  0.8589 -1.5279
 6935TIP3   OH244999   4.450   1.553  13.291 -0.0500  0.4763  1.1321
 6935TIP3    H145000   4.473   1.462  13.272  0.5888  0.6149  1.2217
 6935TIP3    H245001   4.367   1.547  13.338 -0.2538 -0.0291  0.7217
 6936TIP3   OH245002   3.318   0.200  13.978 -0.2897  0.3567  0.5613
 6936TIP3    H145003   3.239   0.186  14.029 -0.6820 -0.8180 -0.3502
 6936TIP3    H245004   3.383   0.143  14.018  0.3317  1.8026  1.7286
 6937TIP3   OH245005   7.889   2.214  13.579 -0.5262  0.3018 -0.1292
 6937TIP3    H145006   7.825   2.165  13.528  0.5004  1.3493 -2.5862
 6937TIP3    H245007   7.973   2.172  13.560 -0.0068  1.2510 -0.0410
 6938TIP3   OH245008   4.214   5.327  13.562  0.1330 -0.0947  0.4776
 6938TIP3    H145009   4.279   5.259  13.543 -1.4862 -1.6747  0.2718
 6938TIP3    H245010   4.236   5.399  13.503  0.1363 -1.6276 -1.4983
 6939TIP3   OH245011   7.318   6.481  11.894 -0.2365  0.1768  0.6083
 6939TIP3    H145012   7.250   6.504  11.957  1.9821  1.9049  2.5950
 6939TIP3    H245013   7.320   6.554  11.832  0.1163  0.3721  0.8477
 6940TIP3   OH245014   0.257   7.242  13.334  0.1989 -0.2788 -0.0270
 6940TIP3    H145015   0.215   7.178  13.276  0.0827  0.4336 -0.7455
 6940TIP3    H245016   0.271   7.319  13.279  0.2200  0.3677  0.8573
 6941TIP3   OH245017   2.433   5.681  12.139  0.2319  0.1688  0.3249
 6941TIP3    H145018   2.361   5.714  12.193  1.5911  2.0255  1.1168
 6941TIP3    H245019   2.483   5.624  12.197  1.0213  1.2197  0.7093
 6942TIP3   OH245020   4.378   4.548  12.434  0.8763 -0.1916  0.0305
 6942TIP3    H145021   4.437   4.515  12.366 -0.4683  0.5867 -1.6049
 6942TIP3    H245022   4.357   4.637  12.406  0.1271  0.0862  1.3887
 6943TIP3   OH245023   6.495   7.548  11.305  0.0702  0.0654 -0.7333
 6943TIP3    H145024   6.474   7.454  11.308 -0.5661  0.2225 -0.0095
 6943TIP3    H245025   6.573   7.553  11.250  0.6904 -1.0080 -0.0020
 6944TIP3   OH245026   0.027   4.357  13.864  0.3455  0.4754  0.4561
 6944TIP3    H145027   0.024   4.267  13.831  0.9612  0.8499 -0.6682
 6944TIP3    H245028   0.018   4.412  13.786 -0.1454  1.3994  1.1434
 6945TIP3   OH245029   6.339   5.924  12.968 -0.3651  0.0629 -0.3834
 6945TIP3    H145030   6.428   5.893  12.957 -0.8558 -1.3646 -0.5940
 6945TIP3    H245031   6.341   5.973  13.050  0.4805 -0.4847 -0.0621
 6946TIP3   OH245032   3.363   6.305  12.701  0.2325 -0.2909  0.4235
 6946TIP3    H145033   3.399   6.238  12.644 -2.1628 -0.4407 -1.0566
 6946TIP3    H245034   3.310   6.258  12.765 -0.0074  0.0869  0.5101
 6947TIP3   OH245035   1.861   8.401  11.753 -0.2365  0.0514  0.7893
 6947TIP3    H145036   1.797   8.355  11.807 -1.2386  1.0560  0.4932
 6947TIP3    H245037   1.859   8.492  11.785 -0.5212  0.5684 -0.6080
 6948TIP3   OH245038   5.734   6.385  12.008  0.7565 -0.1355 -0.4322
 6948TIP3    H145039   5.708   6.424  11.925 -0.2974 -1.6359 -0.8507
 6948TIP3    H245040   5.652   6.358  12.049  1.2694  0.5628  1.0997
 6949TIP3   OH245041   7.364   7.690  11.677 -0.6136  0.8827  0.0979
 6949TIP3    H145042   7.292   7.634  11.706  0.5922 -0.2721  1.0056
 6949TIP3    H245043   7.347   7.775  11.719 -2.7432  1.4628 -1.6994
 6950TIP3   OH245044   2.901   2.488  13.906  0.2506  0.2624  0.3046
 6950TIP3    H145045   2.976   2.504  13.964 -0.7177  0.5266  1.5042
 6950TIP3    H245046   2.892   2.569  13.856  0.1453  0.5978  0.8687
 6951TIP3   OH245047   5.578   2.180  12.170 -0.5835  0.2662  0.2941
 6951TIP3    H145048   5.510   2.211  12.110 -1.0417 -0.9947  0.1339
 6951TIP3    H245049   5.539   2.105  12.214  1.1975 -1.4492 -0.8869
 6952TIP3   OH245050   0.765   5.325  13.906 -0.0779 -0.1891 -0.6914
 6952TIP3    H145051   0.692   5.302  13.963  0.5828 -0.9129 -0.1055
 6952TIP3    H245052   0.825   5.250  13.913  0.5491  0.2245 -1.4442
 6953TIP3   OH245053   2.465   2.183  12.534 -0.2822  0.2245  0.3868
 6953TIP3    H145054   2.446   2.275  12.551  0.3375  0.7366 -1.3777
 6953TIP3    H245055   2.387   2.150  12.490 -0.1470  0.1883  0.1678
 6954TIP3   OH245056   5.340   6.937  12.059  0.2356 -0.2096  0.4615
 6954TIP3    H145057   5.282   6.945  11.984  1.9282  0.4706 -0.8410
 6954TIP3    H245058   5.283   6.909  12.131 -1.2388 -2.2754 -1.3566
 6955TIP3   OH245059   0.590   7.098  13.237 -0.1486  0.2092  0.1024
 6955TIP3    H145060   0.677   7.112  13.276  0.0613 -0.8954  0.0496
 6955TIP3    H245061   0.597   7.016  13.190 -0.9186  0.6605 -0.8343
 6956TIP3   OH245062   4.514   8.250  12.796  0.2895  0.3829 -0.4100
 6956TIP3    H145063   4.432   8.209  12.768  1.5819 -1.3608 -1.9173
 6956TIP3    H245064   4.552   8.188  12.858  0.7121  0.9115 -0.1344
 6957TIP3   OH245065   2.670   6.226  11.762 -0.0907  0.0010 -0.2618
 6957TIP3    H145066   2.734   6.253  11.828  0.8934  1.2842 -1.6657
 6957TIP3    H245067   2.723   6.209  11.684 -1.4222  0.9711 -1.4226
 6958TIP3   OH245068   4.547   3.775  12.847  0.1565 -0.5259  0.1247
 6958TIP3    H145069   4.472   3.834  12.837  0.5996  0.4287  1.9783
 6958TIP3    H245070   4.605   3.820  12.908  1.6932 -1.7932 -0.3308
 6959TIP3   OH245071   4.377   3.079  13.092 -0.3024  0.2793 -0.2267
 6959TIP3    H145072   4.402   3.151  13.150 -0.6013  0.8398 -0.7730
 6959TIP3    H245073   4.312   3.118  13.032 -0.7061 -0.5273 -0.3299
 6960TIP3   OH245074   5.749   1.630  13.329  0.2076  0.0369  0.0132
 6960TIP3    H145075   5.661   1.661  13.350  0.2482  0.7933 -0.8390
 6960TIP3    H245076   5.801   1.648  13.407 -0.3677 -0.3040  0.4790
 6961TIP3   OH245077   2.866   6.135  12.208  0.4069  0.4022  0.2079
 6961TIP3    H145078   2.785   6.106  12.167  0.1766 -0.1971  1.0493
 6961TIP3    H245079   2.915   6.054  12.224  0.2580  0.5562  1.5559
 6962TIP3   OH245080   4.807   6.357  12.723 -0.1482  0.5952  0.0354
 6962TIP3    H145081   4.726   6.319  12.688 -0.0177  0.5118 -0.1820
 6962TIP3    H245082   4.809   6.330  12.814 -0.9398  1.5494  0.3512
 6963TIP3   OH245083   4.953   8.187  11.589  0.1347 -0.0470 -0.1663
 6963TIP3    H145084   4.863   8.173  11.560  0.6796 -2.3584 -0.9733
 6963TIP3    H245085   4.972   8.278  11.566 -1.8138  0.3262 -0.4391
 6964TIP3   OH245086   7.457   8.275  11.430  0.0223  0.3705  0.0653
 6964TIP3    H145087   7.477   8.309  11.343  0.9397 -1.0120 -0.2979
 6964TIP3    H245088   7.362   8.276  11.435 -0.0566 -0.0719 -1.1825
 6965TIP3   OH245089   0.860   2.846  12.362 -0.3003 -0.0210 -0.3505
 6965TIP3    H145090   0.899   2.847  12.274 -1.3332 -0.2560 -0.8248
 6965TIP3    H245091   0.913   2.908  12.412  0.7246 -0.3902 -0.9472
 6966TIP3   OH245092   0.001   7.554  12.499 -0.4293 -0.2152  0.5437
 6966TIP3    H145093   0.036   7.625  12.445 -1.3602  0.9715  1.4640
 6966TIP3    H245094  -0.033   7.491  12.435 -1.9870  1.4010 -0.3207
 6967TIP3   OH245095   0.334   6.880  12.027 -0.0361 -0.3396 -0.1243
 6967TIP3    H145096   0.297   6.795  12.050  0.4868 -0.3641  0.6450
 6967TIP3    H245097   0.288   6.904  11.946 -2.1791 -0.0981  1.0814
 6968TIP3   OH245098   3.038   1.550  12.552 -0.0994  0.0368 -0.7040
 6968TIP3    H145099   3.018   1.642  12.569 -1.2412 -0.1272 -1.0726
 6968TIP3    H245100   3.019   1.538  12.459  1.2046 -0.2913 -0.9444
 6969TIP3   OH245101   6.128   6.003  11.769 -0.6615 -0.2458  0.2242
 6969TIP3    H145102   6.072   6.077  11.791 -0.9030 -0.7914  1.5593
 6969TIP3    H245103   6.181   5.988  11.847 -0.4982 -1.3620 -0.0720
 6970TIP3   OH245104   7.512   6.074  12.920  0.1759 -0.2055  0.2606
 6970TIP3    H145105   7.434   6.036  12.959  0.3116 -0.3278  0.4151
 6970TIP3    H245106   7.483   6.107  12.835 -0.5273  1.6905  1.1911
 6971TIP3   OH245107   3.718   7.750  12.227 -0.2324  0.8127  0.5596
 6971TIP3    H145108   3.679   7.837  12.223 -2.3567 -0.0810  0.8801
 6971TIP3    H245109   3.669   7.704  12.295 -0.1541 -1.1147 -0.6281
 6972TIP3   OH245110   1.139   1.525  13.173  0.4387  0.2906 -0.2435
 6972TIP3    H145111   1.159   1.436  13.203 -0.1067  0.6383  1.2534
 6972TIP3    H245112   1.101   1.568  13.250 -0.9035  1.3054 -1.4168
 6973TIP3   OH245113   2.033   7.299  11.818 -0.1111  0.0955  0.0730
 6973TIP3    H145114   1.950   7.252  11.812 -0.4845  0.7547 -0.0460
 6973TIP3    H245115   2.034   7.335  11.906  0.1241 -0.0398  0.1272
 6974TIP3   OH245116   6.484   2.337  13.020  0.4254 -0.0660 -0.2180
 6974TIP3    H145117   6.522   2.425  13.031 -0.5244  0.3880 -0.4628
 6974TIP3    H245118   6.425   2.327  13.095 -2.0714  0.9240 -1.9062
 6975TIP3   OH245119   6.008   4.751  13.430 -0.3261 -0.1950  0.0237
 6975TIP3    H145120   6.017   4.827  13.487  2.9362 -1.0258  0.8664
 6975TIP3    H245121   5.927   4.708  13.458 -0.8555  1.5601  1.2976
 6976TIP3   OH245122   0.245   0.480  11.758  0.6558  0.0390  0.1199
 6976TIP3    H145123   0.205   0.394  11.771  1.4770 -0.4239 -0.3787
 6976TIP3    H245124   0.171   0.541  11.758 -0.0692 -0.8142 -0.9406
 6977TIP3   OH245125   3.536   1.192  12.647  0.3525 -0.8845 -0.4741
 6977TIP3    H145126   3.577   1.278  12.644  0.5441 -0.9618 -0.2006
 6977TIP3    H245127   3.608   1.130  12.633  0.4806 -1.0528  0.7731
 6978TIP3   OH245128   0.246   6.758  13.978  0.2233 -0.3187 -0.1903
 6978TIP3    H145129   0.200   6.687  14.022 -0.1681  1.0026  1.6744
 6978TIP3    H245130   0.335   6.726  13.967  0.3206 -0.7620  1.5786
 6979TIP3   OH245131   1.120   7.638  12.033  0.0422 -0.2740 -0.5511
 6979TIP3    H145132   1.122   7.590  12.115  0.9635 -0.3419 -0.6038
 6979TIP3    H245133   1.174   7.715  12.049 -0.0514 -0.1131 -0.9922
 6980TIP3   OH245134   1.133   0.770  13.266 -0.0495 -0.1191  0.0937
 6980TIP3    H145135   1.064   0.703  13.268 -0.8901  0.7290 -0.0461
 6980TIP3    H245136   1.191   0.746  13.338  0.7490 -2.1119 -1.1257
 6981TIP3   OH245137   5.236   2.458  12.969  0.7044 -0.3678 -0.1726
 6981TIP3    H145138   5.179   2.535  12.975 -0.0113 -0.9477  1.0674
 6981TIP3    H245139   5.253   2.435  13.060  0.4775 -1.9717 -0.5114
 6982TIP3   OH245140   4.577   3.861  12.280  0.2180  0.4296  0.1681
 6982TIP3    H145141   4.503   3.886  12.225 -0.6971 -2.4174 -0.0493
 6982TIP3    H245142   4.546   3.875  12.369  0.4651  1.8673  0.0429
 6983TIP3   OH245143   3.251   5.722  13.719 -0.6709 -0.2831 -0.1487
 6983TIP3    H145144   3.332   5.755  13.758 -0.5381 -0.2088 -0.4904
 6983TIP3    H245145   3.226   5.788  13.655 -0.7467 -0.5285 -0.3771
 6984TIP3   OH245146   5.490   4.449  12.537 -0.5339  0.0610  0.2045
 6984TIP3    H145147   5.453   4.498  12.464 -1.9611 -0.8439  0.2902
 6984TIP3    H245148   5.503   4.361  12.503  1.5282  0.3064  0.2083
 6985TIP3   OH245149   3.314   7.910  12.254 -0.2669 -0.1932  0.2592
 6985TIP3    H145150   3.364   7.863  12.320  1.7203  0.0984 -0.9663
 6985TIP3    H245151   3.292   7.993  12.296  0.8589 -0.0602  0.6180
 6986TIP3   OH245152   0.478   2.702  12.077  0.3646  0.4631  0.1060
 6986TIP3    H145153   0.465   2.701  11.982  0.6597 -0.4583  0.0660
 6986TIP3    H245154   0.548   2.765  12.091  0.5549  0.3511 -0.3191
 6987TIP3   OH245155   5.110   5.196  11.472  0.0580 -0.5888  0.2985
 6987TIP3    H145156   5.065   5.206  11.388 -0.5130 -0.9474  0.5568
 6987TIP3    H245157   5.132   5.286  11.498 -1.0030 -0.3478  0.4291
 6988TIP3   OH245158   2.668   2.109  12.344 -0.1535  0.0129 -0.5258
 6988TIP3    H145159   2.610   2.181  12.368  0.9325  1.0678 -0.9992
 6988TIP3    H245160   2.617   2.030  12.364 -1.8678  0.8945 -1.2143
 6989TIP3   OH245161   7.653   7.026  11.690  0.3958 -0.5536 -0.0275
 6989TIP3    H145162   7.735   7.029  11.640  0.9777  1.7326  0.9558
 6989TIP3    H245163   7.651   6.937  11.726  1.9580 -0.9620 -0.8487
 6990TIP3   OH245164   5.695   8.168  13.771  0.7243  0.4558 -0.4647
 6990TIP3    H145165   5.613   8.120  13.779  1.3531 -0.5514  0.1281
 6990TIP3    H245166   5.674   8.256  13.803  0.1107 -0.0604  0.6132
 6991TIP3   OH245167   3.321   0.375  11.828 -0.6297  0.0757  0.5848
 6991TIP3    H145168   3.294   0.450  11.776 -0.0258  1.7022  2.4793
 6991TIP3    H245169   3.299   0.400  11.918 -0.9093 -2.2649  1.2361
 6992TIP3   OH245170   4.420   5.863  13.058 -0.5246  0.5313  0.2064
 6992TIP3    H145171   4.362   5.914  13.113 -0.6413  0.9002 -0.2563
 6992TIP3    H245172   4.484   5.926  13.025 -2.1697  0.9705 -2.4617
 6993TIP3   OH245173   0.766   2.405  11.755  0.2025 -0.3337 -0.3491
 6993TIP3    H145174   0.762   2.492  11.794  2.5504 -0.6413  0.7277
 6993TIP3    H245175   0.678   2.369  11.768 -0.6981  1.6978 -0.4971
 6994TIP3   OH245176   4.365   2.578  12.957  0.2776  0.0804 -0.1845
 6994TIP3    H145177   4.341   2.494  12.918  1.9580 -0.3354 -0.4189
 6994TIP3    H245178   4.453   2.595  12.924  0.3717  1.4358  0.6867
 6995TIP3   OH245179   6.220   1.069  13.913 -0.2554 -0.2498  0.5149
 6995TIP3    H145180   6.139   1.099  13.953 -0.8313  1.8870 -2.0287
 6995TIP3    H245181   6.196   0.987  13.869 -1.2280  0.6571 -0.6962
 6996TIP3   OH245182   7.073   3.987  13.461  0.4166  0.3725  0.1378
 6996TIP3    H145183   7.148   3.929  13.448  0.2182  0.5415 -2.4535
 6996TIP3    H245184   7.105   4.074  13.436 -0.4095  0.5915 -0.2137
 6997TIP3   OH245185   8.105   4.494  13.671  0.3109  0.3401 -0.1200
 6997TIP3    H145186   8.128   4.546  13.748  0.7672 -1.5403  1.0881
 6997TIP3    H245187   8.111   4.555  13.598  1.3780  1.8343  1.1457
 6998TIP3   OH245188   3.097   8.224  13.475 -0.1962  0.0935 -0.0273
 6998TIP3    H145189   3.088   8.318  13.491 -0.4820  0.4243 -1.9257
 6998TIP3    H245190   3.034   8.184  13.535 -1.5178  1.2527 -0.5821
 6999TIP3   OH245191   0.324   6.251  12.746 -0.1233 -0.3346  0.3670
 6999TIP3    H145192   0.239   6.295  12.747  0.4329  0.7836  0.3791
 6999TIP3    H245193   0.317   6.183  12.813 -0.3563  1.0506  1.8132
 7000TIP3   OH245194   8.421   4.788  12.741  0.8527 -0.3896  0.5104
 7000TIP3    H145195   8.495   4.750  12.694 -0.6692 -1.1264 -1.4030
 7000TIP3    H245196   8.422   4.881  12.717 -0.5156 -0.9413 -1.9366
 7001TIP3   OH245197   4.041   7.956  12.940 -0.0685 -0.3609 -0.0989
 7001TIP3    H145198   4.000   7.979  12.856  2.1427  1.2420 -0.8432
 7001TIP3    H245199   4.099   7.883  12.919 -0.9060 -1.2242  0.4956
 7002TIP3   OH245200   4.282   3.366  13.483 -0.0007 -0.2487  0.0441
 7002TIP3    H145201   4.232   3.448  13.483 -0.7781 -0.6827  1.4650
 7002TIP3    H245202   4.332   3.369  13.565  2.2333  0.0785 -1.2373
 7003TIP3   OH245203   1.134   7.409  13.270 -0.0621 -0.4851 -0.2926
 7003TIP3    H145204   1.090   7.480  13.223 -1.0104 -0.2597  0.9098
 7003TIP3    H245205   1.100   7.329  13.230  0.7499 -0.2923 -1.4186
 7004TIP3   OH245206   6.397   0.112  12.890  0.3925  0.1857 -0.2046
 7004TIP3    H145207   6.363   0.023  12.890  1.2389 -0.1781 -1.5974
 7004TIP3    H245208   6.412   0.133  12.982  2.3620 -1.9954  0.0528
 7005TIP3   OH245209   3.089   0.593  12.417 -0.0574 -0.3474  0.6790
 7005TIP3    H145210   3.061   0.675  12.457  0.8929 -0.7617  2.3047
 7005TIP3    H245211   3.179   0.610  12.388  0.1329 -0.7856  0.9918
 7006TIP3   OH245212   0.267   8.035  12.407  0.4224 -0.3178 -0.8767
 7006TIP3    H145213   0.171   8.038  12.405  0.4329 -0.2037 -1.1663
 7006TIP3    H245214   0.290   8.086  12.485  0.2307 -0.7309 -0.5460
 7007TIP3   OH245215   0.013   4.565  11.473 -0.3874  0.5321  0.0173
 7007TIP3    H145216  -0.012   4.646  11.429 -0.0372 -0.3709 -1.9596
 7007TIP3    H245217   0.109   4.567  11.475 -0.3220 -0.3208 -1.1139
 7008TIP3   OH245218   5.414   4.597  12.309 -0.0468  0.2982  0.2603
 7008TIP3    H145219   5.470   4.672  12.329  0.2298  0.0628  0.3826
 7008TIP3    H245220   5.418   4.589  12.214 -0.9390  1.0929  0.1390
 7009TIP3   OH245221   2.611   6.019  12.942 -0.4254 -0.2210 -0.4704
 7009TIP3    H145222   2.695   6.065  12.939 -0.4743 -0.1628 -2.1865
 7009TIP3    H245223   2.547   6.083  12.911 -1.1791 -0.1749  1.0865
 7010TIP3   OH245224   5.067   1.188  11.938  0.2830 -0.0209  0.3462
 7010TIP3    H145225   5.075   1.144  12.023  0.6622 -0.0758  0.2867
 7010TIP3    H245226   5.158   1.199  11.909  0.2282  1.1222  0.5372
 7011TIP3   OH245227   3.895   2.441  12.872 -0.2724 -0.7575 -0.1274
 7011TIP3    H145228   3.947   2.404  12.943  0.6919 -1.0113 -0.9358
 7011TIP3    H245229   3.945   2.420  12.793 -0.2988  1.1939 -0.7291
 7012TIP3   OH245230   4.931   6.571  11.466 -0.5380  0.1378  0.4516
 7012TIP3    H145231   4.856   6.624  11.441 -1.3199 -0.5197  1.3203
 7012TIP3    H245232   4.893   6.499  11.516  0.7428  0.1683  1.5067
 7013TIP3   OH245233   0.533   7.210  12.577  0.3299 -0.2399 -0.2726
 7013TIP3    H145234   0.598   7.158  12.529  0.2056  0.0380 -0.7485
 7013TIP3    H245235   0.531   7.294  12.531 -1.8782 -0.9263 -1.6144
 7014TIP3   OH245236   2.581   1.671  13.577 -0.2341 -0.1976 -0.0724
 7014TIP3    H145237   2.507   1.688  13.635 -0.8230 -0.5221 -0.7127
 7014TIP3    H245238   2.547   1.608  13.513  1.0798 -1.6831  0.6331
 7015TIP3   OH245239   7.461   3.002  13.116 -0.5394 -0.7255  0.7067
 7015TIP3    H145240   7.419   2.960  13.191  0.5199 -2.0303  0.5980
 7015TIP3    H245241   7.546   3.032  13.150  0.0343 -1.5091 -0.0099
 7016TIP3   OH245242   4.266   1.927  12.196 -0.1680  0.4115  0.2125
 7016TIP3    H145243   4.286   1.865  12.125 -1.2051  0.3081 -0.0027
 7016TIP3    H245244   4.185   1.969  12.169  0.1226  1.3301  0.7292
 7017TIP3   OH245245   3.191   8.063  12.584 -0.4566  0.5442  0.3727
 7017TIP3    H145246   3.145   8.134  12.541 -0.1801  1.7802  2.0214
 7017TIP3    H245247   3.124   7.996  12.597 -0.8212  0.6502 -0.8015
 7018TIP3   OH245248   4.538   8.381  12.367  0.1254 -0.5534 -0.2065
 7018TIP3    H145249   4.572   8.372  12.278 -0.9038 -0.7818 -0.5861
 7018TIP3    H245250   4.443   8.389  12.356 -0.1067 -1.5461  0.9338
 7019TIP3   OH245251   2.191   0.901  11.872  0.2487 -0.0637  0.1637
 7019TIP3    H145252   2.185   0.853  11.955  0.2458 -1.4050 -0.5854
 7019TIP3    H245253   2.229   0.838  11.811 -0.5170  0.6266 -1.0585
 7020TIP3   OH245254   1.439   4.982  12.610  0.2428 -0.0544  0.2497
 7020TIP3    H145255   1.432   4.886  12.611 -1.0626 -0.0133 -1.2695
 7020TIP3    H245256   1.528   4.999  12.579  0.3331 -0.7817  0.0868
 7021TIP3   OH245257   0.245   2.523  12.806 -0.7514 -0.0634 -0.2542
 7021TIP3    H145258   0.269   2.598  12.751  1.2358 -0.6373 -0.2633
 7021TIP3    H245259   0.156   2.501  12.780 -1.1595  1.8812 -0.6981
 7022TIP3   OH245260   0.488   2.711  11.791 -0.0166  0.3755  0.5130
 7022TIP3    H145261   0.417   2.774  11.798  0.8488  1.3374  0.8300
 7022TIP3    H245262   0.519   2.720  11.700 -0.3255 -0.0759  0.3611
 7023TIP3   OH245263   1.478   7.083  13.558 -0.0694  0.5845 -0.5630
 7023TIP3    H145264   1.567   7.050  13.545 -0.3949 -1.1638  1.1644
 7023TIP3    H245265   1.477   7.116  13.648 -0.8581  1.7026 -0.9602
 7024TIP3   OH245266   3.516   1.892  13.151  0.7773  0.5717  0.6424
 7024TIP3    H145267   3.542   1.836  13.224  2.2147  0.8017  0.3302
 7024TIP3    H245268   3.462   1.960  13.191 -0.6977 -0.7971  1.0836
 7025TIP3   OH245269   2.588   6.627  13.697 -0.1130  0.5489 -0.2853
 7025TIP3    H145270   2.577   6.722  13.692  1.1025  0.6878 -0.6140
 7025TIP3    H245271   2.673   6.611  13.657  0.6031 -0.4652  1.5272
 7026TIP3   OH245272   7.018   7.717  13.606  0.5449 -0.3163 -0.0223
 7026TIP3    H145273   7.022   7.775  13.681  1.9173  0.7371 -0.8792
 7026TIP3    H245274   7.108   7.688  13.592  0.0938 -1.6369 -0.4184
 7027TIP3   OH245275   1.306   6.178  12.466  0.4953 -0.2925 -0.2847
 7027TIP3    H145276   1.240   6.202  12.401  0.1614  0.7398  0.4180
 7027TIP3    H245277   1.285   6.230  12.543  0.0854 -2.4552  1.1569
 7028TIP3   OH245278   3.316   0.768  14.105 -0.3964 -0.3812 -0.0246
 7028TIP3    H145279   3.327   0.693  14.048 -1.9664 -0.5908 -0.1005
 7028TIP3    H245280   3.385   0.759  14.171  1.8921  0.2143 -2.1703
 7029TIP3   OH245281   2.066   1.667  12.412  0.1517  0.4557  0.0459
 7029TIP3    H145282   2.105   1.588  12.449 -0.8436  0.0174  0.1722
 7029TIP3    H245283   2.132   1.735  12.426  0.9551 -0.3138  0.0672
 7030TIP3   OH245284   5.051   7.319  12.959  0.3277 -0.2319 -0.7060
 7030TIP3    H145285   5.144   7.344  12.953  0.4009 -0.0026  1.0004
 7030TIP3    H245286   5.004   7.402  12.956  0.3604 -0.1116  1.2412
 7031TIP3   OH245287   7.449   6.268  12.397 -0.2932  0.5326 -0.1324
 7031TIP3    H145288   7.419   6.318  12.321 -1.2737 -0.5291 -0.4728
 7031TIP3    H245289   7.514   6.207  12.362  1.0579  1.6657  0.3169
 7032TIP3   OH245290   7.150   5.554  11.732  0.5022  0.3916 -0.5834
 7032TIP3    H145291   7.133   5.632  11.678  0.4783  0.9715  0.2331
 7032TIP3    H245292   7.192   5.589  11.811 -0.5802 -0.2697  0.3215
 7033TIP3   OH245293   4.136   5.831  12.050 -0.7318  0.0278 -0.6030
 7033TIP3    H145294   4.184   5.790  11.978  1.3121 -1.2792  1.3539
 7033TIP3    H245295   4.202   5.879  12.099 -1.7491 -0.3117  1.1917
 7034TIP3   OH245296   6.621   2.318  12.773 -0.1628 -0.1832 -0.3957
 7034TIP3    H145297   6.558   2.324  12.844 -0.3542 -0.3695 -0.5487
 7034TIP3    H245298   6.637   2.408  12.746 -0.7306 -0.1652 -0.6796
 7035TIP3   OH245299   2.841   2.942  12.857 -0.0241 -0.0467  0.4291
 7035TIP3    H145300   2.838   2.848  12.837  1.3123  0.1481 -0.8698
 7035TIP3    H245301   2.752   2.963  12.885 -0.4419 -1.6271  0.4159
 7036TIP3   OH245302   7.582   3.587  12.677  0.6367  0.2531  0.2253
 7036TIP3    H145303   7.505   3.608  12.731  0.4324 -0.7606  0.3338
 7036TIP3    H245304   7.566   3.633  12.594  0.1342  0.4143  0.4068
 7037TIP3   OH245305   3.565   2.584  13.399 -0.6765  0.8435 -0.1885
 7037TIP3    H145306   3.552   2.660  13.457 -1.7088  1.0758 -0.6933
 7037TIP3    H245307   3.641   2.606  13.347  1.9570 -0.4666  2.7808
 7038TIP3   OH245308   6.134   5.637  17.027 -0.1241  0.0996 -0.1549
 7038TIP3    H145309   6.174   5.552  17.047 -0.4664 -0.9525 -3.3740
 7038TIP3    H245310   6.040   5.623  17.042 -0.1719 -0.0829 -0.6119
 7039TIP3   OH245311   2.324   3.603  12.124 -0.0890  0.1607 -0.3654
 7039TIP3    H145312   2.388   3.539  12.153 -1.0113 -0.9910 -0.7876
 7039TIP3    H245313   2.267   3.555  12.064 -1.6756  0.9690  0.4193
 7040TIP3   OH245314   6.393   7.618  11.620 -0.5194 -0.3559 -0.1641
 7040TIP3    H145315   6.425   7.598  11.533  1.3772  0.2616  0.3446
 7040TIP3    H245316   6.377   7.712  11.620 -2.9196 -0.6809 -0.5284
 7041TIP3   OH245317   6.285   1.253  12.143 -0.3380  0.3283  0.1422
 7041TIP3    H145318   6.372   1.292  12.130 -0.0802  1.2130  3.5073
 7041TIP3    H245319   6.290   1.168  12.101  2.3895  0.1565  0.6332
 7042TIP3   OH245320   0.469   2.339  11.798 -0.9933  0.0685  0.7961
 7042TIP3    H145321   0.404   2.340  11.869  0.7396 -2.2785  2.6118
 7042TIP3    H245322   0.419   2.320  11.719 -2.8238  1.1887  1.6421
 7043TIP3   OH245323   3.033   8.396  11.814 -0.0604  0.0895 -0.4652
 7043TIP3    H145324   3.068   8.484  11.802 -0.3353  0.3480  0.5368
 7043TIP3    H245325   2.940   8.409  11.836  0.5118 -0.2273  2.6448
 7044TIP3   OH245326   4.527   6.676  11.522  0.6417 -0.0452  0.6015
 7044TIP3    H145327   4.537   6.585  11.550  1.6097  0.2494  1.2898
 7044TIP3    H245328   4.440   6.680  11.482 -0.1720 -0.8532  2.1984
 7045TIP3   OH245329   0.170   7.920  11.881 -0.4686 -0.3065  0.0988
 7045TIP3    H145330   0.077   7.935  11.867 -0.6765 -0.9847  0.7125
 7045TIP3    H245331   0.183   7.930  11.975  0.6008  2.4599 -0.2721
 7046TIP3   OH245332   7.865   7.772  11.514  0.2672 -0.2126 -0.7093
 7046TIP3    H145333   7.773   7.779  11.540  0.1111  1.8756 -1.6745
 7046TIP3    H245334   7.863   7.760  11.419  0.9954 -0.6699 -0.6786
 7047TIP3   OH245335   2.600   0.130  12.405 -0.2583 -0.1543  0.5139
 7047TIP3    H145336   2.688   0.153  12.374  0.1402  1.2105  2.4709
 7047TIP3    H245337   2.542   0.193  12.362 -0.0581  0.0428  0.5323
 7048TIP3   OH245338   1.232   0.195  11.673  0.2569  0.0801  0.0562
 7048TIP3    H145339   1.234   0.146  11.754 -2.1578 -0.1867  0.0287
 7048TIP3    H245340   1.300   0.262  11.684 -0.0606  0.1094  2.3162
 7049TIP3   OH245341   4.696   3.240  12.504  0.7221  0.2662 -0.7812
 7049TIP3    H145342   4.750   3.258  12.427 -1.5731 -1.2733 -2.8950
 7049TIP3    H245343   4.628   3.307  12.501 -1.0565 -1.4892 -1.8914
 7050TIP3   OH245344   1.765   7.449  11.695  0.1974  0.1155  0.0086
 7050TIP3    H145345   1.837   7.500  11.731 -0.7336  1.5254 -0.0809
 7050TIP3    H245346   1.796   7.358  11.697  0.4251  0.1447  3.8471
 7051TIP3   OH245347   1.506   5.451  12.702 -0.1737 -0.0752 -0.2183
 7051TIP3    H145348   1.556   5.379  12.741  0.7427  0.0372 -1.1428
 7051TIP3    H245349   1.540   5.530  12.743  0.3623 -0.0056 -0.7829
 7052TIP3   OH245350   4.600   4.959  12.792  0.2644 -0.8056  0.0593
 7052TIP3    H145351   4.665   4.890  12.807  0.5820 -0.5702 -0.2000
 7052TIP3    H245352   4.609   4.980  12.699 -1.3470 -1.9288 -0.4025
 7053TIP3   OH245353   7.857   2.319  12.125 -0.1454  0.0258 -0.2474
 7053TIP3    H145354   7.942   2.363  12.119 -0.1675  0.2196  0.6083
 7053TIP3    H245355   7.875   2.239  12.174 -0.7058  0.8861  1.4769
 7054TIP3   OH245356   5.360   3.882  12.126  0.8474 -0.3510 -0.7445
 7054TIP3    H145357   5.444   3.837  12.124  1.0622 -0.1030  0.9786
 7054TIP3    H245358   5.350   3.911  12.217 -1.0146 -0.1988 -0.9489
 7055TIP3   OH245359   5.404   6.087  12.106 -0.4417 -0.1052 -1.3507
 7055TIP3    H145360   5.468   6.017  12.091 -0.3113 -0.0503 -1.0648
 7055TIP3    H245361   5.328   6.042  12.143 -0.3312 -0.0886 -1.1005
 7056TIP3   OH245362   4.292   3.200  12.697 -0.3007 -0.1687 -0.6445
 7056TIP3    H145363   4.213   3.188  12.644 -1.5917 -1.4402  1.3956
 7056TIP3    H245364   4.346   3.124  12.676 -0.1416  0.0887 -1.1808
 7057TIP3   OH245365   2.615   7.639  12.261 -0.1530 -0.4508 -0.4752
 7057TIP3    H145366   2.701   7.599  12.264  0.9737  1.8678  0.3780
 7057TIP3    H245367   2.607   7.674  12.173 -0.3072 -0.7983 -0.6023
 7058TIP3   OH245368   3.536   2.163  11.859  0.0207 -0.2983 -0.8991
 7058TIP3    H145369   3.588   2.121  11.791  0.2884 -0.8920 -0.3466
 7058TIP3    H245370   3.462   2.103  11.873 -0.0043 -0.2073 -0.6354
 7059TIP3   OH245371   7.982   5.445  12.175 -0.1195 -0.6933 -0.1983
 7059TIP3    H145372   7.932   5.498  12.113 -0.6690 -1.1804 -0.1783
 7059TIP3    H245373   8.068   5.486  12.177 -0.3961 -0.0781 -0.5316
 7060TIP3   OH245374   3.107   6.938  12.718 -0.0572  0.4192 -0.6162
 7060TIP3    H145375   3.101   6.858  12.666 -0.4227  0.1214 -0.1223
 7060TIP3    H245376   3.189   6.929  12.766  1.4727  1.6983 -2.7516
 7061TIP3   OH245377   0.146   1.752  11.338 -0.3396 -0.2322  0.4266
 7061TIP3    H145378   0.111   1.680  11.389 -0.3449 -0.2022  0.4654
 7061TIP3    H245379   0.195   1.711  11.267  1.7375 -0.3000  1.8283
 7062TIP3   OH245380   6.862   6.743  11.856  0.0112 -0.2646 -0.0162
 7062TIP3    H145381   6.950   6.774  11.833 -1.6771  2.8661 -3.0505
 7062TIP3    H245382   6.828   6.810  11.915 -1.6740  0.6958 -2.0017
 7063TIP3   OH245383   5.312   7.427  12.891 -0.3193  0.5976  0.0150
 7063TIP3    H145384   5.285   7.501  12.837  1.7542  0.5267 -1.2220
 7063TIP3    H245385   5.315   7.353  12.830  1.8493  0.4710  0.2100
 7064TIP3   OH245386   6.442   1.287  13.450  0.4282 -0.3992  0.0726
 7064TIP3    H145387   6.467   1.315  13.362 -2.4748 -0.1036 -0.7618
 7064TIP3    H245388   6.423   1.194  13.441  1.5119 -0.7041  0.7628
 7065TIP3   OH245389   6.324   2.393  11.807  0.0682 -0.8158 -0.3389
 7065TIP3    H145390   6.281   2.314  11.773  0.9405 -1.3180 -0.2930
 7065TIP3    H245391   6.331   2.378  11.901 -2.2603  0.5350  0.1437
 7066TIP3   OH245392   8.262   3.341  11.931 -0.2599  0.1015  0.0638
 7066TIP3    H145393   8.189   3.325  11.991 -0.8947  1.3262 -0.3225
 7066TIP3    H245394   8.248   3.279  11.859 -1.9442  1.3776 -0.8218
 7067TIP3   OH245395   1.313   4.164  13.137  0.0093  0.7227 -0.0788
 7067TIP3    H145396   1.222   4.161  13.106  0.1212 -2.3866 -0.4551
 7067TIP3    H245397   1.306   4.189  13.229 -1.1395  1.2512 -0.2891
 7068TIP3   OH245398   2.097   1.149  13.749  0.3536 -0.1217  0.5283
 7068TIP3    H145399   2.075   1.242  13.763  0.6078  0.2019 -1.0499
 7068TIP3    H245400   2.189   1.143  13.771  0.0778 -0.2663  1.7248
 7069TIP3   OH245401   3.594   3.507  12.687  0.2301 -0.0016 -0.3893
 7069TIP3    H145402   3.555   3.475  12.606 -0.3269 -0.0285 -0.1145
 7069TIP3    H245403   3.604   3.602  12.673  0.2350 -0.0226 -0.5265
 7070TIP3   OH245404   6.747   4.756  12.178  0.5306 -0.3860  0.3837
 7070TIP3    H145405   6.756   4.763  12.083  1.6682  0.8109  0.5533
 7070TIP3    H245406   6.808   4.821  12.213  0.4582 -1.1146  1.9505
 7071TIP3   OH245407   5.211   7.700  13.396 -0.5419 -0.6452 -0.3694
 7071TIP3    H145408   5.176   7.611  13.400  2.7299 -2.1795 -2.0250
 7071TIP3    H245409   5.174   7.737  13.317 -1.5630 -0.6711  0.0814
 7072TIP3   OH245410   5.008   3.333  12.594 -0.2140 -0.1942 -0.3495
 7072TIP3    H145411   4.959   3.328  12.512 -0.2078 -3.0556 -0.2871
 7072TIP3    H245412   4.944   3.307  12.661  0.7394 -1.7543  0.0110
 7073TIP3   OH245413   2.899   7.372  12.569  0.5087 -0.3772  0.0829
 7073TIP3    H145414   2.913   7.448  12.625  0.5471 -0.0986 -0.2993
 7073TIP3    H245415   2.907   7.297  12.628  1.9337 -0.1631  0.2126
 7074TIP3   OH245416   6.645   4.039  12.091 -0.2707  0.0329 -0.5510
 7074TIP3    H145417   6.719   4.070  12.038 -1.6256  0.8413 -2.0472
 7074TIP3    H245418   6.567   4.073  12.047 -1.5253 -0.0062  1.5000
 7075TIP3   OH245419   3.782   5.059  13.724 -0.6826 -0.1498 -0.0788
 7075TIP3    H145420   3.830   5.013  13.793  2.1841 -0.1837 -1.9474
 7075TIP3    H245421   3.831   5.140  13.710 -2.6212  1.0290 -0.4518
 7076TIP3   OH245422   5.273   5.691  13.544  0.2955  0.3498 -0.0069
 7076TIP3    H145423   5.232   5.763  13.592 -1.2625 -0.3264 -0.2496
 7076TIP3    H245424   5.329   5.734  13.480  1.9941  1.2820  1.9795
 7077TIP3   OH245425   0.211   6.227  13.070 -0.3948  0.2184 -0.2035
 7077TIP3    H145426   0.153   6.259  13.001 -0.2060  1.3690  0.1479
 7077TIP3    H245427   0.162   6.156  13.111 -2.1879  2.0096  0.9507
 7078TIP3   OH245428   3.130   5.864  12.362  0.2359  1.2002  0.0253
 7078TIP3    H145429   3.109   5.914  12.283 -0.2884  2.3507  0.8628
 7078TIP3    H245430   3.064   5.891  12.426 -0.5980 -1.2466  0.2670
 7079TIP3   OH245431   3.698   1.534  11.804 -0.3157  0.2683 -0.0771
 7079TIP3    H145432   3.684   1.624  11.774 -1.1675 -0.1001 -0.8392
 7079TIP3    H245433   3.693   1.481  11.724 -0.5347 -0.5310  0.4503
 7080TIP3   OH245434   4.732   1.670  12.489  0.0049  0.2186 -0.5907
 7080TIP3    H145435   4.662   1.734  12.477  0.8854  1.0096 -1.6452
 7080TIP3    H245436   4.744   1.666  12.584 -0.5022  1.1331 -0.4719
 7081TIP3   OH245437   1.653   0.810  12.014  0.3281 -0.2322  0.2113
 7081TIP3    H145438   1.590   0.880  12.031 -0.9425 -0.8323 -1.6704
 7081TIP3    H245439   1.608   0.730  12.039  0.4748 -0.6374 -0.7467
 7082TIP3   OH245440   6.703   2.844  13.072 -0.4095  0.1718 -0.2953
 7082TIP3    H145441   6.771   2.867  13.009 -0.3376  0.0208 -0.2746
 7082TIP3    H245442   6.722   2.897  13.149  0.2608 -0.5704  0.0678
 7083TIP3   OH245443   2.094   3.471  12.466 -0.3214 -0.2053 -0.0253
 7083TIP3    H145444   2.182   3.436  12.457  0.1436  0.7761  0.5005
 7083TIP3    H245445   2.047   3.405  12.518  0.2821 -0.4293  0.2395
 7084TIP3   OH245446   1.862   4.519  12.945  0.0722  0.1307  0.4839
 7084TIP3    H145447   1.875   4.427  12.967  1.3670 -0.0896 -1.0366
 7084TIP3    H245448   1.883   4.525  12.852 -1.8372  1.6163  0.0751
 7085TIP3   OH245449   6.637   1.824  12.551  0.2244  0.1844  0.0684
 7085TIP3    H145450   6.675   1.812  12.638  0.6179  0.2472 -0.0916
 7085TIP3    H245451   6.653   1.916  12.530 -0.2885  0.2893  0.1250
 7086TIP3   OH245452   5.705   6.876  13.258  0.2296  0.0926 -0.0946
 7086TIP3    H145453   5.741   6.793  13.228 -0.4193 -0.4519  0.6078
 7086TIP3    H245454   5.612   6.871  13.238  0.3954  1.2632 -1.3837
 7087TIP3   OH245455   5.802   0.198  12.711 -0.6764  0.3962 -0.2886
 7087TIP3    H145456   5.759   0.230  12.631 -1.8577  1.2466  0.6477
 7087TIP3    H245457   5.831   0.277  12.755  1.5212 -0.1382 -0.6573
 7088TIP3   OH245458   7.448   2.771  11.711 -0.1404  0.4795  0.1085
 7088TIP3    H145459   7.503   2.700  11.678  0.3397  0.2587  1.3358
 7088TIP3    H245460   7.364   2.759  11.666  0.7024  0.6726 -1.5945
 7089TIP3   OH245461   1.546   0.565  12.886 -0.3403 -0.3541 -0.5840
 7089TIP3    H145462   1.466   0.589  12.933  0.8435 -0.0364  1.4117
 7089TIP3    H245463   1.605   0.639  12.901  1.1792 -1.6523  0.2028
 7090TIP3   OH245464   7.040   4.579  12.254  0.0951 -0.5648  0.1253
 7090TIP3    H145465   7.010   4.488  12.263  0.1297 -0.5738  0.1533
 7090TIP3    H245466   7.014   4.621  12.335  0.9569 -0.8044  0.5375
 7091TIP3   OH245467   3.740   0.762  13.573 -0.0363 -0.0227 -0.3704
 7091TIP3    H145468   3.756   0.731  13.484  3.1376 -0.4206  0.2363
 7091TIP3    H245469   3.645   0.777  13.576 -0.5649 -1.9742 -3.1509
 7092TIP3   OH245470   6.924   0.541  12.641 -0.2233 -0.1932 -0.4207
 7092TIP3    H145471   6.968   0.526  12.557 -0.2617 -0.0980 -0.4571
 7092TIP3    H245472   6.860   0.609  12.623  0.7629  0.8982  0.0025
 7093TIP3   OH245473   5.550   5.001  12.815  0.2075 -0.2734 -0.3966
 7093TIP3    H145474   5.567   4.916  12.775 -0.1913  0.0311 -1.2402
 7093TIP3    H245475   5.628   5.019  12.868  1.6950  0.1958 -2.5847
 7094TIP3   OH245476   5.696   1.688  13.018  0.2485  0.2883 -0.1721
 7094TIP3    H145477   5.688   1.695  13.113 -0.8351  0.0070 -0.2399
 7094TIP3    H245478   5.635   1.620  12.993  2.2752 -1.4030 -0.8202
 7095TIP3   OH245479   3.851   6.933  11.823  0.1065 -0.2805 -0.0988
 7095TIP3    H145480   3.901   6.888  11.891 -1.1471 -2.1567 -0.3400
 7095TIP3    H245481   3.765   6.950  11.862 -0.4591 -0.9261 -1.0051
 7096TIP3   OH245482   4.321   3.736  13.467  0.2134  0.0430 -0.2306
 7096TIP3    H145483   4.324   3.832  13.457  0.5037  0.0785  0.1647
 7096TIP3    H245484   4.279   3.705  13.387 -1.7461  0.6482  0.4978
 7097TIP3   OH245485   7.159   1.081  11.565  0.8421  0.4075  0.4260
 7097TIP3    H145486   7.081   1.058  11.615  0.2364 -0.1329 -0.7558
 7097TIP3    H245487   7.210   1.000  11.560  0.9413  0.4803  0.2304
 7098TIP3   OH245488   7.845   2.356  11.747 -0.0809 -0.5292  0.4201
 7098TIP3    H145489   7.773   2.341  11.809 -1.4255  2.0334 -0.3459
 7098TIP3    H245490   7.805   2.340  11.661  0.7576 -0.7465  0.0690
 7099TIP3   OH245491   7.038   0.829  13.272 -0.0322  0.1370 -0.7087
 7099TIP3    H145492   7.122   0.861  13.304  0.1899 -1.0602 -0.0563
 7099TIP3    H245493   7.046   0.734  13.273 -1.1239  0.0191 -1.3886
 7100TIP3   OH245494   2.132   2.391  12.976  0.3909 -0.0662 -0.6566
 7100TIP3    H145495   2.219   2.385  12.937 -0.3837 -2.4038 -2.2423
 7100TIP3    H245496   2.084   2.449  12.918  0.3780 -0.2650 -0.8453
 7101TIP3   OH245497   0.193   1.237  11.889 -0.1560 -0.0278  0.5248
 7101TIP3    H145498   0.196   1.238  11.984 -1.0817 -2.2558  0.6552
 7101TIP3    H245499   0.207   1.145  11.865 -1.1113  0.2589 -1.4060
 7102TIP3   OH245500   0.845   4.058  12.253  0.2497  0.4271 -0.0348
 7102TIP3    H145501   0.830   4.120  12.324  1.4919  1.5594 -0.7227
 7102TIP3    H245502   0.936   4.030  12.263  0.3381  0.3314 -0.9683
 7103TIP3   OH245503   6.967   3.200  11.368  0.6603 -0.5272  0.1863
 7103TIP3    H145504   6.901   3.146  11.411  1.1407  0.1575  1.8386
 7103TIP3    H245505   6.995   3.147  11.292  0.1117 -1.9679  0.9434
 7104TIP3   OH245506   7.946   6.378  11.612 -0.4134 -0.1922  0.3539
 7104TIP3    H145507   8.042   6.380  11.609 -0.4407  0.1807 -0.6568
 7104TIP3    H245508   7.920   6.468  11.592 -0.9970 -0.9057 -2.6357
 7105TIP3   OH245509   4.979   6.809  12.579  0.0180  0.5660 -0.2106
 7105TIP3    H145510   5.054   6.773  12.532  0.0335  1.0284 -0.5530
 7105TIP3    H245511   4.960   6.745  12.648 -0.8744 -0.8105 -1.6767
 7106TIP3   OH245512   1.800   3.121  12.156  0.1656 -0.0077  0.2530
 7106TIP3    H145513   1.770   3.075  12.077  0.9826  1.3646 -0.9128
 7106TIP3    H245514   1.747   3.201  12.159  0.7882  0.4077  0.5433
 7107TIP3   OH245515   3.135   2.115  12.023  0.3697  0.1237  0.8388
 7107TIP3    H145516   3.049   2.150  11.998 -0.5036 -1.6361  1.1820
 7107TIP3    H245517   3.191   2.131  11.947 -0.5834  0.2910  0.1514
 7108TIP3   OH245518   8.131   4.280  13.046  0.3821 -0.3618  0.5163
 7108TIP3    H145519   8.100   4.204  13.094  0.0220  1.1337  2.8021
 7108TIP3    H245520   8.103   4.265  12.956 -0.3857 -2.5256  1.0628
 7109TIP3   OH245521   2.756   1.963  11.919 -0.3503 -0.5153 -0.0467
 7109TIP3    H145522   2.824   2.020  11.955 -0.5846 -0.7278  0.7612
 7109TIP3    H245523   2.755   1.983  11.826  1.5759 -1.2888 -0.2912
 7110TIP3   OH245524   5.831   1.026  11.965  0.3941  0.5728 -1.0338
 7110TIP3    H145525   5.771   1.076  11.910  0.5332  0.1986 -1.5350
 7110TIP3    H245526   5.890   0.983  11.903  0.6697  0.2926 -0.5820
 7111TIP3   OH245527   1.647   3.447  12.936 -0.9219 -0.0808  0.9016
 7111TIP3    H145528   1.570   3.472  12.988 -0.9854  0.3687  0.6065
 7111TIP3    H245529   1.722   3.469  12.991 -0.9695 -3.1324  2.3836
 7112TIP3   OH245530   4.618   2.458  12.144 -0.1091 -0.0530  0.1156
 7112TIP3    H145531   4.525   2.455  12.124 -0.1586  1.0574  0.1195
 7112TIP3    H245532   4.628   2.534  12.201  0.6071 -0.9288  1.2176
 7113TIP3   OH245533   0.053   2.552  12.530  0.1408 -0.0487  0.3237
 7113TIP3    H145534   0.005   2.524  12.608  1.2579  1.5890  1.6851
 7113TIP3    H245535   0.077   2.470  12.485 -2.2283 -0.9574  0.5798
 7114TIP3   OH245536   5.210   1.596  13.125  0.0518 -0.0175 -0.3373
 7114TIP3    H145537   5.205   1.687  13.096  1.2786  0.2339  0.1866
 7114TIP3    H245538   5.119   1.565  13.122 -0.2494  0.8849 -1.5436
 7115TIP3   OH245539   4.058   4.580  11.866  0.0720  0.3515 -0.1209
 7115TIP3    H145540   3.971   4.619  11.861  0.1445  0.5724  0.3435
 7115TIP3    H245541   4.110   4.642  11.917  0.6888  0.5571 -0.9616
 7116TIP3   OH245542   5.620   0.273  11.970  0.2352  0.5320 -0.3819
 7116TIP3    H145543   5.563   0.257  11.894  1.8034  0.7290 -1.6406
 7116TIP3    H245544   5.679   0.198  11.971  1.4644  1.4786 -0.5219
 7117TIP3   OH245545   8.205   0.949  11.800 -0.1128 -0.1335  0.2106
 7117TIP3    H145546   8.173   1.006  11.870 -1.4483 -0.6654  0.0705
 7117TIP3    H245547   8.126   0.924  11.752  0.5362 -1.4814 -0.1986
 7118TIP3   OH245548   5.292   7.803  13.634  0.2389  0.1357 -0.0811
 7118TIP3    H145549   5.263   7.767  13.550  2.8796  2.0333 -1.9401
 7118TIP3    H245550   5.343   7.732  13.674 -0.4152 -0.5267 -0.3953
 7119TIP3   OH245551   3.182   0.966  13.931  0.2629  0.3022 -0.0557
 7119TIP3    H145552   3.178   0.910  14.008 -0.9280 -0.8702 -0.9128
 7119TIP3    H245553   3.264   0.942  13.888 -0.3662 -1.0359 -0.5633
 7120TIP3   OH245554   3.901   3.827  12.583  0.4572 -0.4467  0.4123
 7120TIP3    H145555   3.833   3.760  12.581 -0.7293  0.6874  1.5014
 7120TIP3    H245556   3.941   3.819  12.670 -0.6847  1.1672  1.1302
 7121TIP3   OH245557   7.065   7.560  12.182  0.5169 -0.1447  0.7585
 7121TIP3    H145558   6.976   7.533  12.160  0.4094  1.2048 -0.5693
 7121TIP3    H245559   7.054   7.630  12.246  0.6041  0.4020  0.1762
 7122TIP3   OH245560   5.677   1.146  12.387 -0.0653  0.1383 -0.2140
 7122TIP3    H145561   5.655   1.089  12.313 -0.1921  2.3457 -2.0058
 7122TIP3    H245562   5.772   1.158  12.381 -0.0420  0.1429  0.1446
 7123TIP3   OH245563   4.096   0.948  13.204  0.0767  0.2981  0.2345
 7123TIP3    H145564   4.091   0.921  13.112  0.0106  1.6299 -0.1756
 7123TIP3    H245565   4.179   0.912  13.235  0.0807 -0.1900 -0.3297
 7124TIP3   OH245566   6.301   7.774  13.545 -0.1202 -0.7652 -0.5198
 7124TIP3    H145567   6.276   7.826  13.621 -0.3081  0.4242 -1.3582
 7124TIP3    H245568   6.372   7.718  13.576 -0.2852 -0.3983  0.5593
 7125TIP3   OH245569   7.040   2.311  12.349  0.6423  0.2886  0.2600
 7125TIP3    H145570   7.077   2.396  12.325 -0.7759  0.4587 -1.5396
 7125TIP3    H245571   7.102   2.247  12.314  0.4474  0.5887 -0.6572
 7126TIP3   OH245572   7.910   4.066  12.417 -0.3620  0.4127  0.2829
 7126TIP3    H145573   7.901   4.049  12.510  0.7620  1.3353  0.5867
 7126TIP3    H245574   7.970   3.998  12.386 -1.8924 -0.8238 -0.1118
 7127TIP3   OH245575   0.563   0.618  12.424  0.3010  0.1438  0.2501
 7127TIP3    H145576   0.547   0.531  12.460  0.1742  0.4025  0.8356
 7127TIP3    H245577   0.578   0.604  12.331  1.2837 -0.6191  0.5125
 7128TIP3   OH245578   6.097   5.602  11.618  0.0752  0.6498  0.4709
 7128TIP3    H145579   6.192   5.593  11.627 -0.2427 -1.6560  2.6554
 7128TIP3    H245580   6.084   5.692  11.588  2.9781  0.5843 -1.3822
 7129TIP3   OH245581   4.612   6.232  12.588 -0.2216  0.1766 -0.4296
 7129TIP3    H145582   4.562   6.151  12.578 -0.1547  0.1899 -0.8972
 7129TIP3    H245583   4.633   6.258  12.498  1.3119 -0.2505 -0.2215
 7130TIP3   OH245584   1.599   1.481  12.460 -0.3226 -0.2947  0.2673
 7130TIP3    H145585   1.607   1.512  12.550  0.7654 -1.5746  0.6442
 7130TIP3    H245586   1.531   1.415  12.463  0.3467 -0.9900  0.3483
 7131TIP3   OH245587   0.501   2.463  13.408  0.0989 -0.2712  0.0326
 7131TIP3    H145588   0.469   2.550  13.384 -0.3883 -0.5915 -0.5278
 7131TIP3    H245589   0.526   2.423  13.324  0.9643 -0.4238  0.3526
 7132TIP3   OH245590   2.882   7.544  11.999 -0.0851 -0.0223  0.6131
 7132TIP3    H145591   2.883   7.558  12.094  1.7107 -0.2583  0.6687
 7132TIP3    H245592   2.903   7.629  11.961 -0.9008  0.0956  0.4032
 7133TIP3   OH245593   3.331   7.312  13.309  0.1063  0.6489 -0.5943
 7133TIP3    H145594   3.424   7.302  13.332 -0.4271 -1.3286  0.9813
 7133TIP3    H245595   3.313   7.235  13.254 -0.4776  1.3843 -1.4656
 7134TIP3   OH245596   4.975   7.201  13.336  0.1858 -0.1658 -0.1242
 7134TIP3    H145597   4.905   7.158  13.385 -0.0337  1.7932  1.4145
 7134TIP3    H245598   4.942   7.206  13.246 -0.7101 -1.1739  0.1254
 7135TIP3   OH245599   1.798   0.745  13.800  1.0833  0.8849  0.1209
 7135TIP3    H145600   1.854   0.814  13.763  0.7556  0.5221 -1.1078
 7135TIP3    H245601   1.713   0.758  13.756  0.8963 -0.0225  0.1992
 7136TIP3   OH245602   6.517   5.090  13.416  0.1741  0.3350  0.1869
 7136TIP3    H145603   6.555   5.170  13.378  0.5116 -0.9652 -2.4317
 7136TIP3    H245604   6.461   5.122  13.487  0.9593  2.8204 -0.1947
 7137TIP3   OH245605   6.800   1.539  13.592  0.1621 -0.4434 -0.6330
 7137TIP3    H145606   6.813   1.518  13.499 -4.0947  0.5554 -1.6341
 7137TIP3    H245607   6.760   1.461  13.629 -1.7791  0.4720 -0.6874
 7138TIP3   OH245608   3.914   7.547  12.832  0.2989  0.3113  0.2171
 7138TIP3    H145609   3.919   7.600  12.753  1.8338 -0.5300 -0.2777
 7138TIP3    H245610   3.910   7.457  12.801  1.9915 -0.0971  1.0881
 7139TIP3   OH245611   3.999   2.773  12.747  0.1049  0.2423  0.5410
 7139TIP3    H145612   4.075   2.781  12.804  0.7101  0.5714 -0.3012
 7139TIP3    H245613   3.948   2.853  12.763 -0.4599 -0.3186  1.6488
 7140TIP3   OH245614   7.074   0.202  12.425  0.0586  0.7673  0.2030
 7140TIP3    H145615   7.007   0.143  12.391  0.8580 -0.1009  0.0877
 7140TIP3    H245616   7.097   0.257  12.350  0.9101 -0.2963 -0.3367
 7141TIP3   OH245617   6.103   6.122  13.596 -0.3482 -0.1586 -0.2511
 7141TIP3    H145618   6.179   6.175  13.622 -0.3750 -0.8123  1.2346
 7141TIP3    H245619   6.045   6.125  13.672 -0.9803 -1.1936 -0.6802
 7142TIP3   OH245620   1.332   3.737  12.094 -0.3317  0.3977 -0.0794
 7142TIP3    H145621   1.263   3.700  12.149 -0.0757  0.6432  0.4187
 7142TIP3    H245622   1.389   3.784  12.155 -0.1379  0.8289 -0.5800
 7143TIP3   OH245623   3.094   3.420  13.021  0.1951 -0.4511 -0.6377
 7143TIP3    H145624   3.131   3.506  13.000 -0.4719 -0.1338 -0.5417
 7143TIP3    H245625   3.069   3.383  12.936 -0.7638  0.0343 -0.5860
 7144TIP3   OH245626   7.233   7.483  12.969 -0.0798 -0.4793  0.1359
 7144TIP3    H145627   7.155   7.430  12.954 -0.8347  0.1711  1.5776
 7144TIP3    H245628   7.255   7.519  12.883 -1.4962 -0.5110 -0.2629
 7145TIP3   OH245629   6.062   4.096  11.454 -0.5278 -0.3083  0.1804
 7145TIP3    H145630   6.078   4.190  11.457  0.1337 -0.0921 -3.7657
 7145TIP3    H245631   5.975   4.085  11.491 -1.1273  2.0534 -0.3713
 7146TIP3   OH245632   3.179   3.620  11.753  0.1780  0.1591 -0.2671
 7146TIP3    H145633   3.274   3.610  11.750  0.0414 -1.1642 -2.2309
 7146TIP3    H245634   3.160   3.691  11.692 -0.0925  0.7014  0.4332
 7147TIP3   OH245635   2.313   1.533  13.572  0.0500  0.1882  0.3810
 7147TIP3    H145636   2.312   1.598  13.642 -0.5989 -1.2449  1.7822
 7147TIP3    H245637   2.223   1.530  13.541  0.0283 -0.1796  0.4744
 7148TIP3   OH245638   1.294   1.086  13.006  0.0078  0.2001  0.5758
 7148TIP3    H145639   1.318   1.080  13.098  0.8442 -1.4608  0.2902
 7148TIP3    H245640   1.338   1.165  12.975  0.2254  0.4322  1.4472
 7149TIP3   OH245641   7.363   6.500  13.043  0.5670  0.3528 -0.0554
 7149TIP3    H145642   7.336   6.591  13.052  1.7118  0.8432 -1.3173
 7149TIP3    H245643   7.312   6.468  12.968 -1.0262 -0.5641  1.3397
 7150TIP3   OH245644   7.973   6.558  13.516 -0.5297 -0.1852 -0.1413
 7150TIP3    H145645   7.879   6.541  13.507 -0.7298  0.5035  0.5771
 7150TIP3    H245646   7.992   6.539  13.607  0.2628 -1.3524 -0.5251
 7151TIP3   OH245647   3.133   4.863  12.277 -0.0896  0.0211  0.4169
 7151TIP3    H145648   3.112   4.783  12.325 -1.1403  0.4784  0.7836
 7151TIP3    H245649   3.135   4.837  12.185  0.5873 -0.6144  0.6075
 7152TIP3   OH245650   7.460   4.204  13.005  0.7633  0.0338 -0.0772
 7152TIP3    H145651   7.371   4.222  13.033  0.7960  2.1135 -1.1383
 7152TIP3    H245652   7.501   4.160  13.080 -1.1499 -1.0639  0.3736
 7153TIP3   OH245653   1.160   0.574  12.855 -0.4955  0.1662  0.0605
 7153TIP3    H145654   1.116   0.577  12.770 -1.0771 -0.5700  0.3142
 7153TIP3    H245655   1.133   0.654  12.899  1.5124  1.6355 -1.2201
 7154TIP3   OH245656   4.024   0.155  13.087 -0.4369 -0.9371 -1.0950
 7154TIP3    H145657   3.996   0.067  13.060 -1.1317 -0.8081 -0.8220
 7154TIP3    H245658   3.945   0.194  13.125  0.1275 -0.5473 -0.3214
 7155TIP3   OH245659   6.127   1.858  12.847 -0.0839 -0.0035 -0.1349
 7155TIP3    H145660   6.209   1.860  12.897  0.2532  0.2393 -0.6929
 7155TIP3    H245661   6.137   1.927  12.781 -1.8257  1.9404  1.4656
 7156TIP3   OH245662   6.474   7.352  12.775 -0.0073 -0.0517  0.2276
 7156TIP3    H145663   6.401   7.393  12.822 -1.3057 -0.5563 -1.2837
 7156TIP3    H245664   6.489   7.409  12.700  3.0592  1.5900  1.8728
 7157TIP3   OH245665   6.962   0.910  12.065  0.0668 -0.4070  0.4274
 7157TIP3    H145666   6.944   1.001  12.089 -1.4637 -0.7221  0.5331
 7157TIP3    H245667   6.881   0.863  12.085  0.5357 -1.6394 -0.4664
 7158TIP3   OH245668   4.277   8.128  12.646  0.0185  0.1586  0.5339
 7158TIP3    H145669   4.190   8.090  12.642  0.6745 -1.6117  1.9451
 7158TIP3    H245670   4.331   8.073  12.589  0.7364 -0.3488  1.6715
 7159TIP3   OH245671   6.740   7.103  11.562  0.1454 -0.1975  0.2512
 7159TIP3    H145672   6.749   7.096  11.657  0.6272 -2.1148  0.1024
 7159TIP3    H245673   6.651   7.073  11.544  0.0503  0.1732  0.0870
 7160TIP3   OH245674   4.247   0.470  12.488 -0.1730 -0.6759 -0.4415
 7160TIP3    H145675   4.156   0.475  12.517 -0.2999 -0.3747 -0.8894
 7160TIP3    H245676   4.297   0.505  12.561 -0.4384 -0.5655 -0.3104
 7161TIP3   OH245677   5.954   6.976  11.670 -0.0166  0.0751 -0.1581
 7161TIP3    H145678   5.933   7.069  11.658 -0.0929 -0.1380 -2.0254
 7161TIP3    H245679   5.947   6.962  11.764  0.3823  2.0488  0.2250
 7162TIP3   OH245680   0.755   0.590  12.675  0.1888  0.3002  0.0042
 7162TIP3    H145681   0.719   0.591  12.764 -0.7228 -1.3570 -0.2934
 7162TIP3    H245682   0.690   0.542  12.624  1.8262 -0.8971 -1.0510
 7163TIP3   OH245683   4.112   5.135  12.959  0.2840 -0.0829  0.0189
 7163TIP3    H145684   4.135   5.226  12.978  2.3052 -0.1122 -1.8901
 7163TIP3    H245685   4.146   5.085  13.034 -0.9081  0.7033  1.1136
 7164TIP3   OH245686   3.796   5.966  12.473  0.7718  0.0539  0.1932
 7164TIP3    H145687   3.718   5.972  12.418  0.9021  0.1303  0.0176
 7164TIP3    H245688   3.866   5.939  12.413  1.2626  1.6445  0.0041
 7165TIP3   OH245689   0.474   1.951  13.466  0.2909  0.0857  0.0165
 7165TIP3    H145690   0.444   2.021  13.408 -2.0256 -0.2198  0.7402
 7165TIP3    H245691   0.423   1.875  13.440 -0.4325 -0.1884  2.0821
 7166TIP3   OH245692   1.192   0.878  12.052  0.3113  0.1927  0.0897
 7166TIP3    H145693   1.142   0.958  12.038 -0.8585 -0.6000 -0.5152
 7166TIP3    H245694   1.186   0.861  12.146  0.5698  0.8081  0.2209
 7167TIP3   OH245695   6.872   8.232  13.178  0.7404  0.0980  0.3947
 7167TIP3    H145696   6.886   8.158  13.238  1.0345 -0.5826 -0.4840
 7167TIP3    H245697   6.781   8.223  13.149  1.8472 -2.5498 -3.0055
 7168TIP3   OH245698   2.020   8.298  11.532 -1.0196  0.4358  0.1569
 7168TIP3    H145699   1.995   8.343  11.613 -1.0866  0.6822 -0.0004
 7168TIP3    H245700   2.110   8.325  11.516 -0.8933  0.1220  0.3302
 7169TIP3   OH245701   4.989   6.517  13.050  0.1631  0.4723 -0.5282
 7169TIP3    H145702   4.918   6.455  13.067 -0.5346  1.0537 -1.2112
 7169TIP3    H245703   5.020   6.543  13.136  0.1921 -0.5070 -0.2297
 7170TIP3   OH245704   2.212   7.683  13.339 -0.0690 -0.5946  0.5251
 7170TIP3    H145705   2.187   7.773  13.358 -0.4258 -0.6802  0.4791
 7170TIP3    H245706   2.216   7.678  13.244  1.2208 -0.2966  0.5534
 7171TIP3   OH245707   0.616   0.526  13.647  0.1684  0.6786 -0.5675
 7171TIP3    H145708   0.571   0.450  13.610  0.1618 -0.0648  0.8998
 7171TIP3    H245709   0.699   0.491  13.680 -0.0920  1.1697  0.6532
 7172TIP3   OH245710   1.747   6.952  12.891 -0.5369  0.1541 -0.0260
 7172TIP3    H145711   1.780   7.035  12.856 -0.1626 -0.2542 -0.6508
 7172TIP3    H245712   1.822   6.892  12.884 -0.6859 -0.1330  0.7879
 7173TIP3   OH245713   4.175   7.421  12.007  0.5354  0.3671  0.8320
 7173TIP3    H145714   4.130   7.495  11.966  1.9075  0.1877 -1.1448
 7173TIP3    H245715   4.250   7.461  12.051  2.2884  0.0980 -1.7166
 7174TIP3   OH245716   3.828   2.719  12.081  0.6049 -0.1557 -0.1008
 7174TIP3    H145717   3.744   2.751  12.116  0.4694 -0.8299  0.2127
 7174TIP3    H245718   3.807   2.690  11.993  1.0050  1.8033 -0.8749
 7175TIP3   OH245719   7.601   7.758  11.550  0.5003  0.3868  0.0880
 7175TIP3    H145720   7.506   7.747  11.546  0.3654  1.6953 -0.6787
 7175TIP3    H245721   7.628   7.707  11.627 -1.0152  1.3897  1.3268
 7176TIP3   OH245722   2.226   5.700  11.561 -0.4421 -0.4411 -0.2389
 7176TIP3    H145723   2.177   5.753  11.624 -0.7178  0.1333 -0.9290
 7176TIP3    H245724   2.173   5.701  11.482  0.4633 -0.1781 -0.8551
 7177TIP3   OH245725   0.616   2.843  12.619  0.6228 -0.6844  0.3505
 7177TIP3    H145726   0.673   2.878  12.687  2.1257 -1.1611 -0.6169
 7177TIP3    H245727   0.593   2.755  12.649 -1.4572  0.2696  1.7847
 7178TIP3   OH245728   1.247   1.534  12.408  0.4512 -0.4801  0.2645
 7178TIP3    H145729   1.224   1.575  12.491 -1.3733 -3.4667  1.3614
 7178TIP3    H245730   1.291   1.453  12.432  0.1261 -1.2894 -1.6874
 7179TIP3   OH245731   3.614   0.590  13.254  0.0058 -0.1422 -0.0683
 7179TIP3    H145732   3.543   0.526  13.242 -1.7253  1.7499 -0.3632
 7179TIP3    H245733   3.576   0.674  13.229  0.9110  1.7070  3.9681
 7180TIP3   OH245734   8.409   8.307  12.733  0.1775  0.1915  0.0635
 7180TIP3    H145735   8.440   8.397  12.743 -0.4279  0.3598  0.5380
 7180TIP3    H245736   8.380   8.282  12.821 -1.7733  0.3483 -0.4752
 7181TIP3   OH245737   0.628   7.068  12.844 -0.6726  0.5435 -0.1775
 7181TIP3    H145738   0.635   7.154  12.804 -2.0891  0.3117 -0.9726
 7181TIP3    H245739   0.708   7.059  12.896 -0.9918  2.7431  0.7658
 7182TIP3   OH245740   5.084   3.493  12.157  0.2763  0.4328 -0.6354
 7182TIP3    H145741   5.149   3.431  12.188  0.0411  1.7176  2.8847
 7182TIP3    H245742   5.122   3.531  12.078  3.2251  0.2311  0.5671
 7183TIP3   OH245743   4.883   4.560  12.573  0.1337 -0.7740 -0.6109
 7183TIP3    H145744   4.875   4.516  12.488 -0.5900 -1.2590 -0.2969
 7183TIP3    H245745   4.944   4.506  12.622  0.1800 -0.7588 -0.6517
 7184TIP3   OH245746   4.714   0.531  12.808  0.0046  0.0000  0.3614
 7184TIP3    H145747   4.756   0.613  12.834 -0.0347  0.1688 -0.0971
 7184TIP3    H245748   4.773   0.462  12.840 -0.1629  0.1940  1.0945
 7185TIP3   OH245749   2.797   2.239  13.987  0.0738  0.1277 -0.0047
 7185TIP3    H145750   2.869   2.177  13.971  0.4593  0.5549  0.0448
 7185TIP3    H245751   2.829   2.322  13.951 -1.5906 -0.3216 -2.8280
 7186TIP3   OH245752   6.361   0.179  12.257  0.3336  0.5195  0.6214
 7186TIP3    H145753   6.446   0.222  12.242  1.0031 -1.6058 -2.6263
 7186TIP3    H245754   6.298   0.237  12.214  0.6624  0.2824 -0.1924
 7187TIP3   OH245755   7.495   8.274  11.701 -0.1384 -0.0724 -0.2929
 7187TIP3    H145756   7.493   8.284  11.605 -0.6181 -1.4169 -0.4338
 7187TIP3    H245757   7.588   8.279  11.723  0.0928 -1.0996 -0.9852
 7188TIP3   OH245758   1.578   4.284  12.241  0.3525 -0.4577  0.6033
 7188TIP3    H145759   1.630   4.309  12.317 -0.7923 -0.5320  1.4494
 7188TIP3    H245760   1.638   4.235  12.185  1.1307 -0.7171  1.6394
 7189TIP3   OH245761   3.823   6.842  11.572  0.4191  0.0777 -0.0975
 7189TIP3    H145762   3.857   6.890  11.647 -2.3386  0.6587  0.9075
 7189TIP3    H245763   3.742   6.802  11.603 -0.1210 -0.8000 -2.3936
 7190TIP3   OH245764   5.927   3.133  11.912 -0.6190  0.2549 -0.1414
 7190TIP3    H145765   5.850   3.190  11.907 -1.3432 -0.6511  0.3374
 7190TIP3    H245766   5.970   3.159  11.993 -1.0391  0.0256  0.1609
 7191TIP3   OH245767   4.840   5.848  12.382 -0.0287  0.1927  0.2675
 7191TIP3    H145768   4.793   5.886  12.309 -0.5739  0.6480  0.8448
 7191TIP3    H245769   4.863   5.760  12.353  1.7137  1.1019 -1.2858
 7192TIP3   OH245770   1.770   7.837  12.516 -0.3399 -0.4229 -0.2175
 7192TIP3    H145771   1.797   7.746  12.502 -0.0468 -0.2011 -1.1754
 7192TIP3    H245772   1.848   7.888  12.493  1.2295 -0.0188  4.7003
 7193TIP3   OH245773   4.777   1.952  11.945 -0.4494 -0.0973  0.3574
 7193TIP3    H145774   4.753   2.031  11.994  2.9205  0.2692  1.7560
 7193TIP3    H245775   4.726   1.882  11.986 -0.4314  0.7823  1.9923
 7194TIP3   OH245776   8.159   5.826  12.470  0.9732 -0.0955 -0.0254
 7194TIP3    H145777   8.109   5.841  12.390  2.1036 -0.7172 -0.8811
 7194TIP3    H245778   8.204   5.743  12.456 -0.3148 -1.2511  2.0785
 7195TIP3   OH245779   1.605   3.995  12.030 -0.3131  0.1459  0.2962
 7195TIP3    H145780   1.539   3.967  12.093  0.9418  0.5599  1.8542
 7195TIP3    H245781   1.675   4.033  12.083  0.9823  0.1524 -1.3241
 7196TIP3   OH245782   1.631   0.220  12.240 -0.2229 -0.1994  0.1816
 7196TIP3    H145783   1.571   0.279  12.285 -0.1545  0.4548 -0.5704
 7196TIP3    H245784   1.691   0.189  12.308  1.3809  2.5975  0.1720
 7197TIP3   OH245785   6.277   6.322  11.762  0.0412 -0.1183  0.3278
 7197TIP3    H145786   6.183   6.320  11.777  0.0555 -2.3869  0.3933
 7197TIP3    H245787   6.286   6.324  11.667 -0.0745 -0.3096  0.3131
 7198TIP3   OH245788   0.599   7.745  11.728  0.5355  0.3641 -0.2212
 7198TIP3    H145789   0.584   7.694  11.808 -1.5663  1.7032  0.3071
 7198TIP3    H245790   0.692   7.731  11.708  1.5396  1.1022  3.2372
 7199TIP3   OH245791   6.004   0.338  13.898 -0.2446  0.3090 -0.1853
 7199TIP3    H145792   6.084   0.390  13.893 -0.1157  0.3118  1.3499
 7199TIP3    H245793   5.933   0.402  13.899 -0.3141  0.3010 -1.7388
 7200TIP3   OH245794   4.812   0.787  12.871 -0.0824  0.0915  0.3472
 7200TIP3    H145795   4.771   0.847  12.809 -1.1570 -1.2807 -0.3146
 7200TIP3    H245796   4.767   0.802  12.953 -0.5770 -0.0288  0.1001
 7201TIP3   OH245797   5.444   8.095  12.951  0.4135  0.3569 -0.0373
 7201TIP3    H145798   5.358   8.070  12.984 -0.0792  0.2703 -1.3420
 7201TIP3    H245799   5.491   8.125  13.029 -1.0009  1.0316  0.5937
 7202TIP3   OH245800   1.089   5.926  11.879  0.1963 -0.5111 -0.4811
 7202TIP3    H145801   1.095   5.948  11.786 -0.7515  0.2853 -0.3740
 7202TIP3    H245802   0.999   5.948  11.903  0.7606  0.4695  0.9078
 7203TIP3   OH245803   0.577   3.803  13.406  0.4683  0.1163  0.1470
 7203TIP3    H145804   0.528   3.722  13.415 -0.6298  0.9442  2.3372
 7203TIP3    H245805   0.568   3.827  13.314  0.7570 -2.1430 -0.5445
 7204TIP3   OH245806   3.024   4.173  12.472 -0.5715  0.2052 -0.1778
 7204TIP3    H145807   3.089   4.243  12.467 -1.6285  1.1978 -0.5789
 7204TIP3    H245808   3.042   4.118  12.397 -0.1189  0.4036 -0.2169
 7205TIP3   OH245809   6.252   2.150  12.954  0.2040 -0.3883 -0.8615
 7205TIP3    H145810   6.219   2.153  12.865 -1.8331  0.0293 -0.1374
 7205TIP3    H245811   6.305   2.230  12.963 -1.0968  0.5506 -1.1756
 7206TIP3   OH245812   1.918   6.776  12.167 -0.1235 -0.0683 -0.0107
 7206TIP3    H145813   1.902   6.682  12.180 -0.8020  0.0777  0.2438
 7206TIP3    H245814   1.986   6.780  12.100  1.2512 -0.7905  1.2720
 7207TIP3   OH245815   5.253   5.423  12.186 -0.1020  0.3025 -0.1306
 7207TIP3    H145816   5.316   5.365  12.227  0.1027 -1.1605 -2.3331
 7207TIP3    H245817   5.307   5.486  12.138 -0.3435  1.1852  0.7135
 7208TIP3   OH245818   6.290   1.990  12.165 -0.1166  0.6830 -0.5448
 7208TIP3    H145819   6.318   1.943  12.086  1.0614  0.4863 -0.0299
 7208TIP3    H245820   6.274   2.079  12.134  2.4115  1.1816 -0.6894
 7209TIP3   OH245821   5.849   7.312  12.423  0.0492 -0.4211 -0.1100
 7209TIP3    H145822   5.875   7.267  12.343 -0.8366 -0.0745 -0.5952
 7209TIP3    H245823   5.855   7.405  12.402  1.3501 -0.2810  0.7260
 7210TIP3   OH245824   0.880   4.317  12.456 -0.0333 -0.6326 -0.6144
 7210TIP3    H145825   0.785   4.329  12.462  0.2888  1.8916  1.3497
 7210TIP3    H245826   0.905   4.368  12.379 -0.1894 -0.5703 -0.6252
 7211TIP3   OH245827   7.827   6.596  14.040 -0.5186 -0.0700 -0.3183
 7211TIP3    H145828   7.759   6.657  14.070 -1.4976 -0.9227 -0.7335
 7211TIP3    H245829   7.785   6.510  14.046  0.5374 -0.6089 -0.6016
 7212TIP3   OH245830   2.823   7.832  13.139  0.0458 -0.2675 -0.1655
 7212TIP3    H145831   2.807   7.888  13.062 -0.4500 -0.8577 -0.4988
 7212TIP3    H245832   2.916   7.813  13.135 -0.0651 -0.6833 -0.8954
 7213TIP3   OH245833   4.272   6.029  13.280 -0.3891 -0.1125  0.7298
 7213TIP3    H145834   4.207   5.965  13.309 -1.6589  0.3673 -0.8494
 7213TIP3    H245835   4.242   6.112  13.316 -1.9684  0.4842 -1.6847
 7214TIP3   OH245836   6.339   4.280  12.749 -0.5012 -0.1171 -0.3872
 7214TIP3    H145837   6.360   4.190  12.774 -0.3876 -0.0723 -0.3196
 7214TIP3    H245838   6.296   4.318  12.826 -0.8879 -0.2262 -0.5474
 7215TIP3   OH245839   3.362   4.916  12.923  0.2209  0.0161  0.3532
 7215TIP3    H145840   3.427   4.931  12.854 -0.3283  1.3444  0.0940
 7215TIP3    H245841   3.282   4.893  12.877  0.4052 -1.3164  0.6605
 7216TIP3   OH245842   3.723   7.193  12.949 -0.2239 -0.0753 -0.2621
 7216TIP3    H145843   3.688   7.110  12.982  1.9663 -0.2399  1.9163
 7216TIP3    H245844   3.691   7.258  13.011  1.1761  0.1104  0.3053
 7217TIP3   OH245845   4.339   0.429  12.035 -0.3792  0.0538 -0.3151
 7217TIP3    H145846   4.408   0.370  12.004 -0.5007 -1.1892  1.6049
 7217TIP3    H245847   4.297   0.381  12.106 -0.0563  2.6945  1.8167
 7218TIP3   OH245848   2.516   1.364  11.909  0.0362 -0.7464  0.0062
 7218TIP3    H145849   2.556   1.432  11.855  0.6456 -0.5345  0.6997
 7218TIP3    H245850   2.422   1.382  11.904  0.1175 -0.4503 -0.5999
 7219TIP3   OH245851   5.404   2.070  13.430 -0.3373 -0.4796 -0.0843
 7219TIP3    H145852   5.367   1.990  13.467  1.6520 -2.0158 -1.1762
 7219TIP3    H245853   5.390   2.137  13.497 -3.4035 -1.3109  0.2516
 7220TIP3   OH245854   2.232   4.689  11.805  0.4834  0.4982  0.2222
 7220TIP3    H145855   2.278   4.772  11.814  1.6324 -0.0080 -0.7292
 7220TIP3    H245856   2.196   4.690  11.716  0.6074 -0.0749  0.1619
 7221TIP3   OH245857   4.308   5.957  12.206  0.3714 -0.2833 -0.0296
 7221TIP3    H145858   4.237   5.983  12.264 -1.0608 -1.6765 -1.0677
 7221TIP3    H245859   4.350   5.883  12.250 -0.4672 -1.0899 -0.5551
 7222TIP3   OH245860   5.105   5.977  12.600 -0.2149 -0.4104  0.5268
 7222TIP3    H145861   5.009   5.981  12.596 -0.2731 -1.2365  0.8251
 7222TIP3    H245862   5.126   5.888  12.572  0.4889 -0.1570  0.2262
 7223TIP3   OH245863   0.401   4.609  12.749 -0.6255  0.2759 -0.0565
 7223TIP3    H145864   0.438   4.676  12.806  1.3389 -0.6640 -0.1536
 7223TIP3    H245865   0.341   4.657  12.692  0.4526  1.9014  0.1096
 7224TIP3   OH245866   3.738   3.550  12.388 -0.3196 -0.0672  0.2883
 7224TIP3    H145867   3.649   3.518  12.404  0.1038 -0.9872  0.9015
 7224TIP3    H245868   3.726   3.628  12.334 -1.4994 -0.1531  0.3954
 7225TIP3   OH245869   2.441   8.300  11.986  0.0449 -0.6664  0.4008
 7225TIP3    H145870   2.395   8.233  12.037  0.1699 -0.7949  0.3458
 7225TIP3    H245871   2.476   8.360  12.052 -1.5830  0.3565  0.3804
 7226TIP3   OH245872   6.798   7.157  13.241 -0.0766 -0.2441  0.3041
 7226TIP3    H145873   6.764   7.106  13.314 -0.7542  0.4173  0.4692
 7226TIP3    H245874   6.723   7.209  13.211  0.8197  1.4293  0.8170
 7227TIP3   OH245875   6.762   7.266  12.799 -0.2432  0.2964  0.2114
 7227TIP3    H145876   6.671   7.294  12.790 -0.1876  0.7321  0.8745
 7227TIP3    H245877   6.760   7.172  12.785 -0.8846  0.2237  0.7310
 7228TIP3   OH245878   3.378   4.532  12.386 -0.3751 -0.1643 -0.0573
 7228TIP3    H145879   3.445   4.573  12.440 -1.0266  1.6678 -0.5441
 7228TIP3    H245880   3.297   4.542  12.436 -0.4987 -1.1646 -0.0513
 7229TIP3   OH245881   0.764   6.608  12.652 -0.6250  0.4023 -0.1312
 7229TIP3    H145882   0.779   6.523  12.612 -1.4077  0.5337 -0.7452
 7229TIP3    H245883   0.790   6.671  12.585  1.6948  0.7044  0.9695
 7230TIP3   OH245884   3.924   2.649  14.245  0.1250 -0.2298 -0.0814
 7230TIP3    H145885   3.890   2.678  14.161 -1.3569 -1.0362  0.1912
 7230TIP3    H245886   3.876   2.568  14.263  1.5927 -0.9490  0.7825
 7231TIP3   OH245887   4.301   3.934  12.776  0.2882  0.4087 -0.5846
 7231TIP3    H145888   4.325   3.971  12.861 -0.9325  3.2120 -1.3361
 7231TIP3    H245889   4.210   3.906  12.787  0.7643 -1.2030 -0.4398
 7232TIP3   OH245890   1.790   2.936  12.423 -0.0260  0.1361 -0.2695
 7232TIP3    H145891   1.826   2.985  12.349  1.1257  0.3608  0.4158
 7232TIP3    H245892   1.865   2.919  12.479 -0.9816  0.6094  1.2078
 7233TIP3   OH245893   1.257   7.019  13.805 -0.7412  0.4566 -0.0620
 7233TIP3    H145894   1.320   7.090  13.815 -0.1892 -0.1790  1.2757
 7233TIP3    H245895   1.308   6.940  13.825 -1.7289 -0.1549  0.1034
 7234TIP3   OH245896   0.448   0.406  13.493  0.1244  0.2425 -0.4107
 7234TIP3    H145897   0.496   0.367  13.420  0.5033  0.7153 -0.4182
 7234TIP3    H245898   0.379   0.457  13.450  0.3344  0.5037 -0.4405
 7235TIP3   OH245899   5.077   6.065  13.344 -0.4380 -0.2906 -0.6278
 7235TIP3    H145900   5.141   6.089  13.412 -1.5161 -1.3737  0.8256
 7235TIP3    H245901   5.067   5.971  13.353 -1.7393 -0.2346 -1.3058
 7236TIP3   OH245902   6.225   4.389  12.963  0.7471  0.1072 -0.0537
 7236TIP3    H145903   6.305   4.391  13.016  1.9636 -0.6998 -1.7623
 7236TIP3    H245904   6.189   4.478  12.970  0.1634 -0.2594  3.0129
 7237TIP3   OH245905   2.856   8.333  12.080 -0.4072  0.3957  0.2369
 7237TIP3    H145906   2.815   8.361  11.999 -1.2642  3.7829  1.6844
 7237TIP3    H245907   2.904   8.253  12.056 -2.2605  0.0959 -3.0574
 7238TIP3   OH245908   5.323   0.492  13.346  0.2117 -0.1149 -0.2015
 7238TIP3    H145909   5.264   0.476  13.419 -0.5944  1.6344 -0.4278
 7238TIP3    H245910   5.281   0.562  13.295  2.0108  0.5363 -0.8813
 7239TIP3   OH245911   5.328   3.799  12.859 -0.4965  0.0076  0.2675
 7239TIP3    H145912   5.328   3.858  12.935  0.5545  0.9235 -0.4093
 7239TIP3    H245913   5.322   3.712  12.897 -0.7434  0.4820  1.3673
 7240TIP3   OH245914   4.441   5.304  12.627 -0.4844 -0.0691  0.4937
 7240TIP3    H145915   4.487   5.387  12.639 -0.5804 -0.0219  0.5352
 7240TIP3    H245916   4.402   5.285  12.713 -0.1964 -0.3176  0.5752
 7241TIP3   OH245917   2.142   0.969  13.202  0.1484  0.1114 -0.3948
 7241TIP3    H145918   2.218   1.027  13.196  0.9953 -0.8170  0.8315
 7241TIP3    H245919   2.139   0.943  13.294 -1.4804 -0.1199 -0.4981
 7242TIP3   OH245920   1.648   4.426  13.279 -0.1814 -0.3423  0.3354
 7242TIP3    H145921   1.627   4.499  13.337  1.5177  0.3395  0.1576
 7242TIP3    H245922   1.593   4.439  13.202 -0.8158  0.0104  0.8414
 7243TIP3   OH245923   0.771   5.015  13.571 -0.4492 -0.0482 -0.1920
 7243TIP3    H145924   0.844   5.070  13.540 -0.2307 -0.6923 -0.8580
 7243TIP3    H245925   0.801   4.982  13.655 -0.6084  0.8906  0.2462
 7244TIP3   OH245926   5.422   2.610  12.867  0.2695  0.3653 -0.4126
 7244TIP3    H145927   5.508   2.605  12.908  0.5794  0.0904 -1.0686
 7244TIP3    H245928   5.365   2.555  12.921  0.4665  0.6639  0.1034
 7245TIP3   OH245929   3.600   6.727  11.734 -0.2836  0.0153 -0.8977
 7245TIP3    H145930   3.565   6.756  11.819  2.0112  1.0055 -0.2155
 7245TIP3    H245931   3.525   6.732  11.675 -1.4564  1.4393  0.6044
 7246TIP3   OH245932   7.579   1.696  13.399  0.6500  0.1969  0.0838
 7246TIP3    H145933   7.501   1.733  13.357  0.2480 -1.2171 -0.4907
 7246TIP3    H245934   7.649   1.708  13.336  0.7452  0.8258  0.3034
 7247TIP3   OH245935   5.358   4.757  13.743  0.0134  0.6772 -0.1775
 7247TIP3    H145936   5.263   4.769  13.745 -0.0849 -0.1424  0.5960
 7247TIP3    H245937   5.394   4.845  13.730 -0.8596  0.9310 -0.9634
 7248TIP3   OH245938   6.633   6.377  11.636  0.1815  0.1192  0.4488
 7248TIP3    H145939   6.610   6.361  11.728  0.8839 -1.9220  0.3051
 7248TIP3    H245940   6.702   6.443  11.640 -0.6114  0.9283  1.2959
 7249TIP3   OH245941   0.435   0.168  12.562 -0.3047  0.1148  0.4371
 7249TIP3    H145942   0.391   0.085  12.541 -1.7303  0.6026  1.3021
 7249TIP3    H245943   0.444   0.166  12.657 -1.3035  1.3714  0.5894
 7250TIP3   OH245944   5.531   4.834  13.500 -0.0826  0.4264  0.3418
 7250TIP3    H145945   5.465   4.785  13.451  1.6040 -1.7680  0.1093
 7250TIP3    H245946   5.486   4.863  13.580 -1.4246 -0.6558  0.0036
 7251TIP3   OH245947   4.517   0.396  13.111 -0.2764 -0.2400  0.1653
 7251TIP3    H145948   4.472   0.479  13.124  1.1519  0.5639  0.1245
 7251TIP3    H245949   4.476   0.359  13.033 -0.2794  0.8802 -0.3793
 7252TIP3   OH245950   2.116   1.102  12.707  0.1564  0.5700  0.0265
 7252TIP3    H145951   2.172   1.025  12.707 -0.2606  0.2565 -0.3529
 7252TIP3    H245952   2.028   1.068  12.725 -0.0398  0.9480 -0.1972
 7253TIP3   OH245953   2.243   2.101  12.402  0.1162 -0.1504  0.2182
 7253TIP3    H145954   2.222   2.096  12.309  0.4956 -0.6320  0.1584
 7253TIP3    H245955   2.175   2.158  12.438 -0.9576 -1.1965 -0.0730
 7254TIP3   OH245956   4.292   4.738  13.010  0.2752 -0.8049 -0.4868
 7254TIP3    H145957   4.318   4.775  12.926  2.1109  0.0674  0.4118
 7254TIP3    H245958   4.358   4.770  13.072 -1.8714 -0.1129  1.6017
 7255TIP3   OH245959   8.288   7.981  12.744 -0.1373 -1.0581 -0.2182
 7255TIP3    H145960   8.237   8.057  12.771 -0.2469 -0.6192 -1.5746
 7255TIP3    H245961   8.288   7.923  12.821 -0.8602 -0.1201  0.5095
 7256TIP3   OH245962   5.765   0.603  13.171 -0.2811 -0.0451  0.4965
 7256TIP3    H145963   5.796   0.512  13.166 -0.6883 -0.1227 -1.1489
 7256TIP3    H245964   5.688   0.600  13.228  0.3947 -0.5070  1.4189
 7257TIP3   OH245965   7.525   2.710  12.122 -0.0115 -0.3439  0.2167
 7257TIP3    H145966   7.599   2.674  12.073  1.0443 -0.7753  1.9961
 7257TIP3    H245967   7.532   2.805  12.110  0.1492 -0.4439 -0.5345
 7258TIP3   OH245968   7.419   7.996  11.738 -0.1509 -0.3565 -0.1036
 7258TIP3    H145969   7.446   8.088  11.749 -1.6884  0.0440  0.6154
 7258TIP3    H245970   7.442   7.954  11.821 -1.2379 -0.1256  0.3315
 7259TIP3   OH245971   8.088   1.123  12.528 -0.3402  0.5961 -0.0512
 7259TIP3    H145972   8.102   1.153  12.618  1.4090 -1.1117  0.3085
 7259TIP3    H245973   8.153   1.053  12.516 -3.4098 -2.3479 -1.1243
 7260TIP3   OH245974   3.482   0.814  12.682  0.2256  0.0519 -0.2648
 7260TIP3    H145975   3.426   0.820  12.760 -0.0025 -2.1818 -0.1965
 7260TIP3    H245976   3.480   0.721  12.657  3.6369 -0.1139 -0.4681
 7261TIP3   OH245977   3.304   3.591  13.412 -1.0107  0.5506 -0.9939
 7261TIP3    H145978   3.379   3.633  13.453 -0.1168  1.5142 -3.4350
 7261TIP3    H245979   3.272   3.530  13.478  0.7950  1.4148  0.7891
 7262TIP3   OH245980   6.198   2.864  13.558 -0.2085  0.2993  0.0788
 7262TIP3    H145981   6.137   2.795  13.583 -0.0343  0.3955  0.8030
 7262TIP3    H245982   6.270   2.818  13.514 -0.1752  0.0395  0.4066
 7263TIP3   OH245983   7.379   7.646  12.244  0.2122 -0.5787 -0.5022
 7263TIP3    H145984   7.365   7.608  12.157 -0.9547  0.6693 -0.8955
 7263TIP3    H245985   7.302   7.701  12.259 -0.7323 -2.4118  2.2488
 7264TIP3   OH245986   0.671   5.311  12.576  0.6511 -0.5100 -0.5422
 7264TIP3    H145987   0.758   5.276  12.555  0.8670 -1.1766  1.3108
 7264TIP3    H245988   0.657   5.289  12.668 -0.1678  2.2984  0.1171
 7265TIP3   OH245989   3.129   2.521  17.447  0.2408 -0.7560 -0.3184
 7265TIP3    H145990   3.128   2.502  17.353  0.6639  0.0794 -0.4998
 7265TIP3    H245991   3.095   2.611  17.453  1.9162 -0.1140  0.1422
 7266TIP3   OH245992   6.746   4.193  12.545 -0.1569 -0.5693 -0.1898
 7266TIP3    H145993   6.681   4.159  12.484  0.5588 -0.3626 -1.0854
 7266TIP3    H245994   6.707   4.274  12.579 -0.4486 -0.5510 -0.5680
 7267TIP3   OH245995   0.602   6.830  13.157 -0.1856  0.3990 -0.3355
 7267TIP3    H145996   0.542   6.758  13.177  0.7648 -0.6035 -1.0081
 7267TIP3    H245997   0.658   6.796  13.088  0.7310  1.5592 -0.1899
 7268TIP3   OH245998   3.362   1.424  13.316  0.0675 -0.0753  0.7714
 7268TIP3    H145999   3.445   1.381  13.340  0.7799  0.4602 -0.6713
 7268TIP3    H246000   3.364   1.507  13.363  1.7087  1.2078 -1.3899
 7269TIP3   OH246001   5.984   0.667  12.633  0.5257 -0.1569  0.5188
 7269TIP3    H146002   5.978   0.700  12.543  2.1931 -2.1115 -0.4065
 7269TIP3    H246003   5.986   0.745  12.687  0.4804  1.1185 -1.2256
 7270TIP3   OH246004   7.273   1.973  11.624 -0.1713  0.0338  0.3308
 7270TIP3    H146005   7.316   1.890  11.644 -0.9749 -0.5774 -0.3943
 7270TIP3    H246006   7.250   2.010  11.710 -0.2247 -0.7262  0.6483
 7271TIP3   OH246007   2.748   1.362  12.430 -0.0407 -0.1560  0.0831
 7271TIP3    H146008   2.838   1.378  12.400  0.3080 -0.5616  0.8684
 7271TIP3    H246009   2.694   1.378  12.353  0.6669  0.5008 -0.2938
 7272TIP3   OH246010   5.995   7.796  13.486 -0.1784 -0.0060 -0.3374
 7272TIP3    H146011   6.009   7.846  13.406 -0.4100  0.6381  0.0172
 7272TIP3    H246012   5.981   7.862  13.554 -0.9435 -0.5434  0.0543
 7273TIP3   OH246013   7.026   0.390  13.133 -0.0202  0.0629  0.3391
 7273TIP3    H146014   7.094   0.429  13.079  0.0335 -1.0356 -0.4315
 7273TIP3    H246015   7.003   0.457  13.197  1.2100  0.7285  0.0956
 7274TIP3   OH246016   0.780   6.340  12.979 -0.0033  0.0609 -0.5905
 7274TIP3    H146017   0.871   6.358  12.999  0.3841 -0.0738 -2.1276
 7274TIP3    H246018   0.776   6.245  12.968  0.0045  0.2152 -2.0264
 7275TIP3   OH246019   6.465   4.621  12.369  1.0145 -0.1029 -0.1888
 7275TIP3    H146020   6.500   4.644  12.456 -0.5852  1.2024  0.1532
 7275TIP3    H246021   6.391   4.563  12.387  1.1723 -0.4829 -0.7383
 7276TIP3   OH246022   1.987   4.402  12.449  0.1795 -0.1690 -0.3263
 7276TIP3    H146023   2.019   4.437  12.533 -1.2039 -2.9120  1.5025
 7276TIP3    H246024   1.895   4.425  12.447 -0.0215 -0.9777 -0.6098
 7277TIP3   OH246025   3.353   1.381  12.278  0.0934  0.6512  0.2634
 7277TIP3    H146026   3.395   1.425  12.204 -0.7630 -1.0599 -1.3093
 7277TIP3    H246027   3.264   1.362  12.249  0.0266 -0.9411  1.3411
 7278TIP3   OH246028   5.708   5.666  13.181  0.5595 -0.1736  0.2881
 7278TIP3    H146029   5.801   5.649  13.171  0.3988 -1.0956  0.2716
 7278TIP3    H246030   5.703   5.741  13.241  1.3428  1.0698 -1.1618
 7279TIP3   OH246031   1.957   7.032  13.098 -0.3550 -0.5244 -0.2937
 7279TIP3    H146032   2.016   6.957  13.109 -0.0598 -0.2063  0.3436
 7279TIP3    H246033   1.883   6.997  13.048 -0.8653 -1.5895  1.1311
 7280TIP3   OH246034   1.470   6.478  12.895  0.2701 -0.3073 -0.3950
 7280TIP3    H146035   1.507   6.566  12.898 -2.2025  1.0085 -3.2238
 7280TIP3    H246036   1.447   6.460  12.986  1.2081  1.7745  0.3422
 7281TIP3   OH246037   5.974   2.458  13.740 -0.3128 -0.3836 -0.0279
 7281TIP3    H146038   5.960   2.395  13.669 -0.5303 -0.4009  0.0306
 7281TIP3    H246039   5.900   2.445  13.799 -0.5670  0.1870 -0.2091
 7282TIP3   OH246040   2.073   5.516  12.396  0.0525  0.1260 -0.1412
 7282TIP3    H146041   2.132   5.508  12.322 -1.5962 -0.7592 -1.4297
 7282TIP3    H246042   2.021   5.436  12.395 -0.1002  0.1421  1.9201
 7283TIP3   OH246043   6.443   1.652  12.006  0.1776  0.7366  0.1100
 7283TIP3    H146044   6.490   1.622  11.928 -3.2243  0.5667 -2.0941
 7283TIP3    H246045   6.440   1.747  11.997  0.7608  0.8231  0.7172
 7284TIP3   OH246046   3.214   4.593  12.130 -0.2095  0.2780 -0.4002
 7284TIP3    H146047   3.297   4.581  12.177  0.1089  0.4387 -0.9125
 7284TIP3    H246048   3.236   4.650  12.057 -0.8893  0.7602 -0.2428
 7285TIP3   OH246049   7.676   6.096  12.320 -0.5585  0.0221  0.0067
 7285TIP3    H146050   7.682   6.007  12.356  1.6125  0.1885  0.1837
 7285TIP3    H246051   7.738   6.097  12.247 -1.1099  1.1917 -0.4694
 7286TIP3   OH246052   1.174   2.068  13.193 -0.3671 -0.2959  0.2714
 7286TIP3    H146053   1.258   2.086  13.236 -0.8989  1.7862  0.5763
 7286TIP3    H246054   1.149   1.982  13.225  0.6601 -0.0576  1.8608
 7287TIP3   OH246055   5.754   4.533  12.435 -0.4786 -0.1315  0.2337
 7287TIP3    H146056   5.734   4.520  12.342  0.2977 -0.8451  0.1411
 7287TIP3    H246057   5.690   4.479  12.481  0.3057 -1.2938  0.0099
 7288TIP3   OH246058   4.666   2.727  12.658  0.2173  0.2493 -0.3016
 7288TIP3    H146059   4.611   2.690  12.589 -1.6913 -0.2288  1.3879
 7288TIP3    H246060   4.645   2.820  12.658 -2.3749 -0.2397  1.7504
 7289TIP3   OH246061   7.071   0.107  12.043 -0.1698  0.0877  0.0692
 7289TIP3    H146062   7.117   0.089  11.962 -2.2601  1.4263 -1.5214
 7289TIP3    H246063   7.034   0.023  12.070  2.5368 -0.8993  1.0906
 7290TIP3   OH246064   3.167   6.161  12.845 -0.0842 -0.0147 -0.3586
 7290TIP3    H146065   3.128   6.217  12.912  0.1062  1.9889 -1.8260
 7290TIP3    H246066   3.227   6.105  12.893  0.0200  1.3223  1.1659
 7291TIP3   OH246067   1.917   2.352  13.529  0.3368  0.5734 -0.0637
 7291TIP3    H146068   1.913   2.436  13.575  0.6813  1.0749 -0.9260
 7291TIP3    H246069   1.839   2.351  13.474 -0.6004 -0.4602  1.2127
 7292TIP3   OH246070   5.473   1.542  12.970  0.3491 -0.1763  0.0472
 7292TIP3    H146071   5.394   1.568  13.018  0.5364  0.4571  0.0219
 7292TIP3    H246072   5.440   1.510  12.886  0.1885  1.6699 -0.6510
 7293TIP3   OH246073   0.359   6.513  13.498  0.0926  0.1035 -0.1247
 7293TIP3    H146074   0.378   6.514  13.592 -0.6656  0.5466  0.0273
 7293TIP3    H246075   0.312   6.432  13.484 -3.2347  1.7316  0.6044
 7294TIP3   OH246076   2.485   3.741  12.819 -0.5611 -0.2546  0.5498
 7294TIP3    H146077   2.478   3.776  12.730  0.4819 -0.4285  0.3843
 7294TIP3    H246078   2.551   3.672  12.812  0.3851  0.5095  1.6818
 7295TIP3   OH246079   1.824   7.005  12.024 -0.5025 -0.3347  0.0635
 7295TIP3    H146080   1.811   7.021  11.930  0.7708 -1.2679 -0.2931
 7295TIP3    H246081   1.918   7.017  12.038 -1.0045  2.3119  1.7654
 7296TIP3   OH246082   0.684   3.186  13.459 -0.4760  0.2147  0.2855
 7296TIP3    H146083   0.607   3.175  13.403  1.1749 -0.6954 -1.9765
 7296TIP3    H246084   0.656   3.245  13.528 -3.0162  0.3953 -0.8008
 7297TIP3   OH246085   6.765   5.223  11.639  0.4171 -0.2753  0.5377
 7297TIP3    H146086   6.777   5.220  11.734 -0.9351  0.2919  0.7514
 7297TIP3    H246087   6.837   5.278  11.607 -0.1132  1.0036  1.4424
 7298TIP3   OH246088   1.348   4.740  12.320  0.4291  0.2901 -0.2072
 7298TIP3    H146089   1.392   4.818  12.287 -1.4157  0.3943 -2.6847
 7298TIP3    H246090   1.307   4.700  12.242 -0.9910 -1.6170  1.4028
 7299TIP3   OH246091   3.787   0.337  13.995 -0.7067 -0.6443 -0.0667
 7299TIP3    H146092   3.718   0.355  13.931 -2.1354  0.5664  1.7048
 7299TIP3    H246093   3.868   0.344  13.945 -1.7049  1.3537 -1.5673
 7300TIP3   OH246094   4.158   2.324  13.081 -0.3762  0.2766 -0.8316
 7300TIP3    H146095   4.106   2.251  13.116  0.9621 -0.6051 -0.6123
 7300TIP3    H246096   4.132   2.399  13.135 -0.0906 -0.5473  0.4987
 7301TIP3   OH246097   6.809   1.271  11.970  0.4206 -0.2093 -0.6475
 7301TIP3    H146098   6.716   1.269  11.993  0.8129 -1.1408  1.0183
 7301TIP3    H246099   6.810   1.283  11.875 -1.3465  1.8826 -0.4702
 7302TIP3   OH246100   0.016   6.269  11.584  0.3488 -0.1659 -0.1211
 7302TIP3    H146101   0.071   6.191  11.571 -2.0721 -1.9404 -0.4677
 7302TIP3    H246102  -0.021   6.287  11.498 -0.4692  0.2950  0.3169
 7303TIP3   OH246103   3.897   3.131  12.530  0.0982  0.0348  0.0360
 7303TIP3    H146104   3.819   3.097  12.486 -0.6049  0.5143  0.8701
 7303TIP3    H246105   3.950   3.169  12.460 -0.3627 -0.3941 -0.5570
 7304TIP3   OH246106   3.259   3.595  12.542 -0.6268  0.0110  0.1093
 7304TIP3    H146107   3.183   3.546  12.510 -1.3841  1.3266 -0.1612
 7304TIP3    H246108   3.267   3.670  12.483 -0.7413  1.3234  1.6725
 7305TIP3   OH246109   2.826   6.207  13.022 -0.0867  0.3924 -0.4050
 7305TIP3    H146110   2.856   6.193  13.112  0.8719 -0.2936 -0.8135
 7305TIP3    H246111   2.855   6.296  13.001 -2.2176  1.4274  0.6639
 7306TIP3   OH246112   6.621   7.868  13.047 -0.6554  0.4507  0.3259
 7306TIP3    H146113   6.580   7.783  13.031  1.2209 -0.3181 -0.7388
 7306TIP3    H246114   6.633   7.872  13.142 -0.3213 -0.6911  0.3384
 7307TIP3   OH246115   7.867   3.604  12.734  0.0155 -0.3545  1.1054
 7307TIP3    H146116   7.783   3.581  12.694 -0.0321 -1.1676  1.6504
 7307TIP3    H246117   7.932   3.561  12.678  0.0773  0.2570  0.6960
 7308TIP3   OH246118   2.108   3.548  12.821  0.0272 -0.5015  0.1249
 7308TIP3    H146119   2.198   3.539  12.791 -0.0053  1.4978 -0.7564
 7308TIP3    H246120   2.096   3.477  12.884  2.0473 -1.0964 -0.0954
 7309TIP3   OH246121   2.185   6.697  12.880  0.4357  0.1483 -0.1289
 7309TIP3    H146122   2.154   6.786  12.862  1.0039  0.4981  0.6030
 7309TIP3    H246123   2.234   6.705  12.962 -1.6295 -1.2854  1.3388
 7310TIP3   OH246124   5.603   3.236  12.483  0.0408  0.2252 -0.3334
 7310TIP3    H146125   5.691   3.220  12.449 -0.8029 -1.6713 -1.8417
 7310TIP3    H246126   5.558   3.282  12.412 -0.1453  1.3934  0.5151
 7311TIP3   OH246127   1.295   5.458  11.885  0.0293 -0.0184  0.3841
 7311TIP3    H146128   1.215   5.405  11.888 -0.5800  0.8300 -0.1538
 7311TIP3    H246129   1.269   5.543  11.923  1.1322 -0.2621  1.7601
 7312TIP3   OH246130   7.303   3.651  11.459 -0.1252 -0.0089 -0.2090
 7312TIP3    H146131   7.253   3.569  11.465  0.8582 -0.5052  2.4534
 7312TIP3    H246132   7.239   3.719  11.481 -0.2121 -0.4152  0.8634
 7313TIP3   OH246133   6.410   7.961  12.680  0.2153 -0.0423  0.2125
 7313TIP3    H146134   6.466   8.038  12.687 -2.4035  1.9537  1.1484
 7313TIP3    H246135   6.340   7.987  12.620 -1.3916 -1.2014  1.4686
 7314TIP3   OH246136   1.080   7.137  13.157  0.0372  0.0868  0.1906
 7314TIP3    H146137   1.100   7.044  13.146 -1.3535 -0.0190 -2.1151
 7314TIP3    H246138   1.154   7.182  13.116 -0.8141 -0.1420 -1.7212
 7315TIP3   OH246139   2.142   5.940  12.028  0.0779  1.1038  0.1919
 7315TIP3    H146140   2.083   6.003  11.985  1.1666  2.1748  0.1989
 7315TIP3    H246141   2.131   5.859  11.978  1.2874  2.2882 -2.1868
 7316TIP3   OH246142   0.504   6.577  12.536  0.4105  0.0650 -0.1752
 7316TIP3    H146143   0.455   6.496  12.519  2.8827 -1.1733 -2.0395
 7316TIP3    H246144   0.517   6.616  12.450 -0.3629  2.3188  0.6513
 7317TIP3   OH246145   0.990   6.861  11.823  0.0448  0.3514  0.2169
 7317TIP3    H146146   0.916   6.799  11.822  1.6474 -1.6763  0.5550
 7317TIP3    H246147   1.008   6.878  11.731  0.3296 -0.6394  0.0832
 7318TIP3   OH246148   5.405   5.855  12.322 -0.6400 -0.0256  0.3632
 7318TIP3    H146149   5.474   5.916  12.349 -1.3824  2.8212 -3.2840
 7318TIP3    H246150   5.452   5.773  12.306  1.9205  1.5756 -1.2461
 7319TIP3   OH246151   8.149   4.189  13.422 -0.3682 -0.2997  0.1056
 7319TIP3    H146152   8.121   4.203  13.513  0.7491  1.5826  0.2106
 7319TIP3    H246153   8.165   4.095  13.417  1.8449 -0.1894  2.6087
 7320TIP3   OH246154   7.931   7.256  12.065  0.2464 -0.0927 -0.0563
 7320TIP3    H146155   7.859   7.199  12.090 -0.7782  1.2387  0.1361
 7320TIP3    H246156   7.962   7.221  11.981 -0.5486 -0.7277 -0.0940
 7321TIP3   OH246157   7.883   1.282  11.696 -0.2652 -0.0289  0.4777
 7321TIP3    H146158   7.936   1.265  11.619 -1.4541 -1.5882 -0.0613
 7321TIP3    H246159   7.838   1.199  11.712  2.1620 -0.8460  4.6534
 7322TIP3   OH246160   4.897   7.171  11.911  0.2722 -0.2428  0.3227
 7322TIP3    H146161   4.945   7.169  11.994 -0.3281 -0.6185  0.6741
 7322TIP3    H246162   4.899   7.263  11.884  0.9283 -0.2090  0.4832
 7323TIP3   OH246163   3.206   4.879  12.010  0.6735  0.3609 -0.5501
 7323TIP3    H146164   3.152   4.833  11.946 -1.6159  1.0769  0.7394
 7323TIP3    H246165   3.174   4.970  12.008  1.4583  0.6945  0.6286
 7324TIP3   OH246166   4.329   7.291  11.353  0.1069 -0.1190  0.1140
 7324TIP3    H146167   4.275   7.234  11.407 -0.0538 -1.0676 -1.0042
 7324TIP3    H246168   4.311   7.263  11.263 -0.8823  2.5013 -0.5847
 7325TIP3   OH246169   2.427   0.331  11.993 -0.0749 -0.4107  0.1403
 7325TIP3    H146170   2.371   0.390  11.942 -0.0778  0.5921  1.2443
 7325TIP3    H246171   2.403   0.243  11.964  0.7110  0.1216 -2.3599
 7326TIP3   OH246172   0.846   7.058  12.988 -0.5539  0.2303  0.5014
 7326TIP3    H146173   0.888   7.020  13.065 -0.6821  0.6910  0.8015
 7326TIP3    H246174   0.873   7.149  12.988 -1.5680  0.5461  0.7188
 7327TIP3   OH246175   4.984   0.400  11.789 -0.1713  0.4805 -0.0025
 7327TIP3    H146176   4.952   0.490  11.784 -0.9848  0.2081  0.0495
 7327TIP3    H246177   4.907   0.349  11.816  0.2403 -0.2458 -0.1651
 7328TIP3   OH246178   4.552   7.260  11.971 -0.0215 -0.0282 -0.1643
 7328TIP3    H146179   4.571   7.340  11.924  2.6979 -0.8551 -0.6865
 7328TIP3    H246180   4.572   7.190  11.909 -0.5284 -1.1188  0.8552
 7329TIP3   OH246181   0.127   3.418  12.860 -0.6956 -0.6572 -0.3354
 7329TIP3    H146182   0.094   3.332  12.838 -0.0016 -1.3480  1.1676
 7329TIP3    H246183   0.131   3.465  12.776 -0.3708 -2.3218 -1.2910
 7330TIP3   OH246184   8.207   6.058  12.910  0.0473  0.1490  0.3907
 7330TIP3    H146185   8.158   6.134  12.878  1.2830 -0.0864 -2.3176
 7330TIP3    H246186   8.140   5.992  12.927 -0.7525  0.3688 -1.6335
 7331TIP3   OH246187   5.768   5.227  13.185 -0.2733 -0.5954 -0.0590
 7331TIP3    H146188   5.824   5.260  13.114 -1.5116  0.8943 -0.3964
 7331TIP3    H246189   5.830   5.195  13.251  0.9600  0.0969 -0.8284
 7332TIP3   OH246190   5.597   8.390  13.867 -0.3548  0.3177  0.1671
 7332TIP3    H146191   5.622   8.480  13.848 -1.2671  0.6252  0.3939
 7332TIP3    H246192   5.508   8.396  13.900  0.1414 -0.5013  1.7524
 7333TIP3   OH246193   6.363   4.726  14.187 -0.2690 -0.1362  0.6756
 7333TIP3    H146194   6.275   4.692  14.174  0.0220 -0.1997 -1.4216
 7333TIP3    H246195   6.419   4.649  14.185 -0.0835 -0.0392  1.4748
 7334TIP3   OH246196   2.205   0.510  13.010 -0.1201 -0.5056 -0.2674
 7334TIP3    H146197   2.226   0.490  13.101  0.4754 -0.0980 -0.3086
 7334TIP3    H246198   2.118   0.473  12.996 -1.0372  1.0308  1.0144
 7335TIP3   OH246199   2.696   5.464  11.675  0.0641  0.3880  0.3900
 7335TIP3    H146200   2.643   5.532  11.634 -0.8280 -0.5685 -0.1233
 7335TIP3    H246201   2.737   5.418  11.601 -0.3658 -0.4234  0.6397
 7336TIP3   OH246202   6.157   5.044  13.040  0.3298  0.0329  0.2176
 7336TIP3    H146203   6.090   4.983  13.010  0.7101 -0.3185  0.0697
 7336TIP3    H246204   6.166   5.108  12.969 -0.6974  0.7900  0.7439
 7337TIP3   OH246205   5.836   8.068  12.659  0.1770  0.4980 -0.5019
 7337TIP3    H146206   5.926   8.072  12.692  0.0838 -0.8023  0.0055
 7337TIP3    H246207   5.817   7.974  12.656 -1.2629  0.7682 -0.3024
 7338TIP3   OH246208   5.104   4.214  11.857  0.0682 -0.8003  0.0587
 7338TIP3    H146209   5.101   4.138  11.915  1.2617 -0.4201  0.6308
 7338TIP3    H246210   5.186   4.204  11.808 -0.8022 -1.0068 -1.4463
 7339TIP3   OH246211   0.712   4.674  11.824 -0.1864  0.0232  0.6842
 7339TIP3    H146212   0.794   4.649  11.781 -0.0844 -0.9587  1.4399
 7339TIP3    H246213   0.737   4.697  11.913 -0.6533  0.3340  0.7391
 7340TIP3   OH246214   2.860   4.686  12.920 -0.1295  0.3073 -0.6195
 7340TIP3    H146215   2.800   4.718  12.987  0.4090  0.9035 -0.4067
 7340TIP3    H246216   2.804   4.648  12.853 -0.6723 -0.5228  0.2815
 7341TIP3   OH246217   7.745   2.038  12.576  0.5896 -0.5398 -0.2068
 7341TIP3    H146218   7.754   2.028  12.671 -0.2268 -1.4803 -0.2074
 7341TIP3    H246219   7.790   1.961  12.540  1.7581  0.3099 -0.6475
 7342TIP3   OH246220   0.954   5.346  12.280 -0.8122  0.1963  0.3810
 7342TIP3    H146221   1.036   5.363  12.327 -0.7185  1.0438 -0.0626
 7342TIP3    H246222   0.949   5.250  12.275  0.2819  0.1277  0.2044
 7343TIP3   OH246223   0.054   6.999  12.731  0.1168 -0.0751  0.5175
 7343TIP3    H146224  -0.009   7.070  12.742  0.0081 -0.1569  0.4240
 7343TIP3    H246225   0.088   7.009  12.642  0.5408  0.2158  0.7104
 7344TIP3   OH246226   4.230   5.914  12.842  0.7577  0.1367 -0.0886
 7344TIP3    H146227   4.264   5.866  12.918  1.7022  0.5827 -0.2097
 7344TIP3    H246228   4.229   6.005  12.871 -2.8985 -0.0666  0.8449
 7345TIP3   OH246229   1.809   6.550  13.166 -0.1148  0.0018  0.1286
 7345TIP3    H146230   1.856   6.596  13.235  0.5428 -0.3560 -0.0734
 7345TIP3    H246231   1.719   6.582  13.173 -0.0920 -0.1328  1.2355
 7346TIP3   OH246232   7.720   5.848  11.431 -0.1330  0.8424 -0.0223
 7346TIP3    H146233   7.713   5.777  11.368 -0.5318 -0.1919  1.1560
 7346TIP3    H246234   7.811   5.877  11.425 -0.3623  1.3219 -1.6333
 7347TIP3   OH246235   6.514   2.595  13.562  0.9524  0.2495 -0.0758
 7347TIP3    H146236   6.437   2.632  13.519 -1.0136 -0.7170  2.3648
 7347TIP3    H246237   6.548   2.665  13.616 -1.1197 -0.4675  2.4026
 7348TIP3   OH246238   0.915   7.084  12.699 -0.2050 -0.4019 -0.3177
 7348TIP3    H146239   0.876   7.171  12.701 -1.9916 -1.1559 -0.6513
 7348TIP3    H246240   0.940   7.071  12.607 -2.3252 -1.2019 -0.8311
 7349TIP3   OH246241   6.562   1.138  12.045 -0.0817 -0.1519  0.1091
 7349TIP3    H146242   6.624   1.117  11.975  0.0054  0.4520 -0.0015
 7349TIP3    H246243   6.584   1.077  12.116 -0.9432 -1.5850 -0.8044
 7350TIP3   OH246244   2.773   6.821  12.128 -0.0837  0.2129  0.0641
 7350TIP3    H146245   2.740   6.871  12.203 -0.3506 -0.3738  0.3408
 7350TIP3    H246246   2.789   6.888  12.061 -0.1572  0.7051  0.5265
 7351TIP3   OH246247   6.154   5.465  13.336 -0.2031  0.2202  0.2747
 7351TIP3    H146248   6.198   5.386  13.305  0.1621 -0.1812  1.7321
 7351TIP3    H246249   6.113   5.439  13.418 -0.1245  1.5332  0.7554
 7352TIP3   OH246250   6.896   1.644  12.195 -0.6404 -0.0592  0.4391
 7352TIP3    H146251   6.814   1.603  12.167  0.4195 -1.8612 -0.1974
 7352TIP3    H246252   6.893   1.731  12.155 -1.9885 -0.2890 -0.0349
 7353TIP3   OH246253   6.952   2.575  13.206 -0.2820  0.7143 -0.0883
 7353TIP3    H146254   6.925   2.549  13.118  0.0391 -0.6007  0.1778
 7353TIP3    H246255   6.870   2.589  13.253 -0.5020 -0.4080 -0.0987
 7354TIP3   OH246256   2.121   6.019  12.469 -0.6264 -0.2137 -0.1775
 7354TIP3    H146257   2.132   6.093  12.529  1.2237 -0.9563  0.4899
 7354TIP3    H246258   2.033   5.987  12.485 -0.7739  0.6916  0.9010
 7355TIP3   OH246259   6.313   2.338  13.226  0.3696  0.5524 -0.9543
 7355TIP3    H146260   6.246   2.381  13.279 -0.4844 -0.3557 -1.2623
 7355TIP3    H246261   6.338   2.261  13.278  0.5982  0.4683 -1.1901
 7356TIP3   OH246262   5.574   1.813  13.523  0.8748  0.6875 -0.1849
 7356TIP3    H146263   5.479   1.806  13.526  0.8260 -1.5908 -2.7658
 7356TIP3    H246264   5.604   1.791  13.611 -0.9332 -0.2966  0.2112
 7357TIP3   OH246265   6.012   1.730  12.016 -0.1742  0.6376  0.1632
 7357TIP3    H146266   5.942   1.719  12.080 -0.7300 -0.4990 -0.6094
 7357TIP3    H246267   6.008   1.823  11.992 -2.2626  0.3492 -0.7797
 7358TIP3   OH246268   6.310   0.400  13.260 -0.3334  0.5913  0.1655
 7358TIP3    H146269   6.300   0.479  13.313  0.1060  0.4634  0.4464
 7358TIP3    H246270   6.229   0.351  13.274 -0.3997  0.7601  0.3814
 7359TIP3   OH246271   2.038   5.694  13.331 -0.3197 -0.0107 -0.4617
 7359TIP3    H146272   2.000   5.678  13.417 -0.4593  2.1665 -0.0660
 7359TIP3    H246273   2.130   5.712  13.347 -0.3849  0.5948 -0.7333
 7360TIP3   OH246274   1.402   7.522  13.647  0.6673  0.3812 -0.3461
 7360TIP3    H146275   1.357   7.594  13.603  0.0676 -0.2761 -0.8334
 7360TIP3    H246276   1.351   7.444  13.623  0.8879 -0.1130  0.7386
 7361TIP3   OH246277   4.653   5.288  12.382 -0.2427  0.2308  0.1778
 7361TIP3    H146278   4.634   5.381  12.382 -1.1645  0.0587 -0.4284
 7361TIP3    H246279   4.568   5.246  12.399  0.3759 -0.4654  1.7270
 7362TIP3   OH246280   6.395   6.030  11.653 -0.1708 -0.0319  0.6285
 7362TIP3    H146281   6.406   6.123  11.635 -0.9244 -0.1890 -0.7213
 7362TIP3    H246282   6.301   6.018  11.663 -0.3903 -1.0552 -1.8583
 7363TIP3   OH246283   0.980   4.663  11.685 -0.2160 -0.4305 -0.2812
 7363TIP3    H146284   1.056   4.614  11.716  0.3488 -0.1071 -1.1029
 7363TIP3    H246285   0.986   4.657  11.589 -0.8356  0.1933 -0.3623
 7364TIP3   OH246286   2.069   7.117  12.053  0.3427  0.0305 -0.1720
 7364TIP3    H146287   2.060   7.141  12.145 -1.5910 -1.0496 -0.0276
 7364TIP3    H246288   2.129   7.042  12.053 -0.9964 -1.0988  0.4695
 7365TIP3   OH246289   3.910   1.733  13.063 -0.2722 -0.4060  0.3172
 7365TIP3    H146290   3.915   1.638  13.051 -0.2368 -0.1991 -1.7133
 7365TIP3    H246291   3.818   1.754  13.050 -0.6177 -0.3012  2.5134
 7366TIP3   OH246292   5.338   4.649  13.184  0.8090  0.0884 -0.5955
 7366TIP3    H146293   5.247   4.677  13.198  0.4116 -0.8097 -1.2661
 7366TIP3    H246294   5.374   4.715  13.124  1.3359  1.7424  1.4236
 7367TIP3   OH246295   3.358   0.759  11.783 -0.1515 -0.6033 -0.1517
 7367TIP3    H146296   3.400   0.728  11.702  0.4909  2.4733 -1.1094
 7367TIP3    H246297   3.420   0.735  11.852 -0.1651 -2.2491 -0.6712
 7368TIP3   OH246298   6.137   5.874  13.460 -0.1168  0.6376  0.5355
 7368TIP3    H146299   6.121   5.887  13.367  1.7728  0.3181  0.1238
 7368TIP3    H246300   6.141   5.963  13.497  2.3143  0.9539 -0.3215
 7369TIP3   OH246301   3.049   8.152  12.227  0.5794  0.8602  0.5964
 7369TIP3    H146302   3.142   8.174  12.224  0.6772  0.4722  0.6417
 7369TIP3    H246303   3.005   8.232  12.253  0.7884  1.3796 -0.5726
 7370TIP3   OH246304   5.325   0.196  12.096  0.3303 -0.4756 -0.0361
 7370TIP3    H146305   5.284   0.241  12.169  0.0683  0.0560 -0.5106
 7370TIP3    H246306   5.418   0.217  12.105  0.3607 -0.7806  0.4000
 7371TIP3   OH246307   5.667   3.742  12.862  0.3866 -0.0173  0.5613
 7371TIP3    H146308   5.626   3.684  12.925  2.4609  0.4362  2.4386
 7371TIP3    H246309   5.598   3.804  12.838 -1.2635 -1.9407  0.0670
 7372TIP3   OH246310   5.050   1.904  11.883 -0.3617  0.4931  0.0892
 7372TIP3    H146311   4.956   1.921  11.870 -0.2243  1.1306 -0.1102
 7372TIP3    H246312   5.062   1.814  11.854 -0.6920  0.7965 -1.0372
 7373TIP3   OH246313   7.976   2.685  12.135 -0.6321  0.0017 -0.3880
 7373TIP3    H146314   8.043   2.621  12.109  1.2369  0.6746  2.4189
 7373TIP3    H246315   8.022   2.768  12.139 -1.5370  0.4627  1.7999
 7374TIP3   OH246316   1.939   5.300  12.332 -0.2853 -0.8352  0.0245
 7374TIP3    H146317   1.862   5.244  12.345 -1.8303  1.0895 -0.2513
 7374TIP3    H246318   1.928   5.334  12.243  1.3499 -1.1450 -0.3213
 7375TIP3   OH246319   8.270   3.619  11.858 -0.2258 -0.0834  0.5649
 7375TIP3    H146320   8.282   3.584  11.770  0.9282  0.6247  0.4117
 7375TIP3    H246321   8.252   3.543  11.912  1.2550 -0.8179  0.0810
 7376TIP3   OH246322   7.561   5.919  13.558 -0.4984 -0.2082 -0.6988
 7376TIP3    H146323   7.485   5.961  13.519  0.0392  1.0007 -0.5040
 7376TIP3    H246324   7.529   5.881  13.640 -1.0097 -0.2081 -0.8997
 7377TIP3   OH246325   3.999   0.410  13.846 -0.0307 -0.0754 -0.1918
 7377TIP3    H146326   4.079   0.419  13.794 -1.0616  1.4269 -1.6317
 7377TIP3    H246327   4.003   0.482  13.909 -1.0851  1.2207 -1.5326
 7378TIP3   OH246328   3.493   2.089  13.376  0.1191 -0.4556 -0.9658
 7378TIP3    H146329   3.474   2.024  13.444 -1.0113 -0.2848 -1.0922
 7378TIP3    H246330   3.515   2.169  13.424  1.2653 -0.8486 -0.8111
 7379TIP3   OH246331   6.854   2.445  11.829  0.4605 -0.2218  0.4325
 7379TIP3    H146332   6.863   2.536  11.859  0.2111 -0.1690  0.3492
 7379TIP3    H246333   6.768   2.442  11.788 -0.5978 -1.0932  2.5627
 7380TIP3   OH246334   2.220   0.673  13.682  0.2384 -0.3005 -0.1717
 7380TIP3    H146335   2.199   0.627  13.763  1.6574 -2.1285 -0.7741
 7380TIP3    H246336   2.189   0.763  13.696 -0.5772 -0.8580  1.9228
 7381TIP3   OH246337   2.938   8.077  13.645 -0.3967 -0.2897  0.0122
 7381TIP3    H146338   2.924   8.108  13.735  1.2809  0.1659  0.1500
 7381TIP3    H246339   2.871   8.009  13.632 -1.6203  0.6773  1.0710
 7382TIP3   OH246340   6.812   1.760  12.752  0.0660  0.3616  0.1712
 7382TIP3    H146341   6.822   1.665  12.748  2.0187  0.5222  0.0681
 7382TIP3    H246342   6.765   1.776  12.834 -0.5126 -0.7011  0.0563
 7383TIP3   OH246343   4.649   3.416  13.589  0.0884  0.1165 -0.4290
 7383TIP3    H146344   4.729   3.455  13.553  1.3053 -0.3564  1.6502
 7383TIP3    H246345   4.633   3.340  13.533  0.4865  0.7865 -1.4967
 7384TIP3   OH246346   8.319   4.601  11.717  0.1065 -0.1990  0.2706
 7384TIP3    H146347   8.262   4.528  11.740  1.4949 -1.0430  1.1393
 7384TIP3    H246348   8.368   4.570  11.640 -0.4698  0.4628 -0.3797
 7385TIP3   OH246349   6.051   5.351  13.581 -0.3494 -0.0637  0.0259
 7385TIP3    H146350   6.060   5.257  13.600  0.4908 -0.2102 -0.9968
 7385TIP3    H246351   6.093   5.395  13.654  0.3869 -0.5261 -0.1147
 7386TIP3   OH246352   6.920   1.151  12.190  0.1241 -0.0377  0.0386
 7386TIP3    H146353   6.876   1.216  12.136  1.8220  1.0334 -0.1170
 7386TIP3    H246354   6.993   1.198  12.231  0.2760 -1.3771  1.4447
 7387TIP3   OH246355   1.056   1.185  12.714  0.2305  0.1582 -0.6604
 7387TIP3    H146356   1.007   1.103  12.704 -3.1163  1.9109 -0.2032
 7387TIP3    H246357   1.049   1.227  12.628  1.2761  0.2854 -0.6862
 7388TIP3   OH246358   6.615   5.467  12.923  0.3144 -0.8849  0.0431
 7388TIP3    H146359   6.594   5.379  12.956  0.1560 -0.2905  1.6314
 7388TIP3    H246360   6.543   5.488  12.864 -0.4760 -1.2187  0.8647
 7389TIP3   OH246361   7.503   7.071  12.379 -0.4461  0.7068 -0.3103
 7389TIP3    H146362   7.517   6.981  12.349 -0.4856  0.5160  0.2369
 7389TIP3    H246363   7.491   7.121  12.299 -1.1624  0.0943 -0.6051
 7390TIP3   OH246364   6.052   5.849  11.534  0.0899  0.0673  0.2583
 7390TIP3    H146365   6.088   5.896  11.458 -1.2991  0.6246 -0.0847
 7390TIP3    H246366   6.073   5.905  11.609 -0.0915  0.4135  0.0550
 7391TIP3   OH246367   0.478   4.809  12.911  0.1335 -0.5254  0.0062
 7391TIP3    H146368   0.510   4.870  12.844  1.4242 -1.7272 -0.5304
 7391TIP3    H246369   0.521   4.837  12.992  0.1860 -0.3266 -0.0888
 7392TIP3   OH246370   7.174   3.229  12.413 -0.0768  0.2206  0.0709
 7392TIP3    H146371   7.147   3.318  12.433 -0.3010  0.2796 -0.4814
 7392TIP3    H246372   7.098   3.189  12.370 -0.0528 -0.3017  0.5001
 7393TIP3   OH246373   6.798   5.271  12.730  0.3108  0.6636  0.5753
 7393TIP3    H146374   6.874   5.326  12.710  0.2582  1.7015  2.8946
 7393TIP3    H246375   6.833   5.201  12.786  0.5498 -2.4029 -2.9821
 7394TIP3   OH246376   3.320   6.516  12.982 -0.0622 -0.2245  0.0133
 7394TIP3    H146377   3.295   6.519  12.890 -2.0181 -0.6923  0.4833
 7394TIP3    H246378   3.345   6.425  12.997 -0.9593 -0.4448  0.2195
 7395TIP3   OH246379   7.007   3.413  13.414  0.1245  0.1897 -0.0204
 7395TIP3    H146380   7.063   3.488  13.435 -1.0911  1.1918 -0.1575
 7395TIP3    H246381   6.949   3.405  13.490  0.2714 -0.6474  0.0081
 7396TIP3   OH246382   7.749   6.504  11.869 -0.1366  0.1660 -0.8460
 7396TIP3    H146383   7.736   6.497  11.964 -1.2087  1.6047 -0.8458
 7396TIP3    H246384   7.833   6.547  11.859  0.3674 -0.7266 -0.5894
 7397TIP3   OH246385   3.908   0.251  11.617 -0.0930 -0.0239  0.0448
 7397TIP3    H146386   3.893   0.216  11.529  0.1592  0.6813 -0.2878
 7397TIP3    H246387   3.843   0.208  11.672  0.0543 -0.8284 -0.3945
 7398TIP3   OH246388   7.419   8.398  12.716 -0.3902 -0.7102 -0.0810
 7398TIP3    H146389   7.329   8.426  12.700 -0.4262 -1.0016 -0.4194
 7398TIP3    H246390   7.414   8.302  12.716  0.3330 -0.8576 -2.8495
 7399TIP3   OH246391   8.430   0.159  12.155  0.1833  0.1927 -0.2457
 7399TIP3    H146392   8.391   0.132  12.072 -0.1300  0.9622 -0.3536
 7399TIP3    H246393   8.447   0.252  12.144 -0.4783  0.4498  0.7969
 7400TIP3   OH246394   5.934   6.819  11.954 -0.0216  0.2968  0.0809
 7400TIP3    H146395   6.016   6.802  12.000 -1.0412 -1.2717  1.4340
 7400TIP3    H246396   5.917   6.738  11.905 -0.1660  1.0702 -1.1890
 7401TIP3   OH246397   1.002   1.496  12.784 -0.7097  0.2786  0.0122
 7401TIP3    H146398   1.032   1.586  12.799 -2.1137  0.7402  0.1239
 7401TIP3    H246399   1.055   1.443  12.845  0.1455  1.0026 -0.0736
 7402TIP3   OH246400   0.323   4.699  12.175 -0.3333  0.2005  0.2530
 7402TIP3    H146401   0.354   4.609  12.167 -0.2439  0.0440  1.9863
 7402TIP3    H246402   0.391   4.752  12.134 -0.2356 -0.4951 -0.4994
 7403TIP3   OH246403   0.062   3.630  13.011 -0.1805 -0.1183  0.7685
 7403TIP3    H146404   0.091   3.571  12.942 -0.8673 -0.0943  0.4512
 7403TIP3    H246405   0.135   3.633  13.073  0.4984 -0.0219 -0.0298
 7404TIP3   OH246406   0.674   0.229  13.599 -0.8345  0.3813 -0.2280
 7404TIP3    H146407   0.666   0.248  13.506  0.1904  0.7205 -0.2558
 7404TIP3    H246408   0.746   0.284  13.629 -1.1026  0.2222  0.7519
 7405TIP3   OH246409   2.160   4.557  12.222  0.7057 -0.2262 -0.0958
 7405TIP3    H146410   2.229   4.605  12.269  0.9521 -0.4421 -0.2338
 7405TIP3    H246411   2.099   4.530  12.290 -0.6026  2.1489 -0.2240
 7406TIP3   OH246412   2.390   2.418  12.279  0.0036 -0.2000  0.4266
 7406TIP3    H146413   2.466   2.472  12.256  0.1988 -0.7457 -0.2631
 7406TIP3    H246414   2.331   2.427  12.203 -0.4631 -0.0702  0.7975
 7407TIP3   OH246415   4.364   3.954  13.047 -0.2057 -0.0157 -0.1430
 7407TIP3    H146416   4.287   3.990  13.091 -1.6008  0.1782 -2.5873
 7407TIP3    H246417   4.430   4.023  13.055 -1.8955  1.9560 -2.1956
 7408TIP3   OH246418   4.478   1.025  12.387  0.0699 -0.1875 -0.0854
 7408TIP3    H146419   4.558   1.055  12.431  1.0128 -1.0511 -1.1658
 7408TIP3    H246420   4.447   0.952  12.440  0.2894 -0.1913  0.0364
 7409TIP3   OH246421   5.205   6.096  12.373 -0.0294 -0.6632  0.6604
 7409TIP3    H146422   5.285   6.044  12.373  1.1847  1.0247  3.1070
 7409TIP3    H246423   5.173   6.091  12.463 -1.8164 -0.0180  0.1030
 7410TIP3   OH246424   1.385   7.468  11.380  0.3000  0.3303 -0.1419
 7410TIP3    H146425   1.420   7.528  11.446  1.2290  0.5608 -0.8159
 7410TIP3    H246426   1.463   7.432  11.337 -0.2726 -0.5224 -0.4914
 7411TIP3   OH246427   2.487   7.932  11.902 -0.0773 -0.5408 -0.3788
 7411TIP3    H146428   2.533   7.853  11.930  1.6624  0.7836  0.6727
 7411TIP3    H246429   2.543   8.004  11.930 -3.0446  1.2472  1.5223
 7412TIP3   OH246430   0.634   5.310  11.768  0.2785  0.0599 -0.0134
 7412TIP3    H146431   0.669   5.399  11.770 -2.3582  1.1919  1.0517
 7412TIP3    H246432   0.711   5.254  11.758  2.2410  2.3508  1.1144
 7413TIP3   OH246433   6.471   6.277  12.578 -0.1275  0.2543  0.0425
 7413TIP3    H146434   6.530   6.208  12.548 -0.9548  0.2294 -1.6060
 7413TIP3    H246435   6.522   6.357  12.572  0.4262 -0.0292  0.7530
 7414TIP3   OH246436   1.053   1.892  11.805  0.1331 -0.1725 -0.1587
 7414TIP3    H146437   1.130   1.940  11.834  0.9078 -0.9661 -0.8348
 7414TIP3    H246438   0.979   1.945  11.834  0.8822 -0.0765  1.7296
 7415TIP3   OH246439   8.121   4.155  12.177  0.4509  0.3869  0.2049
 7415TIP3    H146440   8.085   4.069  12.200 -0.5097  0.3423 -1.3246
 7415TIP3    H246441   8.065   4.218  12.223  1.5181  0.2122  1.8036
 7416TIP3   OH246442   4.282   5.606  14.077  0.6593  0.8856 -0.1097
 7416TIP3    H146443   4.348   5.537  14.072 -0.0529  0.2719 -1.2417
 7416TIP3    H246444   4.269   5.619  14.171  2.0465  0.7067  0.1411
 7417TIP3   OH246445   2.483   6.201  12.782  0.2642  0.0244 -0.8717
 7417TIP3    H146446   2.514   6.292  12.787  1.6354 -0.4575  3.1562
 7417TIP3    H246447   2.397   6.203  12.823 -1.1581 -0.1591 -3.5961
 7418TIP3   OH246448   4.872   5.703  14.227 -0.3376 -0.5088 -0.0972
 7418TIP3    H146449   4.836   5.758  14.296 -1.1734 -0.1233 -0.8160
 7418TIP3    H246450   4.849   5.748  14.145 -0.1724 -1.4052 -0.6599
 7419TIP3   OH246451   6.684   8.127  12.942  0.4758 -0.0672  0.0783
 7419TIP3    H146452   6.620   8.071  12.985 -0.1642  0.4776 -0.1454
 7419TIP3    H246453   6.753   8.067  12.913 -0.1021 -0.7067  0.0051
 7420TIP3   OH246454   7.413   1.467  12.848  0.1229  0.1346 -0.4740
 7420TIP3    H146455   7.338   1.518  12.877  0.4630 -0.7684  2.2035
 7420TIP3    H246456   7.487   1.500  12.899  0.7117 -1.7286 -0.0226
 7421TIP3   OH246457   8.375   3.799  11.463  0.1843 -0.0104  0.1603
 7421TIP3    H146458   8.280   3.801  11.459  0.1704 -0.2056  0.3804
 7421TIP3    H246459   8.403   3.875  11.412 -0.0916  0.1136  0.1950
 7422TIP3   OH246460   1.337   4.682  13.250  0.3358  0.3683 -0.0266
 7422TIP3    H146461   1.337   4.754  13.313 -0.5345  1.0635 -0.7950
 7422TIP3    H246462   1.324   4.603  13.303 -0.8305  0.9779  0.6179
 7423TIP3   OH246463   3.294   8.379  12.567  0.1228  0.4327  0.1544
 7423TIP3    H146464   3.199   8.363  12.575 -0.1118  0.6536 -1.7119
 7423TIP3    H246465   3.300   8.465  12.526  1.1167  0.1430 -0.3295
 7424TIP3   OH246466   0.685   0.324  13.343 -0.0055  0.2274  0.2660
 7424TIP3    H146467   0.776   0.301  13.326  0.0772  1.0862 -0.5206
 7424TIP3    H246468   0.652   0.356  13.259 -0.9872  0.0783  0.5793
 7425TIP3   OH246469   0.639   3.561  12.249 -0.1727 -0.0300  0.0334
 7425TIP3    H146470   0.560   3.573  12.196 -1.7485  0.5608  2.3525
 7425TIP3    H246471   0.664   3.649  12.274 -0.5436 -0.3510  1.6691
 7426TIP3   OH246472   2.605   2.548  12.172  0.1214  0.3814 -0.2727
 7426TIP3    H146473   2.682   2.545  12.228 -1.2672  0.1772  1.7447
 7426TIP3    H246474   2.635   2.588  12.090  2.4950 -0.3993  0.1547
 7427TIP3   OH246475   7.153   0.058  12.649 -0.1719 -0.0764  0.2039
 7427TIP3    H146476   7.104   0.102  12.718 -0.8708 -0.2957 -0.1383
 7427TIP3    H246477   7.139   0.112  12.571  1.5148  0.7776  0.4479
 7428TIP3   OH246478   6.022   3.128  11.573 -0.0818  0.0137 -0.7662
 7428TIP3    H146479   6.104   3.080  11.572  0.3611  0.2174  3.6904
 7428TIP3    H246480   5.956   3.062  11.593 -0.5903  0.2749 -1.5378
 7429TIP3   OH246481   7.647   2.423  12.298 -0.1380 -0.1593 -0.2203
 7429TIP3    H146482   7.707   2.496  12.308 -1.5608  1.1313 -0.7983
 7429TIP3    H246483   7.699   2.354  12.258  0.9563  0.9050 -0.6681
 7430TIP3   OH246484   7.570   5.052  13.132  0.3053  0.0092 -0.1789
 7430TIP3    H146485   7.581   4.961  13.159 -0.3679  0.2624  1.0029
 7430TIP3    H246486   7.543   5.098  13.211 -0.6560  0.9974 -1.0496
 7431TIP3   OH246487   8.054   6.272  12.472 -0.1093 -0.6503  0.5794
 7431TIP3    H146488   7.966   6.309  12.486  1.2387  2.7562  0.8879
 7431TIP3    H246489   8.067   6.213  12.546 -1.7559 -0.5016  1.0402
 7432TIP3   OH246490   7.137   5.215  11.258 -0.2482 -0.4708  0.3757
 7432TIP3    H146491   7.179   5.292  11.297 -1.1626  0.9105 -1.1950
 7432TIP3    H246492   7.209   5.161  11.226  0.4329  1.0933 -0.8922
 7433TIP3   OH246493   3.853   5.207  11.952 -0.0458 -0.1620  0.2515
 7433TIP3    H146494   3.937   5.240  11.920 -0.2756  0.1813 -0.0004
 7433TIP3    H246495   3.864   5.204  12.047  0.8296 -1.7084  0.1354
 7434TIP3   OH246496   2.850   3.921  12.109 -0.0370 -0.4431 -0.0025
 7434TIP3    H146497   2.863   3.869  12.189 -0.6586 -2.0848 -0.9143
 7434TIP3    H246498   2.887   3.866  12.039 -2.1266 -0.4097 -1.2115
 7435TIP3   OH246499   4.146   5.445  11.928  0.0215 -0.0770 -0.0539
 7435TIP3    H146500   4.223   5.389  11.922 -0.8673 -1.2959 -0.6597
 7435TIP3    H246501   4.110   5.446  11.840  0.1921  1.7640 -0.1344
 7436TIP3   OH246502   6.574   8.298  13.559 -0.3637 -1.1427  0.4261
 7436TIP3    H146503   6.503   8.238  13.582 -1.0075 -0.4443  0.2736
 7436TIP3    H246504   6.555   8.325  13.469 -2.5076  2.5846  1.7838
 7437TIP3   OH246505   1.885   5.650  12.774 -0.3478  0.1322 -0.2692
 7437TIP3    H146506   1.917   5.683  12.691  1.0215  0.6170  0.4226
 7437TIP3    H246507   1.926   5.706  12.840 -3.1025  1.2027  0.6833
 7438TIP3   OH246508   4.617   2.315  12.946  0.4124 -0.5129 -0.1107
 7438TIP3    H146509   4.631   2.409  12.938  2.5234 -0.7913 -0.1783
 7438TIP3    H246510   4.534   2.300  12.899  0.4461  1.1898 -0.8059
 7439TIP3   OH246511   0.848   4.963  12.029  0.0747 -0.4090 -1.0820
 7439TIP3    H146512   0.883   5.003  12.108  3.2915 -1.9989 -1.5409
 7439TIP3    H246513   0.844   4.870  12.050  1.0061 -0.8597 -2.7345
 7440TIP3   OH246514   4.532   1.717  11.692 -0.1199 -0.1873 -0.4629
 7440TIP3    H146515   4.583   1.787  11.649  0.5538  0.8806  1.9192
 7440TIP3    H246516   4.597   1.667  11.742 -1.1837  0.6074  1.8679
 7441TIP3   OH246517   7.904   3.782  11.728 -0.2373 -0.0282  0.4103
 7441TIP3    H146518   7.901   3.872  11.696 -0.3684 -0.3262 -0.4367
 7441TIP3    H246519   7.946   3.789  11.814  1.1307  0.6740 -0.2814
 7442TIP3   OH246520   2.631   4.200  13.210 -0.0291  0.3615 -0.0856
 7442TIP3    H146521   2.648   4.214  13.304 -0.1432  1.2817 -0.1899
 7442TIP3    H246522   2.670   4.115  13.191 -0.7226 -0.2121  0.9799
 7443TIP3   OH246523   2.864   6.589  13.618  0.1763  0.1362 -0.0868
 7443TIP3    H146524   2.867   6.493  13.614 -1.4572  0.0570 -0.0655
 7443TIP3    H246525   2.956   6.615  13.624  0.6400 -1.4428  0.2933
 7444TIP3   OH246526   1.517   3.710  12.473  0.1421  0.1359 -0.2663
 7444TIP3    H146527   1.475   3.642  12.525  1.0005 -0.9761 -0.9893
 7444TIP3    H246528   1.598   3.670  12.443  0.8917  1.6500 -0.3191
 7445TIP3   OH246529   5.489   7.990  13.748 -0.0292  0.5656  0.0819
 7445TIP3    H146530   5.541   7.930  13.801 -0.4431  0.1838  0.0573
 7445TIP3    H246531   5.406   7.945  13.733 -0.7330  1.5303  0.8846
 7446TIP3   OH246532   7.981   2.961  12.443  0.2029 -0.4909  0.3996
 7446TIP3    H146533   7.892   2.927  12.435 -0.0472  0.2130  0.1075
 7446TIP3    H246534   8.037   2.885  12.424 -0.2864 -1.4029  2.3320
 7447TIP3   OH246535   8.297   4.494  12.265  0.1482  0.2622 -0.1445
 7447TIP3    H146536   8.299   4.399  12.257 -2.1296  0.1945 -0.6773
 7447TIP3    H246537   8.320   4.526  12.178 -0.4436  0.1284 -0.3614
 7448TIP3   OH246538   4.797   8.175  12.673  0.0573  0.5789  0.1308
 7448TIP3    H146539   4.736   8.120  12.624  1.3464 -0.2041 -0.6602
 7448TIP3    H246540   4.762   8.264  12.664 -1.8144 -0.0100  1.0482
 7449TIP3   OH246541   1.419   7.621  13.226  0.1047 -0.3469  0.3724
 7449TIP3    H146542   1.361   7.664  13.289 -0.3539 -0.3726 -0.0218
 7449TIP3    H246543   1.502   7.612  13.272  0.3447  1.3216  0.3521
 7450TIP3   OH246544   6.263   6.590  12.486  0.2540 -0.4300 -0.2187
 7450TIP3    H146545   6.291   6.582  12.395  0.9802  2.1018 -0.3062
 7450TIP3    H246546   6.171   6.564  12.486 -0.3301  1.3489 -2.1288
 7451TIP3   OH246547   4.548   7.396  11.512 -0.2321  0.0148  0.5974
 7451TIP3    H146548   4.504   7.400  11.597 -2.3006  2.1443 -0.4473
 7451TIP3    H246549   4.476   7.392  11.448  1.1764  0.9842 -1.1382
 7452TIP3   OH246550   5.004   3.374  13.161  0.0695 -0.0810  0.3610
 7452TIP3    H146551   4.948   3.440  13.121 -0.5541 -1.9111 -2.0521
 7452TIP3    H246552   5.088   3.418  13.175  0.2795  0.8332 -2.9046
 7453TIP3   OH246553   3.492   4.997  13.780  0.6495  0.2000 -0.8443
 7453TIP3    H146554   3.444   5.077  13.802 -0.4612 -0.9880  1.5096
 7453TIP3    H246555   3.572   5.028  13.738 -0.5647  2.4338 -1.6873
 7454TIP3   OH246556   6.266   3.544  12.895  0.2723 -0.6649 -0.3359
 7454TIP3    H146557   6.177   3.511  12.880 -0.4286  1.1783 -0.4496
 7454TIP3    H246558   6.254   3.614  12.959  1.8552 -1.3369  0.7520
 7455TIP3   OH246559   1.666   2.217  13.131  0.0562 -0.3410 -0.2542
 7455TIP3    H146560   1.696   2.301  13.096  1.0222  0.2397  1.7846
 7455TIP3    H246561   1.733   2.193  13.195 -0.4332 -2.4642 -0.4765
 7456TIP3   OH246562   6.554   0.368  12.217 -0.5835  0.6006  0.3894
 7456TIP3    H146563   6.524   0.447  12.172  0.1830 -0.4461 -2.1666
 7456TIP3    H246564   6.561   0.393  12.308 -1.0924  3.2517 -0.2246
 7457TIP3   OH246565   5.197   6.163  13.789 -0.1540  0.5352  0.5806
 7457TIP3    H146566   5.218   6.236  13.731 -1.3356 -0.1418 -0.7466
 7457TIP3    H246567   5.113   6.186  13.828 -1.4142 -0.8250 -1.1752
 7458TIP3   OH246568   2.452   1.036  12.888 -0.2965 -0.0140 -0.7608
 7458TIP3    H146569   2.543   1.014  12.870 -0.7831 -0.9281 -2.2702
 7458TIP3    H246570   2.447   1.131  12.874  0.5639  0.1677  0.0788
 7459TIP3   OH246571   6.974   6.393  11.743 -0.3473  0.3249  0.3208
 7459TIP3    H146572   7.068   6.379  11.757  0.4059  2.0853 -2.1617
 7459TIP3    H246573   6.934   6.308  11.761  1.6082 -0.3312  2.0185
 7460TIP3   OH246574   0.704   4.849  12.253 -0.2913  0.1543 -0.2462
 7460TIP3    H146575   0.700   4.933  12.299  0.4028  1.0594 -1.7409
 7460TIP3    H246576   0.737   4.787  12.318 -0.3955  1.1391  0.7710
 7461TIP3   OH246577   5.466   2.586  11.848  0.2502 -0.3524  0.1970
 7461TIP3    H146578   5.458   2.550  11.759 -0.1862  0.9622 -0.3134
 7461TIP3    H246579   5.383   2.566  11.890 -0.0830  0.2398 -0.1652
 7462TIP3   OH246580   0.623   4.891  13.346  0.0830  0.0469 -0.5661
 7462TIP3    H146581   0.686   4.952  13.383  0.4839  0.8618 -2.4752
 7462TIP3    H246582   0.538   4.922  13.377  0.4464  0.2231  0.2829
 7463TIP3   OH246583   2.851   7.113  12.036  0.6645 -0.2039 -0.3572
 7463TIP3    H146584   2.930   7.102  12.089  1.4207  0.0877 -1.3817
 7463TIP3    H246585   2.787   7.153  12.095  1.2634 -0.4923  0.5024
 7464TIP3   OH246586   4.498   7.960  12.192  0.4292 -0.1769  0.6055
 7464TIP3    H146587   4.556   7.997  12.257 -0.3832  0.1811  1.1403
 7464TIP3    H246588   4.418   8.013  12.197  0.1413 -0.5057 -0.2716
 7465TIP3   OH246589   8.247   6.504  12.133 -0.0805  0.0995 -0.7242
 7465TIP3    H146590   8.252   6.415  12.099  0.1600 -0.3860  0.5441
 7465TIP3    H246591   8.169   6.505  12.188 -1.1457  1.2149 -2.1802
 7466TIP3   OH246592   2.347   3.650  13.648  0.1349 -0.3535  0.5983
 7466TIP3    H146593   2.359   3.594  13.571  1.5175  0.7233 -0.0109
 7466TIP3    H246594   2.422   3.709  13.646 -0.8344  0.9642  1.7098
 7467TIP3   OH246595   7.104   5.133  11.715 -0.2459  0.6158  0.5143
 7467TIP3    H146596   7.163   5.177  11.777 -0.8152  0.0763  1.4718
 7467TIP3    H246597   7.061   5.204  11.668 -0.7472  1.0882  1.6536
 7468TIP3   OH246598   0.180   8.362  13.290 -0.1220 -0.0771 -0.1980
 7468TIP3    H146599   0.219   8.398  13.370  1.4412 -0.1303 -0.9035
 7468TIP3    H246600   0.120   8.430  13.261  0.4062  0.5877  0.2266
 7469TIP3   OH246601   2.513   1.885  12.884  0.3276 -0.4986  0.2066
 7469TIP3    H146602   2.539   1.796  12.860  0.9218  0.1342 -1.7021
 7469TIP3    H246603   2.420   1.890  12.862  0.1745 -0.7883  0.7808
 7470TIP3   OH246604   0.821   3.637  13.346  0.1533  0.2007  0.0659
 7470TIP3    H146605   0.810   3.546  13.320  0.7482 -0.0441  0.6466
 7470TIP3    H246606   0.824   3.634  13.442 -1.3434  1.0049  0.1647
 7471TIP3   OH246607   2.129   6.442  12.759 -0.1518 -0.0250  0.2082
 7471TIP3    H146608   2.133   6.535  12.782  0.0036  0.0339 -0.0489
 7471TIP3    H246609   2.094   6.399  12.837  3.8135 -0.3475  2.0874
 7472TIP3   OH246610   5.925   4.228  13.677  0.0077  0.4895 -0.0806
 7472TIP3    H146611   5.995   4.162  13.673 -0.3308  0.1353 -0.2851
 7472TIP3    H246612   5.912   4.244  13.771 -1.2474 -1.2044  0.0830
 7473TIP3   OH246613   7.086   1.603  13.276  0.1808 -0.2721 -0.1071
 7473TIP3    H146614   7.144   1.539  13.235  0.7804  0.6081 -0.6564
 7473TIP3    H246615   6.998   1.565  13.267  0.7177 -2.2089  1.8172
 7474TIP3   OH246616   7.563   5.204  13.366  0.8213  0.1157  0.1970
 7474TIP3    H146617   7.546   5.154  13.446 -0.5619 -0.1780 -0.2439
 7474TIP3    H246618   7.510   5.283  13.377 -0.8397 -0.7444 -1.1771
 7475TIP3   OH246619   3.527   0.483  13.513  0.3238  0.1404 -0.0879
 7475TIP3    H146620   3.529   0.531  13.430  0.7461 -1.0486 -0.7861
 7475TIP3    H246621   3.436   0.490  13.542 -0.0795 -0.2939 -1.1864
 7476TIP3   OH246622   5.142   3.928  13.539 -0.2720  0.1897 -0.2094
 7476TIP3    H146623   5.228   3.972  13.534 -0.3126  0.4052  0.7535
 7476TIP3    H246624   5.100   3.949  13.456  0.4900  0.3479 -0.5665
 7477TIP3   OH246625   5.807   5.066  12.921  0.0469 -0.3291 -0.1552
 7477TIP3    H146626   5.848   5.148  12.947 -1.8560  0.2172  1.3471
 7477TIP3    H246627   5.820   5.008  12.997 -1.4314 -0.3061  0.1442
 7478TIP3   OH246628   5.891   7.247  11.620 -0.6234 -0.1617 -0.0011
 7478TIP3    H146629   5.930   7.321  11.573 -1.2884  0.0421 -0.2347
 7478TIP3    H246630   5.798   7.251  11.599 -0.4976 -1.8804 -1.1422
 7479TIP3   OH246631   0.127   1.647  17.358 -0.1772 -0.1439  0.6282
 7479TIP3    H146632   0.193   1.646  17.288  0.6606 -0.8700  1.4047
 7479TIP3    H246633   0.069   1.574  17.338 -0.4699  0.2024  0.2030
 7480TIP3   OH246634   5.946   3.392  12.731 -0.2243  0.0081  0.4593
 7480TIP3    H146635   6.040   3.389  12.752 -0.2503 -1.0698  0.4416
 7480TIP3    H246636   5.934   3.323  12.666 -1.3603 -1.0891  1.7909
 7481TIP3   OH246637   4.068   4.764  13.794  0.0476 -0.1601  0.7638
 7481TIP3    H146638   4.140   4.707  13.769  0.0594 -0.3276  1.1739
 7481TIP3    H246639   3.989   4.711  13.783 -0.0706  0.2169 -0.2730
 7482TIP3   OH246640   3.097   8.015  11.991 -0.3050  0.3579 -0.4660
 7482TIP3    H146641   3.132   8.103  11.976 -2.0154  1.1369 -0.0943
 7482TIP3    H246642   3.054   8.020  12.077 -0.3946 -0.8537 -0.4182
 7483TIP3   OH246643   0.216   6.697  12.579 -0.5774 -0.2550 -0.3291
 7483TIP3    H146644   0.287   6.668  12.522  0.0973  0.4341  0.1408
 7483TIP3    H246645   0.191   6.783  12.544 -0.3665  0.0340  0.2219
 7484TIP3   OH246646   6.054   2.470  12.654  0.0190  0.0329 -0.5811
 7484TIP3    H146647   5.994   2.422  12.598 -0.4366 -0.0431 -0.0276
 7484TIP3    H246648   6.030   2.445  12.743  1.4903 -0.7557 -0.3734
 7485TIP3   OH246649   2.268   8.140  12.151 -1.0465 -0.5474 -0.3103
 7485TIP3    H146650   2.257   8.068  12.088  0.2044 -2.4687  1.5444
 7485TIP3    H246651   2.187   8.140  12.202 -0.2966 -2.0427  0.9698
 7486TIP3   OH246652   8.003   4.342  12.362  0.3908 -0.2412 -0.0361
 7486TIP3    H146653   7.955   4.263  12.388 -1.0711  0.6827  0.1404
 7486TIP3    H246654   7.936   4.404  12.334  1.5465  0.7860 -0.6505
 7487TIP3   OH246655   8.168   1.260  13.231  0.0369 -0.0265 -0.1981
 7487TIP3    H146656   8.262   1.261  13.212  0.0604 -1.1190 -0.2206
 7487TIP3    H246657   8.156   1.184  13.287 -0.7353  0.5349  0.4178
 7488TIP3   OH246658   0.928   6.923  11.526 -0.4869  0.0182 -0.1309
 7488TIP3    H146659   0.962   7.002  11.567 -2.6807  0.5217  0.8572
 7488TIP3    H246660   0.981   6.912  11.447  0.3122  2.0581  0.0784
 7489TIP3   OH246661   6.496   5.286  11.559  0.1050 -0.0700 -0.0519
 7489TIP3    H146662   6.585   5.253  11.566  0.3625  0.8016  1.3238
 7489TIP3    H246663   6.441   5.209  11.572  0.6790 -0.3519  0.8042
 7490TIP3   OH246664   1.430   3.904  13.555  0.2976 -0.0419  0.0002
 7490TIP3    H146665   1.350   3.956  13.563 -1.1630 -2.3476  1.6610
 7490TIP3    H246666   1.487   3.937  13.624 -1.2169 -1.4595  2.0714
 7491TIP3   OH246667   0.559   5.862  13.984 -0.2775  0.1092 -0.2845
 7491TIP3    H146668   0.547   5.849  13.890 -0.8662 -0.7038 -0.1085
 7491TIP3    H246669   0.500   5.799  14.025  0.8628 -0.4063  0.6418
 7492TIP3   OH246670   7.578   4.444  12.890 -0.2185  0.3382  0.1293
 7492TIP3    H146671   7.550   4.371  12.946  0.7000 -0.4566 -0.4215
 7492TIP3    H246672   7.673   4.444  12.896 -0.1700  0.9780 -0.5278
 7493TIP3   OH246673   6.113   2.597  12.088  0.0897  0.2604 -0.1861
 7493TIP3    H146674   6.196   2.604  12.041  0.6373 -1.5570  0.4388
 7493TIP3    H246675   6.074   2.684  12.080  1.0416  0.5597 -2.3416
 7494TIP3   OH246676   5.367   4.259  13.271  0.0784  0.5162  0.1948
 7494TIP3    H146677   5.425   4.330  13.296 -0.0443  0.6317  0.1517
 7494TIP3    H246678   5.401   4.182  13.317  1.3549  0.1787 -1.1995
 7495TIP3   OH246679   1.493   4.284  13.514  0.3701 -0.6932 -0.2292
 7495TIP3    H146680   1.452   4.210  13.470  0.7384 -1.5900  0.8713
 7495TIP3    H246681   1.424   4.350  13.521 -0.3953 -1.5115  0.0830
 7496TIP3   OH246682   2.825   3.673  13.003  0.1951  0.2273  0.1626
 7496TIP3    H146683   2.767   3.642  12.934 -0.5353 -0.0721  0.8921
 7496TIP3    H246684   2.889   3.728  12.958 -0.6509  0.5627 -0.6707
 7497TIP3   OH246685   6.444   6.421  13.435 -0.6240  0.0328 -0.1703
 7497TIP3    H146686   6.458   6.494  13.496 -3.6850  0.2954  0.3632
 7497TIP3    H246687   6.391   6.458  13.365 -2.9471 -1.7552  0.5129
 7498TIP3   OH246688   7.085   2.623  12.771 -0.0593 -0.5846 -0.1412
 7498TIP3    H146689   7.075   2.687  12.700  1.2828 -0.5931 -0.3562
 7498TIP3    H246690   6.999   2.622  12.814 -0.1945  1.1785 -0.2949
 7499TIP3   OH246691   4.334   7.249  13.066  0.2603  0.2805 -0.1067
 7499TIP3    H146692   4.427   7.242  13.047  0.2786 -1.0606  0.4114
 7499TIP3    H246693   4.303   7.159  13.071 -1.2780  0.7063 -1.2083
 7500TIP3   OH246694   7.103   1.445  12.176  0.0566  0.5466 -0.6057
 7500TIP3    H146695   7.109   1.449  12.271 -0.1160  0.5916 -0.5958
 7500TIP3    H246696   7.039   1.513  12.153 -0.9688 -0.4025 -0.6441
 7501TIP3   OH246697   2.853   1.128  12.941 -0.5332 -0.2263  0.6908
 7501TIP3    H146698   2.871   1.190  12.870 -0.2992  1.4299  2.0986
 7501TIP3    H246699   2.937   1.084  12.956 -1.0782 -2.0978 -1.3429
 7502TIP3   OH246700   0.365   3.604  13.403  0.6618 -0.0547 -0.3726
 7502TIP3    H146701   0.279   3.630  13.435  0.3125  0.1494 -1.4317
 7502TIP3    H246702   0.378   3.516  13.438  0.4828  0.3073  0.6432
 7503TIP3   OH246703   6.781   3.609  11.961  0.3344  0.1947 -0.2601
 7503TIP3    H146704   6.829   3.563  12.029 -0.0234  0.2896  0.0620
 7503TIP3    H246705   6.707   3.649  12.007 -0.7028 -0.8934 -0.9068
 7504TIP3   OH246706   1.644   8.418  12.158 -0.2392  0.1812  0.5151
 7504TIP3    H146707   1.646   8.494  12.216 -0.0379 -0.7896  1.8343
 7504TIP3    H246708   1.577   8.361  12.196 -0.7964 -0.0650 -0.7894
 7505TIP3   OH246709   5.662   8.351  13.542 -0.1159  0.2083 -0.2094
 7505TIP3    H146710   5.643   8.341  13.635  0.4712 -0.9592 -0.2003
 7505TIP3    H246711   5.622   8.275  13.501  0.9926 -0.1380 -0.6928
 7506TIP3   OH246712   5.589   6.617  12.823 -0.5074 -0.2099 -0.3900
 7506TIP3    H146713   5.663   6.677  12.810  0.6021 -1.7878 -1.6044
 7506TIP3    H246714   5.615   6.563  12.898 -0.6877 -0.3938 -0.4593
 7507TIP3   OH246715   7.275   0.982  13.370  0.4186 -0.1386  0.3920
 7507TIP3    H146716   7.362   1.014  13.346  1.0134 -2.7744 -1.3607
 7507TIP3    H246717   7.290   0.925  13.446  0.1065 -0.0172  0.5472
 7508TIP3   OH246718   5.087   7.046  12.509 -1.0121 -0.0462  0.0923
 7508TIP3    H146719   5.030   6.978  12.544  0.3460 -0.7486  1.0181
 7508TIP3    H246720   5.165   6.999  12.481 -0.4339  1.0253 -0.1223
 7509TIP3   OH246721   4.066   4.225  12.754  0.2402 -0.6055  0.6723
 7509TIP3    H146722   4.022   4.203  12.836  1.6451 -1.5546  1.2247
 7509TIP3    H246723   4.155   4.250  12.781  0.9680 -1.6918 -0.6023
 7510TIP3   OH246724   6.361   0.623  13.059  0.1929  0.1983 -0.5447
 7510TIP3    H146725   6.399   0.563  13.123 -0.7279 -0.0446 -0.2096
 7510TIP3    H246726   6.391   0.590  12.974  0.3558 -0.2493 -0.3166
 7511TIP3   OH246727   8.130   2.460  12.138  0.6822 -0.1035  0.1088
 7511TIP3    H146728   8.220   2.480  12.111  0.6536 -0.2456 -0.0954
 7511TIP3    H246729   8.129   2.476  12.232  0.8839  0.0361  0.0871
 7512TIP3   OH246730   4.952   7.409  12.255  0.5066 -0.0602  0.1732
 7512TIP3    H146731   5.021   7.470  12.279  1.2803 -1.7110  2.5701
 7512TIP3    H246732   4.994   7.323  12.256 -1.5047 -1.1325  1.8423
 7513TIP3   OH246733   7.030   7.269  13.199 -0.3522  0.8910  0.0949
 7513TIP3    H146734   7.033   7.277  13.104 -0.3768  1.6039  0.1508
 7513TIP3    H246735   6.937   7.255  13.218 -0.2646  0.0833 -0.0287
 7514TIP3   OH246736   4.657   1.727  12.058 -0.6617 -0.2304 -0.6512
 7514TIP3    H146737   4.622   1.695  12.142 -1.7229  0.6820 -0.7212
 7514TIP3    H246738   4.662   1.649  12.003 -0.2274 -0.7938  0.1688
 7515TIP3   OH246739   1.001   4.911  11.799  0.1134 -0.3118  0.0072
 7515TIP3    H146740   0.944   4.919  11.875 -1.0788 -0.5673 -0.8372
 7515TIP3    H246741   0.960   4.845  11.744 -0.2580  1.3672 -1.8654
 7516TIP3   OH246742   2.377   6.644  12.593 -0.0728  0.0753  0.7928
 7516TIP3    H146743   2.396   6.737  12.597  0.4414  0.0120 -0.0501
 7516TIP3    H246744   2.284   6.637  12.615 -0.5225  0.9486 -0.7124
 7517TIP3   OH246745   5.539   6.440  12.638  0.1503  0.1715 -0.0108
 7517TIP3    H146746   5.612   6.384  12.663  0.0077 -0.2578 -0.5371
 7517TIP3    H246747   5.571   6.529  12.651  0.7179 -0.0134 -0.1160
 7518TIP3   OH246748   5.809   3.141  13.139 -0.4280  0.0283 -0.2096
 7518TIP3    H146749   5.757   3.195  13.081 -1.3983 -0.2680  0.3537
 7518TIP3    H246750   5.800   3.182  13.225 -0.1525 -0.3144 -0.0125
 7519TIP3   OH246751   6.245   3.036  12.661 -1.0041  0.1201 -0.4280
 7519TIP3    H146752   6.211   2.994  12.582 -1.0684 -0.9249  0.1361
 7519TIP3    H246753   6.323   3.083  12.631  0.0087 -1.7177 -0.8395
 7520TIP3   OH246754   6.734   6.390  11.188 -0.3691 -0.1485  0.1247
 7520TIP3    H146755   6.741   6.305  11.232 -2.3856 -0.0652  0.6923
 7520TIP3    H246756   6.803   6.443  11.228 -0.9245 -0.6579  1.8510
 7521TIP3   OH246757   3.958   4.228  12.326 -0.4814 -0.4429 -0.1968
 7521TIP3    H146758   4.026   4.293  12.345 -0.2657  0.0072 -2.2454
 7521TIP3    H246759   3.982   4.193  12.240 -1.4776 -2.1041  0.1639
 7522TIP3   OH246760   6.317   8.087  13.367 -0.0719  0.2387  0.5896
 7522TIP3    H146761   6.315   8.125  13.455  0.7236 -1.3771  1.3409
 7522TIP3    H246762   6.298   7.995  13.381 -0.9392  0.1400 -1.0709
 7523TIP3   OH246763   3.112   2.798  11.544 -0.5330 -0.1958  0.5727
 7523TIP3    H146764   3.097   2.885  11.506  0.1969  0.2331  1.2481
 7523TIP3    H246765   3.186   2.810  11.604 -0.8254 -1.1479  1.1435
 7524TIP3   OH246766   8.074   7.350  13.495  0.1308 -0.3706  0.2638
 7524TIP3    H146767   8.144   7.313  13.442  0.5567 -0.7569  1.0695
 7524TIP3    H246768   8.001   7.360  13.435  1.5351  2.2290 -1.2037
 7525TIP3   OH246769   1.742   4.161  13.319 -0.1057 -0.5914  0.4219
 7525TIP3    H146770   1.722   4.255  13.326 -2.2799 -0.9350 -0.4386
 7525TIP3    H246771   1.744   4.131  13.410  0.6530  0.2745  0.7137
 7526TIP3   OH246772   3.643   7.386  12.736 -0.2198 -0.4660 -0.3123
 7526TIP3    H146773   3.636   7.319  12.804 -0.1251  0.3376  0.5185
 7526TIP3    H246774   3.591   7.353  12.663 -0.6373 -1.1716  0.2965
 7527TIP3   OH246775   7.849   1.434  12.629 -0.1628  0.3889  0.7766
 7527TIP3    H146776   7.932   1.393  12.606 -0.9409 -0.3403 -0.9085
 7527TIP3    H246777   7.789   1.407  12.559 -1.7761  1.0243  1.8579
 7528TIP3   OH246778   0.525   6.567  12.107 -0.0100 -0.1494 -0.0272
 7528TIP3    H146779   0.580   6.490  12.098 -1.4697 -1.1404 -0.9060
 7528TIP3    H246780   0.483   6.577  12.021  0.4718  1.9085 -0.0842
 7529TIP3   OH246781   3.423   2.134  12.541  0.2147 -0.3705 -0.3655
 7529TIP3    H146782   3.328   2.147  12.534  0.3428 -0.0039 -1.8696
 7529TIP3    H246783   3.453   2.132  12.450  1.6070 -0.8556  0.0851
 7530TIP3   OH246784   0.782   7.195  12.305  0.8945  0.2505 -0.1672
 7530TIP3    H146785   0.742   7.281  12.318  0.5059  0.0016  0.3438
 7530TIP3    H246786   0.755   7.169  12.217 -1.0406 -0.3956  0.5680
 7531TIP3   OH246787   7.592   7.418  12.200 -0.6271 -0.5551 -0.0574
 7531TIP3    H146788   7.685   7.402  12.181 -0.6881 -2.8069  1.2119
 7531TIP3    H246789   7.592   7.495  12.257  0.2132  0.8290 -1.7926
 7532TIP3   OH246790   4.232   2.633  12.658  0.9757 -0.1309  0.1763
 7532TIP3    H146791   4.242   2.715  12.706 -1.7064 -0.5321  1.6153
 7532TIP3    H246792   4.142   2.635  12.625  1.7039 -1.3538 -2.0844
 7533TIP3   OH246793   3.815   1.160  12.996  0.1169  0.3051  0.5049
 7533TIP3    H146794   3.882   1.100  12.964 -0.1527  0.4022 -0.2822
 7533TIP3    H246795   3.740   1.104  13.017 -0.1822  0.3518 -0.3570
 7534TIP3   OH246796   7.192   2.311  12.010  0.6263 -0.3278  0.1278
 7534TIP3    H146797   7.282   2.304  12.042  1.1388  3.2833 -0.0510
 7534TIP3    H246798   7.175   2.406  12.008 -3.1128 -0.8536 -0.1003
 7535TIP3   OH246799   5.507   7.665  13.735 -0.3156  0.0267  0.3103
 7535TIP3    H146800   5.572   7.624  13.677 -1.0518 -0.3672 -0.2517
 7535TIP3    H246801   5.556   7.686  13.815  1.0220  1.5979 -0.8384
 7536TIP3   OH246802   2.367   1.137  11.666  0.3762 -0.1029 -0.2579
 7536TIP3    H146803   2.298   1.170  11.724  1.0881  1.4473 -0.2310
 7536TIP3    H246804   2.320   1.108  11.587 -0.5507 -1.7700  0.8463
 7537TIP3   OH246805   2.238   1.671  13.244 -0.2057  0.2101  0.3741
 7537TIP3    H146806   2.245   1.765  13.263 -0.2050 -0.3284  3.5211
 7537TIP3    H246807   2.144   1.652  13.251  0.0355 -0.4916  3.0470
 7538TIP3   OH246808   1.828   1.178  11.836  0.3940  0.3387 -0.2141
 7538TIP3    H146809   1.839   1.107  11.899  0.3364  0.0205 -0.5590
 7538TIP3    H246810   1.735   1.179  11.817  0.4259  0.3704 -0.3689
 7539TIP3   OH246811   4.945   5.648  12.240  0.2172  0.2567  0.2979
 7539TIP3    H146812   4.915   5.600  12.163 -0.1148  3.2860 -1.6287
 7539TIP3    H246813   5.027   5.690  12.212  0.6601  0.6024  1.9749
 7540TIP3   OH246814   1.209   6.686  12.910 -0.5571  0.0882 -0.1733
 7540TIP3    H146815   1.250   6.664  12.827  0.8802  0.9217  0.2550
 7540TIP3    H246816   1.201   6.603  12.956  0.1909 -0.1808 -0.5045
 7541TIP3   OH246817   0.223   1.962  11.918  0.1388  0.3352  0.1939
 7541TIP3    H146818   0.162   1.972  11.990  0.4735  0.9836  0.3882
 7541TIP3    H246819   0.276   1.885  11.942 -1.6139 -1.2609 -0.7334
 7542TIP3   OH246820   0.741   3.691  12.771  0.4135 -0.5528 -0.3851
 7542TIP3    H146821   0.659   3.727  12.738  0.4016  0.0859  0.3114
 7542TIP3    H246822   0.808   3.726  12.714  0.4577  1.0261  0.5777
 7543TIP3   OH246823   8.397   0.119  12.753 -0.3971  0.2678  0.0475
 7543TIP3    H146824   8.349   0.119  12.836 -1.8200 -1.4642 -0.6999
 7543TIP3    H246825   8.372   0.201  12.711 -0.2916  0.7842  0.9668
 7544TIP3   OH246826   4.304   6.357  13.822 -0.4923  0.2343  0.0838
 7544TIP3    H146827   4.269   6.424  13.763 -0.1111  0.9331  0.6345
 7544TIP3    H246828   4.235   6.291  13.825 -0.8068  0.5098 -0.6085
 7545TIP3   OH246829   1.468   7.795  12.133 -0.1322  0.3722  0.7554
 7545TIP3    H146830   1.378   7.828  12.127 -0.4939 -0.5750  0.7677
 7545TIP3    H246831   1.512   7.833  12.057 -0.4221  1.1799  0.9756
 7546TIP3   OH246832   4.655   4.409  11.982 -0.3607  0.4926 -0.4995
 7546TIP3    H146833   4.606   4.492  11.986  0.6760  1.0773  1.9380
 7546TIP3    H246834   4.717   4.422  11.911 -1.2189  1.1942 -1.1608
 7547TIP3   OH246835   5.627   0.440  11.654 -0.8011 -0.3237 -0.5463
 7547TIP3    H146836   5.534   0.464  11.649 -1.2013 -1.9030 -1.3807
 7547TIP3    H246837   5.628   0.358  11.702  0.6291  1.6505  3.1445
 7548TIP3   OH246838   1.347   1.819  13.472 -0.3464  0.2430  0.5710
 7548TIP3    H146839   1.407   1.847  13.541 -0.7248  1.1569  0.5306
 7548TIP3    H246840   1.379   1.863  13.393 -0.0742 -0.5867  0.2052
 7549TIP3   OH246841   1.137   0.829  12.959  0.3970 -0.4868  0.0785
 7549TIP3    H146842   1.166   0.907  13.006  2.0755 -0.8681 -0.2582
 7549TIP3    H246843   1.043   0.825  12.975  0.6036  0.4748  1.7753
 7550TIP3   OH246844   8.250   5.065  11.690  0.1573  0.3959 -0.9026
 7550TIP3    H146845   8.294   4.988  11.727  0.6488  0.8423 -0.5433
 7550TIP3    H246846   8.174   5.030  11.645 -0.1833 -0.2156  0.1154
 7551TIP3   OH246847   2.654   0.785  11.546  0.1451  0.4788 -0.5765
 7551TIP3    H146848   2.669   0.754  11.635  3.1304 -1.2388 -1.5457
 7551TIP3    H246849   2.653   0.881  11.554 -0.8836  0.3319  1.4307
 7552TIP3   OH246850   1.106   1.800  12.111 -0.5283  0.3396 -0.5144
 7552TIP3    H146851   1.085   1.757  12.029 -2.1997 -1.3443  0.7111
 7552TIP3    H246852   1.186   1.757  12.142  0.0003  0.8535 -1.1469
 7553TIP3   OH246853   0.276   3.897  12.240 -0.2581  0.4783 -0.4084
 7553TIP3    H146854   0.234   3.813  12.222  1.3283 -0.1929 -1.1761
 7553TIP3    H246855   0.286   3.938  12.154  1.4433  0.1967 -0.3847
 7554TIP3   OH246856   3.680   1.337  12.382 -0.4222  0.1141 -0.0527
 7554TIP3    H146857   3.741   1.310  12.313 -1.6818  1.5757 -1.8121
 7554TIP3    H246858   3.594   1.313  12.348 -1.1926  2.1836  0.3199
 7555TIP3   OH246859   0.778   3.804  12.130  0.5717  0.1112 -0.2729
 7555TIP3    H146860   0.840   3.751  12.180  1.3359 -0.7175 -1.9995
 7555TIP3    H246861   0.777   3.888  12.175 -0.3814 -1.1907  2.3271
 7556TIP3   OH246862   4.411   3.806  11.481 -0.1373 -0.0312 -0.3619
 7556TIP3    H146863   4.420   3.755  11.401  1.9162 -1.4524  0.6803
 7556TIP3    H246864   4.481   3.872  11.476 -0.3975  0.2791 -0.0187
 7557TIP3   OH246865   5.869   0.412  12.863  0.1534  0.0119 -0.2803
 7557TIP3    H146866   5.925   0.381  12.935  2.1942  0.2964 -1.6598
 7557TIP3    H246867   5.875   0.508  12.868  0.7061  0.0319 -1.0761
 7558TIP3   OH246868   5.257   8.446  11.683  0.5994  0.2004 -0.0998
 7558TIP3    H146869   5.187   8.419  11.623  0.8278  0.5623 -0.5246
 7558TIP3    H246870   5.216   8.512  11.739  0.9767  1.4419 -1.2517
 7559TIP3   OH246871   5.813   7.770  12.717  0.8321 -0.5167  0.3217
 7559TIP3    H146872   5.735   7.782  12.771  0.9999  1.4455  0.1969
 7559TIP3    H246873   5.843   7.682  12.738 -0.9205 -0.9915  1.0196
 7560TIP3   OH246874   6.763   3.355  11.559  0.0292  0.2539 -0.3600
 7560TIP3    H146875   6.829   3.349  11.628 -0.1431 -2.7012 -0.3251
 7560TIP3    H246876   6.810   3.386  11.482  0.6841  1.4706  0.5004
 7561TIP3   OH246877   6.109   3.858  12.470  0.2100 -0.3710  0.5111
 7561TIP3    H146878   6.151   3.772  12.464 -0.4557 -0.9168  2.7947
 7561TIP3    H246879   6.181   3.920  12.459  0.6681 -1.1554 -1.4318
 7562TIP3   OH246880   8.237   2.293  11.855  0.6105 -0.1917 -0.4764
 7562TIP3    H146881   8.246   2.253  11.942 -3.7345 -1.8912 -0.5547
 7562TIP3    H246882   8.256   2.221  11.794  0.6218  0.1376 -0.8591
 7563TIP3   OH246883   5.923   0.244  12.190  0.6008 -0.4129  0.1169
 7563TIP3    H146884   6.003   0.207  12.151  1.4892  1.7471 -0.2477
 7563TIP3    H246885   5.942   0.337  12.200 -0.8155 -0.3177  2.7930
 7564TIP3   OH246886   5.305   8.369  12.146  0.1023 -0.2023  0.2040
 7564TIP3    H146887   5.399   8.381  12.157 -0.3984  3.3773  1.8543
 7564TIP3    H246888   5.273   8.452  12.110 -2.7736  0.0438  2.8368
 7565TIP3   OH246889   1.723   4.908  12.272 -0.3593 -0.0572  0.2712
 7565TIP3    H146890   1.635   4.944  12.259 -0.3353 -0.1852 -0.2811
 7565TIP3    H246891   1.758   4.897  12.184  1.4198  2.8857  0.4803
 7566TIP3   OH246892   4.103   5.157  12.535 -0.2406 -0.3652 -0.3016
 7566TIP3    H146893   4.071   5.121  12.618 -0.9107 -0.0700 -0.4250
 7566TIP3    H246894   4.024   5.191  12.492  0.3641  1.2373 -0.2018
 7567TIP3   OH246895   7.631   4.755  11.455  0.1257  0.8017  0.5481
 7567TIP3    H146896   7.539   4.752  11.482  0.1646  0.4809  0.6510
 7567TIP3    H246897   7.644   4.674  11.407  0.5674  0.4508  1.2354
 7568TIP3   OH246898   6.642   3.200  13.194 -0.2887  0.1949  0.2168
 7568TIP3    H146899   6.602   3.286  13.178  0.8400  0.8830  0.9718
 7568TIP3    H246900   6.727   3.204  13.149 -0.0492 -0.3769  0.6121
 7569TIP3   OH246901   3.727   2.111  12.056 -0.3604 -0.3478 -0.6178
 7569TIP3    H146902   3.803   2.166  12.041  1.1551 -2.1862 -0.1573
 7569TIP3    H246903   3.656   2.153  12.008  0.7525  1.8268 -0.4549
 7570TIP3   OH246904   0.528   6.086  13.718  0.3269 -0.3266  0.3915
 7570TIP3    H146905   0.546   6.066  13.626 -1.3467 -1.2132  0.2263
 7570TIP3    H246906   0.547   6.004  13.764 -2.1407 -1.0199  0.3271
 7571TIP3   OH246907   0.665   0.929  12.135 -0.1663 -0.0147  0.0516
 7571TIP3    H146908   0.706   0.845  12.155  0.2859 -0.0471 -0.9476
 7571TIP3    H246909   0.736   0.983  12.101 -0.8290  0.0943 -1.2373
 7572TIP3   OH246910   3.680   2.607  12.866 -0.0490  0.1621  0.2014
 7572TIP3    H146911   3.745   2.541  12.892  0.1445 -0.3490 -1.4584
 7572TIP3    H246912   3.705   2.686  12.914 -0.2493 -0.9260  2.1791
 7573TIP3   OH246913   7.726   0.675  12.235 -0.0236 -0.9671 -0.0948
 7573TIP3    H146914   7.718   0.708  12.145 -1.7550 -0.1123  0.3291
 7573TIP3    H246915   7.773   0.745  12.281 -0.2891 -0.8245 -0.0422
 7574TIP3   OH246916   4.448   0.328  13.363 -0.1439 -0.5942  0.5026
 7574TIP3    H146917   4.440   0.320  13.268 -1.3711  2.2086  0.2898
 7574TIP3    H246918   4.542   0.330  13.378  0.0942  0.9371 -0.9072
 7575TIP3   OH246919   6.476   3.465  12.729 -0.5612 -0.1934 -0.2281
 7575TIP3    H146920   6.410   3.517  12.775  0.6843  0.1961  1.2182
 7575TIP3    H246921   6.546   3.527  12.709  0.6006 -1.1224  0.8206
 7576TIP3   OH246922   2.419   4.617  13.492  0.3281  0.3770 -0.1372
 7576TIP3    H146923   2.470   4.644  13.415  0.3961 -2.4672 -1.2241
 7576TIP3    H246924   2.458   4.533  13.518 -1.6408 -0.2103  1.1018
 7577TIP3   OH246925   2.659   6.049  12.615  0.6002  0.2360  0.4372
 7577TIP3    H146926   2.584   6.088  12.661  0.5403  0.5711  0.0683
 7577TIP3    H246927   2.620   5.983  12.557  0.5319  0.7258 -0.0912
 7578TIP3   OH246928   6.466   3.114  12.299 -0.2259  0.7957 -0.3083
 7578TIP3    H146929   6.381   3.124  12.256 -0.3603 -0.0719 -0.2762
 7578TIP3    H246930   6.458   3.165  12.380 -1.1353 -0.1922  0.2562
 7579TIP3   OH246931   0.439   8.425  12.179  0.0113  0.0717 -0.3390
 7579TIP3    H146932   0.423   8.433  12.085  1.5838  1.0497 -0.5687
 7579TIP3    H246933   0.363   8.466  12.220 -0.0726  0.8248 -1.2172
 7580TIP3   OH246934   5.673   8.403  12.069 -0.5998 -0.5129 -0.4350
 7580TIP3    H146935   5.662   8.383  11.976  0.5730 -2.2250 -0.2315
 7580TIP3    H246936   5.706   8.323  12.108  0.2710  0.5859  1.2211
 7581TIP3   OH246937   0.766   2.570  13.165  0.5309 -0.1256  0.0789
 7581TIP3    H146938   0.700   2.502  13.181  0.9612 -0.5225  0.2002
 7581TIP3    H246939   0.751   2.598  13.075  1.0218 -1.1351 -0.3304
 7582TIP3   OH246940   8.119   7.473  12.843  0.1763 -0.3230 -0.2584
 7582TIP3    H146941   8.131   7.414  12.917  1.3657 -0.2760 -0.3786
 7582TIP3    H246942   8.121   7.416  12.766  2.1551 -0.1016 -0.4281
 7583TIP3   OH246943   5.933   6.427  13.043  0.7773  0.2298  0.2281
 7583TIP3    H146944   5.955   6.461  13.130 -0.4492  1.4449  0.0972
 7583TIP3    H246945   5.865   6.486  13.011 -1.5784 -2.3875  0.0025
 7584TIP3   OH246946   2.716   3.267  12.124 -0.1881 -0.4110  0.6570
 7584TIP3    H146947   2.769   3.199  12.083  2.0590  0.5697  1.7374
 7584TIP3    H246948   2.696   3.233  12.211  0.5984  0.0837  1.0519
 7585TIP3   OH246949   6.768   2.610  12.603 -0.2687  0.2037 -0.4189
 7585TIP3    H146950   6.795   2.525  12.570 -0.4991  0.8711 -2.4477
 7585TIP3    H246951   6.709   2.590  12.676 -0.0010 -1.3371 -0.5979
 7586TIP3   OH246952   3.417   5.716  13.073  0.1847  0.5471 -0.7045
 7586TIP3    H146953   3.424   5.665  13.154 -1.9582  0.9129 -0.2187
 7586TIP3    H246954   3.437   5.653  13.003  2.0800  0.2315  0.0629
 7587TIP3   OH246955   8.239   4.256  12.532  0.1942 -0.3156  0.0604
 7587TIP3    H146956   8.216   4.163  12.537  0.8965 -0.4778  0.5497
 7587TIP3    H246957   8.183   4.292  12.464 -1.3049 -0.7298  1.0415
 7588TIP3   OH246958   2.022   7.565  13.096  0.6584  0.0459 -0.0428
 7588TIP3    H146959   2.004   7.475  13.124 -0.6568  0.2219 -0.2235
 7588TIP3    H246960   1.939   7.611  13.109  0.5498  0.6275 -2.3163
 7589TIP3   OH246961   0.189   5.003  11.707 -0.1436  0.0960 -0.0820
 7589TIP3    H146962   0.144   5.088  11.708 -0.8060 -0.0474  4.6835
 7589TIP3    H246963   0.117   4.939  11.710  0.2849 -0.3455  1.8337
 7590TIP3   OH246964   1.486   3.909  12.270 -0.3231  0.4189  0.2425
 7590TIP3    H146965   1.498   3.865  12.354 -1.1258 -0.3108  0.0002
 7590TIP3    H246966   1.446   3.993  12.292  0.6477  0.7740  0.6738
 7591TIP3   OH246967   6.161   7.585  12.563 -0.4443 -0.1945  0.4340
 7591TIP3    H146968   6.250   7.603  12.594 -0.1974 -0.0171 -0.3600
 7591TIP3    H246969   6.170   7.576  12.468 -1.1202 -1.1835  0.4552
 7592TIP3   OH246970   3.683   0.649  13.872  0.2089 -0.6077 -0.3714
 7592TIP3    H146971   3.706   0.653  13.779  0.8222 -0.8518 -0.2374
 7592TIP3    H246972   3.727   0.725  13.911  0.5167 -0.8860 -0.1683
 7593TIP3   OH246973   6.413   5.142  12.506 -0.1721 -0.1703  0.1425
 7593TIP3    H146974   6.366   5.081  12.563 -0.7722 -1.0171 -1.2107
 7593TIP3    H246975   6.494   5.161  12.553 -0.0617 -1.8593  0.7006
 7594TIP3   OH246976   0.745   6.476  13.222  0.9067  0.4995 -0.0055
 7594TIP3    H146977   0.801   6.552  13.205  0.6143  1.0046  1.1532
 7594TIP3    H246978   0.759   6.418  13.148  0.3152  2.1645 -1.4961
 7595TIP3   OH246979   1.429   2.305  11.745  0.4368  0.0889  0.6023
 7595TIP3    H146980   1.496   2.236  11.747 -0.1182 -0.5160 -0.6386
 7595TIP3    H246981   1.471   2.380  11.785  1.7205 -0.4092  0.2426
 7596TIP3   OH246982   0.198   5.866  13.775  0.1377  0.3550 -0.7701
 7596TIP3    H146983   0.281   5.819  13.786  0.2352  0.9229  1.2222
 7596TIP3    H246984   0.135   5.798  13.752  0.6725 -0.4524  0.0973
 7597TIP3   OH246985   0.694   4.374  13.509  0.1556  0.1592 -0.0006
 7597TIP3    H146986   0.728   4.285  13.502  1.6271  0.4535  2.2080
 7597TIP3    H246987   0.731   4.420  13.434 -0.2027 -0.9276 -0.8763
 7598TIP3   OH246988   5.266   0.410  12.332  0.2457 -0.1521 -0.3184
 7598TIP3    H146989   5.262   0.477  12.401 -0.7986  0.4945 -0.9791
 7598TIP3    H246990   5.335   0.440  12.273 -0.0342  0.2123 -0.4667
 7599TIP3   OH246991   7.917   1.587  11.360 -0.0542  0.7303 -0.5827
 7599TIP3    H146992   7.832   1.556  11.391 -0.5246  0.5046 -2.0259
 7599TIP3    H246993   7.922   1.677  11.392 -1.4765  1.2285 -1.6506
 7600TIP3   OH246994   0.293   3.620  13.142 -0.7727 -0.0845  0.0127
 7600TIP3    H146995   0.365   3.660  13.095 -0.1860 -0.9586  0.1434
 7600TIP3    H246996   0.329   3.597  13.227 -0.8962 -1.4332 -0.2702
 7601TIP3   OH246997   1.260   7.305  11.585 -0.9380  0.5562  0.2100
 7601TIP3    H146998   1.263   7.362  11.509 -0.9326 -0.1313 -0.3159
 7601TIP3    H246999   1.340   7.326  11.634 -1.2010  1.3655  0.3122
 7602TIP3   OH247000   8.324   5.599  12.510 -0.7639 -0.1053  0.8097
 7602TIP3    H147001   8.395   5.563  12.562  0.0645 -1.2624 -1.0052
 7602TIP3    H247002   8.257   5.531  12.510 -0.2490 -0.6434 -0.5720
 7603TIP3   OH247003   6.962   7.647  11.861  0.4983  0.1618  0.2886
 7603TIP3    H147004   6.869   7.624  11.865  0.0067  1.7050 -1.0228
 7603TIP3    H247005   6.969   7.727  11.913  0.0368  2.8282 -3.3486
 7604TIP3   OH247006   6.916   0.668  12.973 -0.3121  0.2592 -0.5308
 7604TIP3    H147007   6.962   0.628  12.899  1.2962 -0.3409  0.7250
 7604TIP3    H247008   6.937   0.761  12.966  0.0451  0.1677 -0.6942
 7605TIP3   OH247009   0.088   7.791  12.346  0.4345  0.4717  0.0509
 7605TIP3    H147010   0.066   7.812  12.436  1.7263  0.6335  0.3455
 7605TIP3    H247011   0.011   7.818  12.295 -1.1921 -1.5013  1.2852
 7606TIP3   OH247012   3.606   1.111  13.416  0.6464 -0.0697 -0.0949
 7606TIP3    H147013   3.688   1.069  13.388  0.0291  0.0381 -2.2487
 7606TIP3    H247014   3.605   1.194  13.369 -0.8892 -0.2655 -0.4445
 7607TIP3   OH247015   0.210   0.734  11.368 -0.3499 -0.2607 -0.2648
 7607TIP3    H147016   0.263   0.712  11.291 -0.6198  0.1574 -0.5737
 7607TIP3    H247017   0.259   0.697  11.442  0.6319  0.5488 -0.4865
 7608TIP3   OH247018   7.191   2.096  12.255  0.1542 -0.0324 -0.4382
 7608TIP3    H147019   7.196   2.001  12.255 -0.8545 -0.1363  1.4924
 7608TIP3    H247020   7.118   2.116  12.195 -0.5627 -0.5746  0.2373
 7609TIP3   OH247021   2.068   6.749  11.877  0.0431 -0.8031  0.4724
 7609TIP3    H147022   2.075   6.654  11.868  1.6232 -0.5866 -1.3008
 7609TIP3    H247023   2.047   6.780  11.789 -1.9855  0.4280  1.3162
 7610TIP3   OH247024   0.350   7.020  12.952 -0.2817  0.4218  0.0896
 7610TIP3    H147025   0.443   6.994  12.956 -0.3143  0.0875 -0.9533
 7610TIP3    H247026   0.347   7.089  12.887 -0.8798 -0.1482 -0.5098
 7611TIP3   OH247027   8.245   6.826  12.669 -0.7654 -0.0750  0.2817
 7611TIP3    H147028   8.199   6.872  12.739 -1.6353  0.6064 -0.6940
 7611TIP3    H247029   8.332   6.864  12.668 -0.5956 -0.4100  1.2727
 7612TIP3   OH247030   1.439   6.267  12.246 -0.1491  0.2193  0.2284
 7612TIP3    H147031   1.402   6.241  12.331  1.0431 -0.4260  0.5814
 7612TIP3    H247032   1.534   6.269  12.261  0.0602  0.4205 -1.0055
 7613TIP3   OH247033   2.169   5.138  11.829  0.2134  0.0310  0.2942
 7613TIP3    H147034   2.261   5.144  11.802  0.0862  0.1932 -0.1113
 7613TIP3    H247035   2.128   5.215  11.791 -0.1155 -0.1029  0.3763
 7614TIP3   OH247036   0.838   7.179  13.311  0.2735 -0.0101 -0.1174
 7614TIP3    H147037   0.917   7.142  13.271  1.2221  0.1817  1.4733
 7614TIP3    H247038   0.870   7.222  13.391 -1.6052 -1.2170  1.3680
 7615TIP3   OH247039   6.542   3.589  12.381  0.3414 -0.0029  0.3040
 7615TIP3    H147040   6.575   3.514  12.332  0.4121  0.1757  0.0756
 7615TIP3    H247041   6.595   3.592  12.460  0.4247 -0.1155  0.2511
 7616TIP3   OH247042   1.213   0.626  13.498  0.1788  0.2616  0.1173
 7616TIP3    H147043   1.192   0.536  13.473 -0.7691  0.8049 -1.1997
 7616TIP3    H247044   1.173   0.638  13.584 -1.3904 -0.0077 -0.5378
 7617TIP3   OH247045   3.429   3.830  11.620  0.0241 -0.9301 -0.2440
 7617TIP3    H147046   3.347   3.831  11.571 -1.2021  0.1604  1.7426
 7617TIP3    H247047   3.432   3.743  11.660 -1.5853 -0.0880  1.8627
 7618TIP3   OH247048   1.458   1.896  13.709 -0.1700 -0.5307  0.7970
 7618TIP3    H147049   1.532   1.954  13.725 -0.2304 -0.6530  1.5482
 7618TIP3    H247050   1.381   1.954  13.709  0.0658 -0.0168 -2.2976
 7619TIP3   OH247051   0.414   6.850  11.710  1.0051 -0.7141  0.3157
 7619TIP3    H147052   0.394   6.859  11.617  0.7490 -0.8223  0.3584
 7619TIP3    H247053   0.501   6.888  11.720  0.4676  0.6082  0.2791
 7620TIP3   OH247054   2.690   0.191  13.261 -0.2598  0.0845  0.2485
 7620TIP3    H147055   2.779   0.154  13.264 -0.6082 -0.7114  2.0227
 7620TIP3    H247056   2.691   0.260  13.327 -0.3470  1.6847 -1.3267
 7621TIP3   OH247057   5.441   4.530  13.390 -0.2987 -0.2982 -0.1172
 7621TIP3    H147058   5.417   4.599  13.328 -0.8559 -1.0082 -0.7080
 7621TIP3    H247059   5.371   4.531  13.456  1.3587  1.9009  1.7890
 7622TIP3   OH247060   5.464   0.973  11.872 -0.1987  0.1932 -0.2439
 7622TIP3    H147061   5.417   1.048  11.910  0.3438 -0.0827  1.0414
 7622TIP3    H247062   5.492   1.003  11.786  1.6813  2.2054  0.9648
 7623TIP3   OH247063   6.868   2.173  11.879  0.4243 -0.0598  0.3442
 7623TIP3    H147064   6.900   2.261  11.856  0.1849  0.2845  1.2887
 7623TIP3    H247065   6.812   2.187  11.955 -0.4322 -0.9170 -0.1115
 7624TIP3   OH247066   7.560   6.487  12.554  0.9030 -0.0211 -0.8840
 7624TIP3    H147067   7.623   6.525  12.492  0.8157  0.9941 -0.3812
 7624TIP3    H247068   7.476   6.493  12.509  0.9800 -0.2023 -1.0542
 7625TIP3   OH247069   7.063   3.514  12.462  0.5183  0.4351 -0.3242
 7625TIP3    H147070   6.969   3.527  12.476  0.5712 -1.1500  2.1097
 7625TIP3    H247071   7.097   3.602  12.446 -1.1724  1.2492  0.2678
 7626TIP3   OH247072   0.472   4.064  13.112  0.3074 -0.1121  0.1310
 7626TIP3    H147073   0.419   3.999  13.066  0.6424  1.0785 -2.0879
 7626TIP3    H247074   0.563   4.038  13.093  0.4450  0.9946 -0.8489
 7627TIP3   OH247075   3.296   1.011  13.140  0.2129  0.4958  0.0953
 7627TIP3    H147076   3.234   1.017  13.067 -0.1795 -0.8758  0.2874
 7627TIP3    H247077   3.343   1.094  13.138 -0.6580  0.9966 -0.9358
 7628TIP3   OH247078   4.658   3.643  12.628 -0.0652 -0.4666  0.1958
 7628TIP3    H147079   4.606   3.687  12.695 -0.2310  0.0850 -0.2852
 7628TIP3    H247080   4.643   3.550  12.642  1.6309 -0.4847  2.3279
 7629TIP3   OH247081   8.203   4.878  12.038  0.2567 -0.8010  0.0941
 7629TIP3    H147082   8.166   4.791  12.056 -2.2459  0.5343  1.8782
 7629TIP3    H247083   8.258   4.896  12.115 -0.6278 -0.1254  0.5843
 7630TIP3   OH247084   7.908   1.557  12.870 -0.3170 -0.0792 -0.5963
 7630TIP3    H147085   7.975   1.521  12.927 -0.1154  1.4772  0.1979
 7630TIP3    H247086   7.900   1.493  12.799 -0.6842 -2.1542  1.1968
 7631TIP3   OH247087   6.622   3.755  12.122 -0.5545  0.2648  1.0196
 7631TIP3    H147088   6.657   3.844  12.118 -2.9410  1.2898  1.1935
 7631TIP3    H247089   6.556   3.758  12.192 -0.5825 -1.6916  1.1333
 7632TIP3   OH247090   7.782   1.353  13.161  0.0284 -0.8503  0.0298
 7632TIP3    H147091   7.721   1.420  13.130 -0.3386 -0.5074  1.4238
 7632TIP3    H247092   7.745   1.270  13.129  0.1051 -0.4650 -1.1060
 7633TIP3   OH247093   4.903   0.822  12.331  0.0164 -0.5309  0.4408
 7633TIP3    H147094   4.958   0.752  12.296  0.4600 -0.3545  0.7776
 7633TIP3    H247095   4.964   0.879  12.379 -0.3655 -0.0108  0.3184
 7634TIP3   OH247096   1.539   4.551  12.030  0.1219 -0.3430 -0.1316
 7634TIP3    H147097   1.578   4.570  12.116 -0.4751  0.4225 -0.0065
 7634TIP3    H247098   1.444   4.558  12.046  0.0126 -0.0377 -0.8806
 7635TIP3   OH247099   2.671   2.523  13.396  0.1742 -0.0596  0.0190
 7635TIP3    H147100   2.595   2.581  13.393  0.9926  1.0874  0.6342
 7635TIP3    H247101   2.687   2.509  13.489 -0.2197 -1.6032 -0.1184
 7636TIP3   OH247102   6.746   7.563  11.226 -0.6422  0.9783  1.3137
 7636TIP3    H147103   6.776   7.515  11.302 -0.2797  0.3181  0.7673
 7636TIP3    H247104   6.824   7.571  11.170 -1.2781 -0.1313  0.1993
 7637TIP3   OH247105   1.497   5.259  12.475  0.1052 -0.5893  0.0700
 7637TIP3    H147106   1.486   5.176  12.522 -0.2388 -0.5984 -0.0241
 7637TIP3    H247107   1.496   5.326  12.543  0.2529 -0.6507  0.1330
 7638TIP3   OH247108   6.134   2.946  12.429  0.6232  0.1052  0.2042
 7638TIP3    H147109   6.070   2.875  12.428  2.6644 -1.8645 -1.1155
 7638TIP3    H247110   6.132   2.981  12.340  1.5053 -0.1405  0.0778
 7639TIP3   OH247111   0.218   3.904  13.561  0.1397  0.2488 -0.2916
 7639TIP3    H147112   0.227   3.867  13.648  0.3264 -0.0212 -0.4268
 7639TIP3    H247113   0.305   3.937  13.539  0.0732  0.3911 -0.3413
 7640TIP3   OH247114   6.411   1.551  13.677  0.4508 -0.4544 -0.0256
 7640TIP3    H147115   6.366   1.621  13.725 -0.3016 -1.3859  0.6525
 7640TIP3    H247116   6.458   1.597  13.607 -1.2771  0.5848 -0.5582
 7641TIP3   OH247117   5.626   6.481  13.050 -0.7579  0.5112 -0.1831
 7641TIP3    H147118   5.556   6.417  13.037 -1.5601  0.9769  1.6103
 7641TIP3    H247119   5.634   6.489  13.145  0.5626  1.7501 -0.3719
 7642TIP3   OH247120   7.964   1.799  11.830  0.1945  0.5481  0.5112
 7642TIP3    H147121   7.874   1.769  11.828 -0.2615  1.8760 -0.6149
 7642TIP3    H247122   7.986   1.803  11.923 -0.2850 -1.4462  0.7584
 7643TIP3   OH247123   1.600   5.663  11.679  0.3431  0.2185  0.1811
 7643TIP3    H147124   1.682   5.622  11.704  0.4650  0.5700  0.3639
 7643TIP3    H247125   1.536   5.592  11.682 -0.1587  0.6326  3.8751
 7644TIP3   OH247126   4.110   0.651  11.936 -0.8844  0.0871 -0.0454
 7644TIP3    H147127   4.163   0.626  12.012 -0.7412 -1.0432 -0.5042
 7644TIP3    H247128   4.144   0.736  11.910 -0.5016  0.1881  0.7683
 7645TIP3   OH247129   8.236   7.757  11.602 -0.2646 -0.5595  0.3847
 7645TIP3    H147130   8.215   7.719  11.516 -2.5770  0.0466  0.6170
 7645TIP3    H247131   8.171   7.826  11.614  0.2768 -0.3519  2.4636
 7646TIP3   OH247132   5.794   1.831  12.158 -0.2698  0.2912 -0.6735
 7646TIP3    H147133   5.706   1.821  12.123 -0.3606 -0.5508 -0.2545
 7646TIP3    H247134   5.811   1.925  12.156 -0.9874  0.4146 -1.2106
 7647TIP3   OH247135   0.189   7.837  13.327 -0.5757 -0.3751  0.0132
 7647TIP3    H147136   0.173   7.891  13.404 -1.2988 -1.9437  1.0029
 7647TIP3    H247137   0.284   7.837  13.316 -0.5456  0.7563  0.2207
 7648TIP3   OH247138   6.743   4.921  13.202 -0.4590  0.3594 -0.5941
 7648TIP3    H147139   6.703   5.002  13.173 -0.2279  0.3030 -1.0757
 7648TIP3    H247140   6.710   4.908  13.291 -0.0113  1.2961 -0.2871
 7649TIP3   OH247141   4.198   6.844  11.724 -0.2613  0.0181 -0.1246
 7649TIP3    H147142   4.267   6.796  11.770 -0.6622 -1.2163 -0.7606
 7649TIP3    H247143   4.116   6.804  11.754 -0.5200 -1.1713 -2.2322
 7650TIP3   OH247144   2.219   8.005  12.953  0.2576 -0.4255 -0.5353
 7650TIP3    H147145   2.162   7.935  12.986 -0.5791  1.0042  1.2445
 7650TIP3    H247146   2.304   7.989  12.994  0.0913 -0.4403 -0.1970
 7651TIP3   OH247147   5.104   4.127  13.069  0.6834 -0.2043 -0.4645
 7651TIP3    H147148   5.061   4.066  13.009  1.3990 -0.0067 -1.1948
 7651TIP3    H247149   5.122   4.204  13.015  2.3992 -0.4773 -0.3176
 7652TIP3   OH247150   5.220   5.489  13.267  0.5596 -0.0202  0.2748
 7652TIP3    H147151   5.305   5.502  13.224  0.2455  0.1694 -0.3087
 7652TIP3    H247152   5.197   5.575  13.301  1.2550 -0.3772  1.6890
 7653TIP3   OH247153   5.333   5.034  11.480  0.8700  0.1095 -0.0500
 7653TIP3    H147154   5.265   5.078  11.430  1.9899  0.7948 -1.0080
 7653TIP3    H247155   5.287   4.962  11.525 -0.7093  1.3557  0.4013
 7654TIP3   OH247156   6.529   3.750  12.884  0.8038 -0.1770  0.1231
 7654TIP3    H147157   6.597   3.763  12.950  0.6154  2.2605 -0.0433
 7654TIP3    H247158   6.576   3.717  12.807  1.8420  1.3881  0.0355
 7655TIP3   OH247159   5.540   7.991  13.481 -0.1843  0.1643  0.1844
 7655TIP3    H147160   5.596   7.914  13.478 -0.6389 -0.1315 -1.2415
 7655TIP3    H247161   5.497   7.986  13.567  1.2738 -0.0770  0.9257
 7656TIP3   OH247162   2.250   6.900  11.605 -0.2107  0.3161  0.0291
 7656TIP3    H147163   2.291   6.833  11.660 -1.7940 -1.2177 -0.5769
 7656TIP3    H247164   2.281   6.881  11.517 -0.0847  0.8358 -0.0366
 7657TIP3   OH247165   1.785   4.010  12.242  0.2107  0.1057  0.0795
 7657TIP3    H147166   1.847   4.081  12.258  0.2975  0.1841 -0.5510
 7657TIP3    H247167   1.825   3.933  12.281  1.7968 -0.3174 -2.1866
 7658TIP3   OH247168   1.803   4.056  12.801  0.1008  0.5248  0.4095
 7658TIP3    H147169   1.724   4.002  12.802  0.1185  0.4656 -0.3205
 7658TIP3    H247170   1.847   4.032  12.719  1.0127  0.3701  0.9335
 7659TIP3   OH247171   1.268   1.350  12.743 -0.3688  0.3944  0.1592
 7659TIP3    H147172   1.243   1.423  12.798 -1.6516  1.3253 -1.5706
 7659TIP3    H247173   1.188   1.299  12.732 -0.3657  0.6847 -1.4572
 7660TIP3   OH247174   5.409   7.365  12.403 -0.1521 -0.1623 -0.3572
 7660TIP3    H147175   5.438   7.275  12.385  0.4016  0.2491 -1.6660
 7660TIP3    H247176   5.349   7.386  12.331 -0.5732  0.3960  0.1453
 7661TIP3   OH247177   1.340   6.599  12.178 -0.1910  0.4390  0.4773
 7661TIP3    H147178   1.301   6.648  12.106 -1.2568  1.6754  1.8535
 7661TIP3    H247179   1.434   6.602  12.161 -0.3526  1.5877 -0.3204
 7662TIP3   OH247180   3.279   0.199  12.506  0.5191 -0.9441  0.4189
 7662TIP3    H147181   3.185   0.181  12.499  0.1767  0.6665  0.3720
 7662TIP3    H247182   3.284   0.271  12.568  1.7083 -0.7966  0.1634
 7663TIP3   OH247183   6.600   2.737  11.786 -0.0057 -0.1332 -0.1578
 7663TIP3    H147184   6.533   2.743  11.855 -0.0953  0.9752 -0.3196
 7663TIP3    H247185   6.681   2.721  11.833  0.0166  1.1279  0.2708
 7664TIP3   OH247186   7.011   2.824  12.158 -0.3589 -0.0348 -0.3279
 7664TIP3    H147187   7.010   2.911  12.198  0.5023  1.2800 -2.9221
 7664TIP3    H247188   7.104   2.801  12.154 -0.6163 -1.4596  0.9999
 7665TIP3   OH247189   6.782   7.138  11.839  0.2775  0.0820 -0.3991
 7665TIP3    H147190   6.705   7.142  11.895  0.6864  3.4379  0.1402
 7665TIP3    H247191   6.845   7.197  11.881  2.7986 -1.7122 -1.3837
 7666TIP3   OH247192   6.474   6.472  11.275  0.1206  0.3598  0.2082
 7666TIP3    H147193   6.444   6.493  11.186 -0.7131  0.3926  0.4925
 7666TIP3    H247194   6.564   6.442  11.263 -0.3433 -0.7155 -0.7893
 7667TIP3   OH247195   4.223   2.272  11.703 -0.2498 -0.2113  0.1804
 7667TIP3    H147196   4.211   2.191  11.751  0.7095  0.1346  1.0307
 7667TIP3    H247197   4.143   2.281  11.650 -0.9600 -1.0075  1.0897
 7668TIP3   OH247198   8.417   4.425  12.644 -0.1088 -0.4951  0.1009
 7668TIP3    H147199   8.354   4.366  12.602 -0.2095 -0.0658 -0.3530
 7668TIP3    H247200   8.385   4.434  12.734 -0.4076 -0.6869  0.0154
 7669TIP3   OH247201   5.345   6.153  13.202 -0.3251 -0.0287  0.3885
 7669TIP3    H147202   5.310   6.145  13.291  1.0096  2.1894  1.1866
 7669TIP3    H247203   5.298   6.228  13.165 -0.1025 -0.2710 -0.3996
 7670TIP3   OH247204   1.086   2.262  12.523 -0.0953  0.1573 -0.0001
 7670TIP3    H147205   1.008   2.211  12.498  0.4177 -1.1769  1.0282
 7670TIP3    H247206   1.123   2.291  12.439 -1.6383  0.7625 -0.5170
 7671TIP3   OH247207   4.532   6.494  11.928  0.0259 -0.6010  0.0627
 7671TIP3    H147208   4.627   6.479  11.926  0.0056 -0.7961  0.4484
 7671TIP3    H247209   4.509   6.487  12.020 -0.6252 -2.1741 -0.2008
 7672TIP3   OH247210   6.497   7.123  13.097  0.3088  0.0091 -0.0633
 7672TIP3    H147211   6.470   7.035  13.121  0.3618 -0.6443 -2.2108
 7672TIP3    H247212   6.435   7.151  13.029  1.4173  0.8500 -0.7818
 7673TIP3   OH247213   3.496   2.464  14.098 -0.4995 -0.0066 -0.1592
 7673TIP3    H147214   3.469   2.401  14.165 -0.0813 -0.6613 -0.5999
 7673TIP3    H247215   3.413   2.497  14.063 -0.7252 -0.6406 -0.2332
 7674TIP3   OH247216   2.834   4.891  12.503  0.1212 -0.3664 -0.3889
 7674TIP3    H147217   2.811   4.801  12.480 -1.1779 -0.0426 -0.4495
 7674TIP3    H247218   2.761   4.921  12.558  0.8422  0.4489  0.1603
 7675TIP3   OH247219   5.751   1.442  11.795  0.1245  0.0650  0.2388
 7675TIP3    H147220   5.831   1.493  11.785  0.3899 -0.5618 -1.0106
 7675TIP3    H247221   5.684   1.491  11.747 -0.6783  1.4285  2.6074
 7676TIP3   OH247222   0.337   0.756  12.508 -0.4690  0.5628 -0.4242
 7676TIP3    H147223   0.270   0.751  12.441  0.1454 -1.1825 -0.9735
 7676TIP3    H247224   0.419   0.742  12.462 -0.0984 -1.6237  0.7245
 7677TIP3   OH247225   8.225   1.663  11.447  0.3632  0.6712 -0.6659
 7677TIP3    H147226   8.316   1.636  11.443 -0.1857 -1.3168 -0.5472
 7677TIP3    H247227   8.181   1.613  11.378 -0.7585  1.0746 -0.2724
 7678TIP3   OH247228   2.936   1.790  12.474  0.7447 -0.6179 -0.4387
 7678TIP3    H147229   2.902   1.853  12.538 -0.7950 -1.9709  0.1655
 7678TIP3    H247230   2.965   1.843  12.400  0.0989  0.8286  0.3090
 7679TIP3   OH247231   7.016   0.103  13.113  0.2724  0.4918  0.2262
 7679TIP3    H147232   7.024   0.198  13.119 -0.0724  0.5840 -0.6317
 7679TIP3    H247233   7.005   0.085  13.019  1.3747 -0.4803  0.2570
 7680TIP3   OH247234   3.180   1.041  12.910 -0.6288 -0.1772 -0.1697
 7680TIP3    H147235   3.236   0.980  12.861 -1.4840  0.1769 -1.6712
 7680TIP3    H247236   3.169   1.115  12.850 -0.4186  1.0184  1.2266
 7681TIP3   OH247237   4.733   4.227  12.846  0.0517  0.2007  0.1727
 7681TIP3    H147238   4.666   4.203  12.782 -0.3757 -2.4493  1.4564
 7681TIP3    H247239   4.684   4.242  12.927  0.8427  0.4690  0.6138
 7682TIP3   OH247240   7.430   1.444  11.723 -0.2460 -0.2989 -0.4847
 7682TIP3    H147241   7.401   1.387  11.652  0.3386 -0.6926 -0.4183
 7682TIP3    H247242   7.525   1.435  11.723 -0.2795 -0.8233  0.7720
 7683TIP3   OH247243   2.299   4.169  12.955 -0.4091 -0.0189 -0.6658
 7683TIP3    H147244   2.320   4.076  12.951 -1.3308 -0.2757  0.2711
 7683TIP3    H247245   2.254   4.187  12.872  0.9701 -0.0739 -1.4643
 7684TIP3   OH247246   7.563   7.117  11.929  0.2710  0.1243  0.1562
 7684TIP3    H147247   7.572   7.069  11.846 -1.5409 -0.5033  0.2799
 7684TIP3    H247248   7.606   7.061  11.993 -1.0700 -0.9690  0.1454
 7685TIP3   OH247249   7.962   6.705  12.523  0.3669  0.0361  0.6372
 7685TIP3    H147250   7.943   6.690  12.616 -1.1433 -1.4804  0.1440
 7685TIP3    H247251   8.011   6.787  12.521  1.6424 -0.5861  2.8913
 7686TIP3   OH247252   2.096   7.140  12.663  0.1995 -0.3252 -0.2276
 7686TIP3    H147253   2.096   7.226  12.620  2.0932 -0.2809 -0.2238
 7686TIP3    H247254   2.174   7.097  12.629 -0.6191 -1.9978 -0.0774
 7687TIP3   OH247255   0.679   6.349  12.051 -0.2515  0.4673  0.1873
 7687TIP3    H147256   0.691   6.324  11.959 -0.7855  0.0589  0.2284
 7687TIP3    H247257   0.768   6.356  12.085 -0.0156 -3.0330  0.6358
 7688TIP3   OH247258   7.668   3.788  12.891 -0.0909  0.0194 -0.0946
 7688TIP3    H147259   7.739   3.747  12.842  0.4354 -1.8992  2.0892
 7688TIP3    H247260   7.660   3.735  12.970 -3.3087  0.7877  0.2274
 7689TIP3   OH247261   7.372   6.425  13.749  0.0108 -0.1031 -0.0167
 7689TIP3    H147262   7.466   6.437  13.733 -0.0317  1.3467  0.6614
 7689TIP3    H247263   7.364   6.335  13.779  1.4297  0.2604  1.5721
 7690TIP3   OH247264   6.869   5.868  11.849 -0.0514 -0.0461  0.3719
 7690TIP3    H147265   6.823   5.845  11.768 -0.9247  0.9686  0.5600
 7690TIP3    H247266   6.818   5.828  11.919  1.8858 -2.8065  0.3861
 7691TIP3   OH247267   3.571   5.642  11.758 -0.5327  0.1650  0.7315
 7691TIP3    H147268   3.614   5.605  11.681 -0.5934  1.9089 -0.1723
 7691TIP3    H247269   3.499   5.581  11.777  0.0356 -0.7628 -0.0105
 7692TIP3   OH247270   1.681   7.981  12.884 -0.0922  0.0178  0.5656
 7692TIP3    H147271   1.618   7.959  12.815  0.0438  0.2986  0.3459
 7692TIP3    H247272   1.659   7.923  12.957  0.5559 -1.1588 -0.1452
 7693TIP3   OH247273   2.147   0.218  17.267  0.0670 -0.3828 -0.1617
 7693TIP3    H147274   2.092   0.247  17.194  0.7229 -2.4315 -1.5488
 7693TIP3    H247275   2.235   0.245  17.241  0.1413  0.0616  0.5359
 7694TIP3   OH247276   2.769   6.931  13.330 -0.1786 -0.1961 -0.1604
 7694TIP3    H147277   2.863   6.927  13.344  0.2596 -1.5888 -2.8039
 7694TIP3    H247278   2.738   6.842  13.350 -0.4458 -0.5166 -1.8449
 7695TIP3   OH247279   3.814   6.166  12.044  0.0423  0.5470 -0.3483
 7695TIP3    H147280   3.737   6.114  12.020 -1.3251  2.3827 -0.1945
 7695TIP3    H247281   3.777   6.247  12.078  2.0779  1.2851  0.1896
 7696TIP3   OH247282   8.039   7.364  12.331 -0.1926  0.4275  0.0004
 7696TIP3    H147283   7.992   7.314  12.264  0.8593 -0.6117  0.0089
 7696TIP3    H247284   8.130   7.363  12.303  0.4486 -0.8824  1.9256
 7697TIP3   OH247285   0.329   5.051  13.166  0.5059 -0.7766 -0.2262
 7697TIP3    H147286   0.249   5.062  13.115  1.5382  0.8347 -1.5865
 7697TIP3    H247287   0.344   4.956  13.166 -1.4331 -1.1228  0.1671
 7698TIP3   OH247288   0.819   2.542  12.438  0.0928  0.0281  0.3684
 7698TIP3    H147289   0.788   2.492  12.362  1.2950  0.0375 -0.1418
 7698TIP3    H247290   0.803   2.633  12.415  1.1807  0.0798 -0.2210
 7699TIP3   OH247291   5.439   6.208  12.419  0.3632 -0.7848 -0.3059
 7699TIP3    H147292   5.505   6.245  12.360  2.0278 -1.3948  1.0690
 7699TIP3    H247293   5.359   6.256  12.399  1.7731  1.7028 -0.4686
 7700TIP3   OH247294   2.136   6.309  12.501 -0.3130  0.1535 -0.3097
 7700TIP3    H147295   2.120   6.343  12.589 -0.0241 -0.4336 -0.0253
 7700TIP3    H247296   2.231   6.314  12.491 -0.1928 -1.0887 -0.0312
 7701TIP3   OH247297   1.122   6.443  13.280 -0.1802 -0.3375  0.3062
 7701TIP3    H147298   1.132   6.513  13.345 -0.6392  0.5838 -0.5788
 7701TIP3    H247299   1.205   6.395  13.284  1.0553  1.5748 -0.5387
 7702TIP3   OH247300   6.502   1.647  12.886 -0.1010 -0.4075  0.2168
 7702TIP3    H147301   6.523   1.735  12.916 -1.0130  0.3041 -1.1812
 7702TIP3    H247302   6.584   1.598  12.896  1.2334  1.3390 -1.6713
 7703TIP3   OH247303   7.551   5.574  11.795  0.0583  0.2217  0.6157
 7703TIP3    H147304   7.581   5.664  11.782  1.6661 -0.3279  0.3482
 7703TIP3    H247305   7.460   5.584  11.825 -0.1021  1.8904 -0.2704
 7704TIP3   OH247306   1.981   2.634  13.117  0.2997  0.4412 -0.5772
 7704TIP3    H147307   2.057   2.636  13.058  0.6897 -0.8882 -0.1731
 7704TIP3    H247308   2.004   2.693  13.188  1.3207 -0.5364 -0.0656
 7705TIP3   OH247309   7.656   6.640  12.881 -0.2257  0.1470  0.0302
 7705TIP3    H147310   7.600   6.674  12.952  1.3536  0.0642  1.3682
 7705TIP3    H247311   7.603   6.572  12.840 -2.4400  2.3519 -0.9968
 7706TIP3   OH247312   6.589   2.689  12.101  0.2540 -0.1903  0.2975
 7706TIP3    H147313   6.598   2.603  12.142  0.2177 -0.2261  0.2304
 7706TIP3    H247314   6.500   2.690  12.066  0.7026 -0.6638 -0.9274
 7707TIP3   OH247315   5.817   0.523  13.838  0.1062  0.3026 -0.1415
 7707TIP3    H147316   5.819   0.506  13.743  2.2395  3.2937 -0.7555
 7707TIP3    H247317   5.745   0.585  13.850  0.8239  1.1361 -0.0784
 7708TIP3   OH247318   0.347   2.061  12.309 -0.6199 -0.3156 -0.5627
 7708TIP3    H147319   0.331   2.129  12.244 -0.1604  0.2063 -0.1437
 7708TIP3    H247320   0.441   2.066  12.325 -1.0613  1.2649  1.9670
 7709TIP3   OH247321   8.440   4.000  12.396 -0.6644 -0.0731 -0.5715
 7709TIP3    H147322   8.423   4.010  12.490  0.4509 -0.8622 -0.2587
 7709TIP3    H247323   8.429   3.906  12.379  2.8034 -0.6371 -0.3796
 7710TIP3   OH247324   4.095   7.162  12.006 -0.4062  0.1912 -0.3517
 7710TIP3    H147325   4.008   7.160  12.047  0.5524  0.7787  1.8087
 7710TIP3    H247326   4.109   7.254  11.984 -0.1060  0.1699 -0.2411
 7711TIP3   OH247327   7.327   6.699  11.746  0.1212 -0.1478  0.6078
 7711TIP3    H147328   7.410   6.743  11.766 -0.1743  0.3562  0.7438
 7711TIP3    H247329   7.298   6.741  11.665 -0.0397 -0.2724  0.6027
 7712TIP3   OH247330   4.680   3.988  13.623 -0.1282 -0.3434 -0.0572
 7712TIP3    H147331   4.647   4.077  13.628  2.1734  0.5605  0.0993
 7712TIP3    H247332   4.639   3.942  13.696  0.9581  1.4384  1.7624
 7713TIP3   OH247333   7.188   3.622  13.456 -0.1394  0.1924  0.2560
 7713TIP3    H147334   7.233   3.677  13.520  0.4031 -0.3936  0.3878
 7713TIP3    H247335   7.258   3.583  13.403 -0.3540 -1.8143  1.3324
 7714TIP3   OH247336   0.487   5.557  11.905  0.0863  0.4225  0.0194
 7714TIP3    H147337   0.447   5.478  11.870 -0.8804  1.5082 -1.4398
 7714TIP3    H247338   0.578   5.554  11.874 -0.1847  0.3132 -0.7877
 7715TIP3   OH247339   6.359   3.457  11.604 -0.2493  0.1488  0.1305
 7715TIP3    H147340   6.384   3.370  11.573  0.6422  1.6562 -4.1310
 7715TIP3    H247341   6.440   3.495  11.637 -0.4025 -0.2309  0.9612
 7716TIP3   OH247342   0.504   7.315  13.068  0.0386  0.8459 -0.1831
 7716TIP3    H147343   0.447   7.370  13.122  0.8096  1.6329 -0.1483
 7716TIP3    H247344   0.515   7.234  13.118 -0.1593  1.1289  0.3176
 7717TIP3   OH247345   5.584   0.469  13.309  0.0318  0.5668 -0.5167
 7717TIP3    H147346   5.490   0.460  13.323  0.3107  0.0506  1.2937
 7717TIP3    H247347   5.622   0.467  13.397  1.8542 -0.5740 -1.2602
 7718TIP3   OH247348   0.424   5.925  12.233  0.3814 -0.0134  0.2230
 7718TIP3    H147349   0.438   5.966  12.319  1.8594  1.7409 -0.7807
 7718TIP3    H247350   0.348   5.970  12.198  0.3662 -0.0449  0.2150
 7719TIP3   OH247351   2.640   6.138  13.296 -0.3103 -0.3069 -0.2431
 7719TIP3    H147352   2.569   6.075  13.283 -0.2279 -0.3813 -0.3314
 7719TIP3    H247353   2.620   6.209  13.235 -2.2464  1.3565  2.1588
 7720TIP3   OH247354   0.395   7.286  12.294 -0.2133 -0.0901  0.8900
 7720TIP3    H147355   0.471   7.338  12.322  0.6129 -2.1155  2.6728
 7720TIP3    H247356   0.322   7.321  12.346  0.1884 -0.2111  1.5561
 7721TIP3   OH247357   0.883   7.511  12.578  0.4412 -0.3212 -0.1109
 7721TIP3    H147358   0.854   7.427  12.614  1.7208 -0.6381  0.2282
 7721TIP3    H247359   0.843   7.514  12.491 -0.8574 -0.5667  0.4509
 7722TIP3   OH247360   1.387   5.642  13.649 -0.7158  0.4378  0.0469
 7722TIP3    H147361   1.335   5.604  13.720 -0.8148  0.4047 -0.0433
 7722TIP3    H247362   1.323   5.688  13.594 -0.2896  3.3974  1.8234
 7723TIP3   OH247363   0.379   6.345  12.497  0.2222 -0.5496 -0.1586
 7723TIP3    H147364   0.382   6.320  12.589 -1.0108  0.3577  0.1645
 7723TIP3    H247365   0.313   6.287  12.458 -1.6146  1.1154  0.2864
 7724TIP3   OH247366   6.124   4.134  12.229 -0.3455 -0.4540  0.3134
 7724TIP3    H147367   6.191   4.086  12.180 -0.9662 -0.8782 -0.1291
 7724TIP3    H247368   6.165   4.151  12.314 -0.1051 -1.7776  0.4868
 7725TIP3   OH247369   1.279   7.959  13.079 -0.2648  0.5860  0.3320
 7725TIP3    H147370   1.203   7.923  13.124 -1.1339  1.4149 -0.4366
 7725TIP3    H247371   1.244   7.997  12.998  0.6334  2.6985  0.8521
 7726TIP3   OH247372   0.757   7.468  13.033  0.1025 -0.4611  0.0944
 7726TIP3    H147373   0.702   7.392  13.052 -0.1968 -0.1106  0.6464
 7726TIP3    H247374   0.695   7.541  13.027  0.3801 -0.2701 -0.5022
 7727TIP3   OH247375   3.615   8.204  12.447 -0.6384  0.5396 -0.4211
 7727TIP3    H147376   3.627   8.270  12.515  0.3897  0.3835 -0.4389
 7727TIP3    H247377   3.576   8.251  12.373 -1.3305  0.8045  0.0940
 7728TIP3   OH247378   6.140   6.700  11.590  0.2363 -0.0408  0.8381
 7728TIP3    H147379   6.123   6.607  11.575  2.3129 -0.4331  0.6248
 7728TIP3    H247380   6.054   6.741  11.587 -0.6563 -1.8607  0.2571
 7729TIP3   OH247381   5.523   7.793  12.225 -0.0734  0.3041  0.1665
 7729TIP3    H147382   5.600   7.823  12.177 -1.1161  1.1875 -1.0345
 7729TIP3    H247383   5.542   7.814  12.317  1.3422 -0.0258 -0.0315
 7730TIP3   OH247384   0.766   7.839  12.290  0.2773  0.1960  0.2384
 7730TIP3    H147385   0.798   7.923  12.322 -0.3668 -0.0338  1.5538
 7730TIP3    H247386   0.676   7.833  12.323 -0.0037 -0.5944 -0.6379
 7731TIP3   OH247387   2.026   3.289  12.935 -0.3296 -0.0424  0.3931
 7731TIP3    H147388   1.946   3.249  12.969 -0.8304  0.1093 -0.5596
 7731TIP3    H247389   2.052   3.232  12.863  0.7614 -0.4153  1.0695
 7732TIP3   OH247390   4.999   4.074  13.316 -0.0902 -0.3277 -0.1494
 7732TIP3    H147391   4.910   4.108  13.305  0.1844  1.2020  1.8143
 7732TIP3    H247392   5.042   4.092  13.233 -1.1623  0.3372 -0.5886
 7733TIP3   OH247393   4.326   3.170  12.361  0.7006 -0.5535  0.0694
 7733TIP3    H147394   4.388   3.151  12.291  1.3528 -0.4707  0.6149
 7733TIP3    H247395   4.360   3.249  12.403 -0.3214  0.0739 -0.2446
 7734TIP3   OH247396   4.133   4.865  12.593  0.4990 -0.2078 -0.3788
 7734TIP3    H147397   4.128   4.772  12.615  1.3722 -0.3915 -0.9051
 7734TIP3    H247398   4.201   4.900  12.651 -0.0614  0.1831  0.0556
 7735TIP3   OH247399   7.958   6.549  13.801 -1.1008  0.4068 -0.4052
 7735TIP3    H147400   7.923   6.559  13.890 -0.1432 -0.3546  0.0809
 7735TIP3    H247401   8.030   6.487  13.811 -2.2259 -1.2933 -2.0294
 7736TIP3   OH247402   6.543   7.189  11.986  0.0497  0.6088 -0.1987
 7736TIP3    H147403   6.448   7.186  11.993 -0.0625 -0.8075 -1.6218
 7736TIP3    H247404   6.575   7.168  12.074 -0.9754  0.1298  0.0720
 7737TIP3   OH247405   7.131   4.545  11.959  0.1275  0.7569  0.3329
 7737TIP3    H147406   7.121   4.451  11.942 -0.2401  0.6722  1.0012
 7737TIP3    H247407   7.122   4.554  12.054  0.8472  1.3862  0.3543
 7738TIP3   OH247408   3.427   7.392  12.989 -0.4234 -0.2168  0.0353
 7738TIP3    H147409   3.495   7.422  13.050  0.5968 -0.4555 -0.9579
 7738TIP3    H247410   3.416   7.299  13.010  1.3097 -0.7883 -1.3632
 7739TIP3   OH247411   6.759   5.414  11.872 -0.1049 -0.0475 -0.1252
 7739TIP3    H147412   6.831   5.444  11.927 -0.3254  1.5486 -0.6622
 7739TIP3    H247413   6.715   5.347  11.925  0.5608  0.3990  1.0221
 7740TIP3   OH247414   4.130   0.408  11.588 -0.2395 -0.0997 -0.4754
 7740TIP3    H147415   4.189   0.359  11.530 -1.6009 -2.0055 -0.3374
 7740TIP3    H247416   4.060   0.347  11.608 -1.3423  1.5080  0.8303
 7741TIP3   OH247417   2.604   4.546  12.848  0.0558  0.7727 -0.3036
 7741TIP3    H147418   2.585   4.593  12.929  2.7635  0.6849  0.4715
 7741TIP3    H247419   2.590   4.454  12.869  2.7223  0.5409  0.7964
 7742TIP3   OH247420   0.037   1.862  12.565 -0.1846 -0.4541  0.0147
 7742TIP3    H147421   0.058   1.877  12.473 -1.1298  1.6558  0.0864
 7742TIP3    H247422  -0.057   1.843  12.565 -0.5211  1.0129  0.6118
 7743TIP3   OH247423   7.891   1.756  12.578  0.0313  0.5914  0.3765
 7743TIP3    H147424   7.940   1.742  12.659 -0.2263  0.2236  0.4724
 7743TIP3    H247425   7.956   1.746  12.509 -0.3732 -2.9006  0.3101
 7744TIP3   OH247426   6.515   2.874  12.816  0.8983  0.0156 -0.0725
 7744TIP3    H147427   6.541   2.936  12.884  1.9970 -1.9770  1.4333
 7744TIP3    H247428   6.425   2.849  12.838  0.6382  0.6576 -0.3828
 7745TIP3   OH247429   7.003   7.248  12.565 -0.8204 -0.6390  0.0284
 7745TIP3    H147430   7.066   7.223  12.498 -0.2508  1.0198 -0.1042
 7745TIP3    H247431   6.967   7.331  12.534 -0.2608  0.3648  1.9249
 7746TIP3   OH247432   2.726   7.907  13.613  0.0133  0.0964 -0.0268
 7746TIP3    H147433   2.667   7.893  13.687  2.7744 -2.2350  1.9770
 7746TIP3    H247434   2.723   7.824  13.565  0.1291  0.6884 -1.0690
 7747TIP3   OH247435   7.884   3.016  12.061 -0.1448  0.1409  0.7800
 7747TIP3    H147436   7.794   3.046  12.074  0.3417  1.6175  0.8964
 7747TIP3    H247437   7.875   2.942  12.001 -1.3681  0.8726 -0.0010
 7748TIP3   OH247438   5.039   1.282  12.667  0.2599  0.2695  0.3137
 7748TIP3    H147439   4.966   1.267  12.607  0.8167 -0.7088 -0.1561
 7748TIP3    H247440   5.083   1.360  12.633  0.8150 -0.5145 -0.8352
 7749TIP3   OH247441   3.257   6.370  13.269 -0.0212 -0.1220 -0.2688
 7749TIP3    H147442   3.321   6.346  13.203 -0.3473  0.6539 -0.8965
 7749TIP3    H247443   3.256   6.466  13.266 -1.0950 -0.1192 -0.1791
 7750TIP3   OH247444   3.937   3.873  12.210 -0.5000 -0.5985 -0.2296
 7750TIP3    H147445   3.945   3.947  12.150 -2.1640 -0.3325 -0.1619
 7750TIP3    H247446   4.027   3.848  12.229  0.0746  0.5164 -1.3494
 7751TIP3   OH247447   4.878   5.475  11.618  0.0927 -0.3892  0.1612
 7751TIP3    H147448   4.968   5.479  11.584 -0.3284 -2.6468 -1.4334
 7751TIP3    H247449   4.881   5.405  11.683 -0.3091  0.3052  0.9487
 7752TIP3   OH247450   3.738   2.695  13.214 -0.0830  0.1056  0.3455
 7752TIP3    H147451   3.825   2.723  13.185 -0.6197  0.9844 -0.4685
 7752TIP3    H247452   3.678   2.754  13.169 -1.0641  0.0729  1.5605
 7753TIP3   OH247453   6.469   7.777  12.096  0.2579  0.1824  0.4671
 7753TIP3    H147454   6.437   7.828  12.171 -0.2698 -0.6435  0.8137
 7753TIP3    H247455   6.445   7.687  12.116  0.4096 -0.0937 -0.5495
 7754TIP3   OH247456   2.354   0.749  11.736 -0.0838  0.4058 -0.0383
 7754TIP3    H147457   2.360   0.700  11.654  1.3128  0.5730 -0.0525
 7754TIP3    H247458   2.444   0.776  11.755 -0.6126  1.7182  0.7265
 7755TIP3   OH247459   2.956   2.659  12.899  0.2170 -0.1589 -0.4319
 7755TIP3    H147460   2.952   2.650  12.994  0.3694  0.6668 -0.3477
 7755TIP3    H247461   2.868   2.637  12.869  0.0212  0.1065 -0.0569
 7756TIP3   OH247462   3.422   1.677  14.002 -0.2406 -0.1484  0.3982
 7756TIP3    H147463   3.366   1.601  13.984 -1.4259  0.8300 -0.1636
 7756TIP3    H247464   3.511   1.644  13.992 -0.7168 -1.5968  0.6942
 7757TIP3   OH247465   6.350   2.576  12.353 -0.5439 -0.1504  0.2402
 7757TIP3    H147466   6.445   2.573  12.367 -0.2700  1.7202 -0.8169
 7757TIP3    H247467   6.336   2.658  12.305 -2.5123 -1.1320 -1.0004
 7758TIP3   OH247468   5.030   8.110  12.760  0.2528 -0.6285  0.1162
 7758TIP3    H147469   5.077   8.144  12.684  0.0784  0.6472  0.5553
 7758TIP3    H247470   4.938   8.125  12.740  0.2605  1.0435  1.1536
 7759TIP3   OH247471   4.427   1.434  12.573  0.1772 -0.1149 -0.1525
 7759TIP3    H147472   4.353   1.450  12.515 -0.6313 -1.1682  0.5450
 7759TIP3    H247473   4.388   1.399  12.653  1.2925  1.0020  0.9314
 7760TIP3   OH247474   5.538   3.382  11.932  0.5507  0.2746  0.2520
 7760TIP3    H147475   5.592   3.366  11.854  0.2164  2.6285 -0.5264
 7760TIP3    H247476   5.456   3.336  11.914  0.9625 -0.3165 -0.1586
 7761TIP3   OH247477   2.027   2.252  12.475  0.5297  0.1558 -0.3524
 7761TIP3    H147478   1.981   2.289  12.400 -0.8431 -1.5471 -0.4091
 7761TIP3    H247479   1.963   2.255  12.547  1.3094  0.3687  0.3571
 7762TIP3   OH247480   6.702   4.418  12.889  0.3619 -0.3032 -0.0203
 7762TIP3    H147481   6.702   4.478  12.963  1.2189  0.1990 -0.4122
 7762TIP3    H247482   6.793   4.386  12.883  0.2717 -0.4547 -0.7496
 7763TIP3   OH247483   6.812   4.699  12.439  0.4247  0.0753  0.0590
 7763TIP3    H147484   6.770   4.690  12.354  2.8213  1.5687 -1.3810
 7763TIP3    H247485   6.742   4.729  12.497 -1.1219 -0.3472 -1.5232
 7764TIP3   OH247486   2.128   0.882  13.473 -0.1802  0.5113 -0.0609
 7764TIP3    H147487   2.164   0.796  13.454 -1.2495 -0.1623  0.8579
 7764TIP3    H247488   2.195   0.924  13.527  0.8632  0.7310 -1.4815
 7765TIP3   OH247489   6.858   2.029  13.068  0.4912  0.0086 -0.3376
 7765TIP3    H147490   6.829   2.042  13.158 -2.1960 -0.5839 -1.0277
 7765TIP3    H247491   6.885   1.937  13.064 -1.4333 -0.5948 -0.5681
 7766TIP3   OH247492   1.987   7.289  13.067 -0.4572 -0.1038  0.1015
 7766TIP3    H147493   1.986   7.194  13.072  1.3224 -0.1845 -0.4987
 7766TIP3    H247494   1.997   7.309  12.974  1.1958  0.5958  0.3972
 7767TIP3   OH247495   1.329   1.929  12.886  0.7956 -0.1164  0.7238
 7767TIP3    H147496   1.377   1.998  12.933  2.2475 -0.8463  0.3849
 7767TIP3    H247497   1.284   1.975  12.816  2.1721  0.4601  0.1757
 7768TIP3   OH247498   4.232   0.885  11.912 -0.3270 -0.5133  0.0002
 7768TIP3    H147499   4.285   0.918  11.985  1.1295 -3.3849  0.3591
 7768TIP3    H247500   4.262   0.937  11.837 -0.6587  1.3443  1.0749
 7769TIP3   OH247501   6.546   0.713  12.396 -0.0063 -0.2541  0.0913
 7769TIP3    H147502   6.479   0.775  12.424  0.4369  0.3157 -0.0874
 7769TIP3    H247503   6.622   0.733  12.452  0.2937 -0.3153 -0.2884
 7770TIP3   OH247504   4.490   8.041  13.074  0.0891 -0.0871 -0.2105
 7770TIP3    H147505   4.517   8.129  13.099 -1.3055  0.5920 -0.9728
 7770TIP3    H247506   4.401   8.033  13.108  0.4249 -1.4541  0.3953
 7771TIP3   OH247507   4.469   1.780  12.460  0.0496 -0.2507  0.0180
 7771TIP3    H147508   4.434   1.725  12.389  2.2314 -1.2480 -0.3785
 7771TIP3    H247509   4.401   1.781  12.526 -1.4581 -0.5227 -1.4676
 7772TIP3   OH247510   3.238   6.649  12.758  0.0838  0.6005  0.2062
 7772TIP3    H147511   3.149   6.674  12.784  0.1213  0.7234  0.2154
 7772TIP3    H247512   3.226   6.606  12.674 -0.1610 -0.7319  0.8949
 7773TIP3   OH247513   3.944   1.071  14.305  0.2233 -0.1232  1.3324
 7773TIP3    H147514   3.931   1.058  14.211  1.3370  0.5140  1.0638
 7773TIP3    H247515   3.868   1.030  14.346 -0.5969  0.1352  0.1261
 7774TIP3   OH247516   0.409   2.992  12.389 -0.2796  0.5494 -0.4649
 7774TIP3    H147517   0.343   3.035  12.443 -1.7603 -1.9416 -0.1260
 7774TIP3    H247518   0.361   2.926  12.339  2.1430 -3.7752  2.2517
 7775TIP3   OH247519   5.312   7.520  12.605  0.0340  0.1964 -0.0851
 7775TIP3    H147520   5.378   7.588  12.621 -0.5547  0.2284  2.8526
 7775TIP3    H247521   5.346   7.471  12.531  2.6076  1.1527  0.3394
 7776TIP3   OH247522   3.241   1.017  11.765 -0.1725  0.3779 -0.1672
 7776TIP3    H147523   3.264   0.925  11.771 -0.9950  0.2341  1.5618
 7776TIP3    H247524   3.235   1.046  11.856  2.1798  2.7215 -0.6302
 7777TIP3   OH247525   3.656   8.175  13.031 -0.2075  0.7681 -1.0349
 7777TIP3    H147526   3.736   8.150  12.985  0.9437  0.6918  0.8794
 7777TIP3    H247527   3.646   8.109  13.100 -2.8614 -0.1481 -2.1945
 7778TIP3   OH247528   7.805   6.230  13.722 -0.0153 -0.1414 -0.0071
 7778TIP3    H147529   7.791   6.136  13.705 -1.3985 -0.3554  2.0145
 7778TIP3    H247530   7.863   6.232  13.798  1.4604  0.7201 -1.0926
 7779TIP3   OH247531   7.495   1.776  12.025 -0.0948  0.1568  0.0337
 7779TIP3    H147532   7.406   1.741  12.025 -1.0509  2.4661  0.2931
 7779TIP3    H247533   7.523   1.770  12.116 -0.3572  0.3121  0.1253
 7780TIP3   OH247534   4.259   2.610  12.300  0.4215  0.1127  0.6794
 7780TIP3    H147535   4.230   2.695  12.268 -0.2289  0.2087  1.4845
 7780TIP3    H247536   4.279   2.560  12.221 -0.9641  0.3962  0.1251
 7781TIP3   OH247537   4.283   3.710  13.044 -0.0215  0.1501  0.0538
 7781TIP3    H147538   4.312   3.800  13.058 -1.2606  0.7225 -0.9231
 7781TIP3    H247539   4.267   3.704  12.950 -1.7134 -0.5262  0.3578
 7782TIP3   OH247540   4.832   7.432  11.849 -0.1463  0.0527  0.7999
 7782TIP3    H147541   4.739   7.454  11.853  0.1170  1.3532  0.3710
 7782TIP3    H247542   4.877   7.514  11.871  0.9061 -0.1429 -0.4829
 7783TIP3   OH247543   4.795   6.466  13.904  0.2023 -0.2307 -0.3321
 7783TIP3    H147544   4.787   6.463  13.999  0.6645 -2.1121 -0.3062
 7783TIP3    H247545   4.705   6.466  13.872 -0.0009  2.3072  0.0797
 7784TIP3   OH247546   7.004   7.317  12.925  0.5291  0.9305 -0.5379
 7784TIP3    H147547   6.913   7.309  12.895  0.0703 -0.6664  1.0730
 7784TIP3    H247548   7.051   7.249  12.876  0.4827  0.6153 -0.1535
 7785TIP3   OH247549   7.742   6.160  12.584 -0.0097 -0.1154 -0.1258
 7785TIP3    H147550   7.689   6.132  12.509  0.7743 -0.1461 -0.6877
 7785TIP3    H247551   7.688   6.225  12.629 -0.0153  0.8280 -1.4358
 7786TIP3   OH247552   6.035   0.392  12.577 -0.0927 -0.3719  0.1106
 7786TIP3    H147553   6.006   0.483  12.584  1.7329  0.3203 -0.6952
 7786TIP3    H247554   5.967   0.349  12.526 -0.3485  0.8772 -0.6440
 7787TIP3   OH247555   6.898   0.519  11.788 -0.6428  0.2045  0.5741
 7787TIP3    H147556   6.916   0.483  11.874  1.3870  0.4226  0.3037
 7787TIP3    H247557   6.804   0.532  11.786 -0.7602 -0.0158  2.6620
 7788TIP3   OH247558   4.355   8.182  12.156  0.1556  0.0629  0.3830
 7788TIP3    H147559   4.278   8.230  12.187 -1.9884 -3.0735  0.2738
 7788TIP3    H247560   4.410   8.250  12.116 -1.9102  2.6300  1.5427
 7789TIP3   OH247561   4.782   4.067  12.536  0.1267  0.2366 -0.5826
 7789TIP3    H147562   4.758   4.102  12.450  0.1901 -1.3040 -1.2516
 7789TIP3    H247563   4.710   4.095  12.594 -0.1633  0.8604 -1.2264
 7790TIP3   OH247564   2.313   3.310  11.792  0.1674  0.6059 -0.1249
 7790TIP3    H147565   2.403   3.343  11.790  0.0242  1.0381  0.3034
 7790TIP3    H247566   2.319   3.224  11.832  0.3981  0.5972 -0.1774
 7791TIP3   OH247567   1.183   1.764  11.566  0.7927  0.2680  0.0071
 7791TIP3    H147568   1.272   1.793  11.544  1.9017 -2.1408  0.9688
 7791TIP3    H247569   1.152   1.829  11.629  2.4601  0.3838  0.7661
 7792TIP3   OH247570   0.983   0.018  12.984  0.7885  0.3012  0.1019
 7792TIP3    H147571   1.020   0.033  13.071 -0.0984  0.3884  0.4750
 7792TIP3    H247572   1.058  -0.003  12.929  1.4463  0.9455  0.7310
 7793TIP3   OH247573   5.563   7.084  12.948 -0.0145 -0.3153 -0.0649
 7793TIP3    H147574   5.546   7.036  12.868 -1.3509 -0.8749  0.5260
 7793TIP3    H247575   5.654   7.064  12.969  0.3539 -0.1489 -1.4213
 7794TIP3   OH247576   0.630   1.758  11.746  0.4014  0.7430 -0.2664
 7794TIP3    H147577   0.685   1.745  11.669  1.3640  0.6751  0.4275
 7794TIP3    H247578   0.600   1.849  11.739 -1.5120  0.0786 -1.9770
 7795TIP3   OH247579   4.776   3.541  12.961  0.2369 -0.2826 -0.1985
 7795TIP3    H147580   4.720   3.584  13.026 -0.7036 -0.0813 -1.1320
 7795TIP3    H247581   4.828   3.611  12.923 -0.6709 -0.0730 -1.0953
 7796TIP3   OH247582   7.739   6.336  14.074  0.3386 -1.0468  0.0337
 7796TIP3    H147583   7.805   6.274  14.046  1.8123  0.1044  0.8103
 7796TIP3    H247584   7.662   6.283  14.094  0.8815 -2.3743 -1.2584
 7797TIP3   OH247585   5.988   4.464  13.302  0.3334 -0.2490  0.3494
 7797TIP3    H147586   5.997   4.416  13.220  0.4517  0.6439 -0.1850
 7797TIP3    H247587   5.986   4.556  13.275 -0.8138  0.0176  1.2462
 7798TIP3   OH247588   3.829   0.980  13.303 -0.0234  0.0704  0.3772
 7798TIP3    H147589   3.841   1.003  13.395 -0.5725 -1.0160  0.7423
 7798TIP3    H247590   3.916   0.989  13.264  0.7684 -1.8182  1.5658
 7799TIP3   OH247591   8.351   1.627  12.468  0.4728 -0.3139  0.0900
 7799TIP3    H147592   8.405   1.625  12.389 -0.6153  0.6541 -0.6967
 7799TIP3    H247593   8.405   1.583  12.534  2.2956  0.7816 -0.6057
 7800TIP3   OH247594   4.101   5.037  13.259  0.2475 -0.0849 -0.1126
 7800TIP3    H147595   4.094   5.038  13.355  1.0537  0.9624 -0.0426
 7800TIP3    H247596   4.192   5.011  13.243  0.5863  1.2602 -0.5316
 7801TIP3   OH247597   4.261   8.113  13.177  0.3994  0.1894 -0.2479
 7801TIP3    H147598   4.198   8.050  13.214  0.3161  0.5053  0.1499
 7801TIP3    H247599   4.311   8.145  13.253  2.0098 -1.0989 -0.7033
 7802TIP3   OH247600   8.179   6.111  12.278 -0.3350 -0.4966  0.4387
 7802TIP3    H147601   8.149   6.175  12.343 -2.0826  0.4496 -1.1811
 7802TIP3    H247602   8.106   6.050  12.270  0.9671 -2.2396  1.3161
 7803TIP3   OH247603   6.778   4.170  11.869 -0.6967 -0.1315 -0.1885
 7803TIP3    H147604   6.752   4.259  11.845 -1.2104 -0.3526 -0.4482
 7803TIP3    H247605   6.870   4.179  11.895 -1.0348  0.6672  0.8024
 7804TIP3   OH247606   3.073   5.951  12.098  0.2248 -0.5873 -0.0451
 7804TIP3    H147607   3.078   6.033  12.048  0.4074 -0.4426  0.2070
 7804TIP3    H247608   3.089   5.883  12.033 -3.9716 -0.7784 -1.1893
 7805TIP3   OH247609   7.158   2.560  12.380  0.5820  0.0715 -1.1089
 7805TIP3    H147610   7.204   2.580  12.461  1.1296 -2.1807 -0.8028
 7805TIP3    H247611   7.197   2.618  12.315  1.0704  0.9566 -0.0515
 7806TIP3   OH247612   8.393   4.069  11.383  0.1425  0.2716 -1.2015
 7806TIP3    H147613   8.488   4.067  11.373  0.0163  0.0336 -2.6308
 7806TIP3    H247614   8.369   4.160  11.365  0.2876  0.9615  1.6749
 7807TIP3   OH247615   6.161   0.845  11.493  0.1665  0.0486  0.0792
 7807TIP3    H147616   6.094   0.913  11.491 -0.9110 -0.9794  0.2339
 7807TIP3    H247617   6.230   0.877  11.435 -0.5291  1.0564 -0.2019
 7808TIP3   OH247618   7.654   2.311  11.928  0.1598  0.5029  0.4894
 7808TIP3    H147619   7.618   2.226  11.951 -2.2378  1.7308  1.7188
 7808TIP3    H247620   7.725   2.326  11.991  0.8492 -0.6766  0.0271
 7809TIP3   OH247621   5.379   2.391  12.347  0.9724  0.3937  0.4133
 7809TIP3    H147622   5.360   2.433  12.432 -1.4705  0.0256  0.1393
 7809TIP3    H247623   5.395   2.300  12.369 -2.6282 -0.4112  0.3978
 7810TIP3   OH247624   1.065   0.139  13.709  0.3223  0.1574 -0.1562
 7810TIP3    H147625   1.127   0.087  13.760  0.9245  0.3198 -0.7041
 7810TIP3    H247626   1.040   0.081  13.636  1.8115  0.9576 -1.3710
 7811TIP3   OH247627   0.043   7.872  12.614 -0.8114 -0.2332 -0.1215
 7811TIP3    H147628   0.092   7.826  12.682 -1.3726  0.5612  0.8535
 7811TIP3    H247629  -0.036   7.902  12.659 -1.4700 -0.1817 -1.2830
 7812TIP3   OH247630   2.062   0.144  12.795  0.0836 -0.1013 -0.5133
 7812TIP3    H147631   2.115   0.152  12.874  1.1759  1.6347 -1.3600
 7812TIP3    H247632   2.118   0.097  12.733  0.3207  0.9337 -1.1128
 7813TIP3   OH247633   7.734   1.511  11.579  0.6313 -0.0280  0.2356
 7813TIP3    H147634   7.765   1.422  11.596 -0.9800 -0.2984  2.2115
 7813TIP3    H247635   7.720   1.549  11.666 -0.4321  1.5197 -0.5524
 7814TIP3   OH247636   4.903   0.007  11.783  0.3734  0.3137  0.7135
 7814TIP3    H147637   4.914   0.053  11.866 -0.6806 -0.2721  1.1943
 7814TIP3    H247638   4.848  -0.068  11.804 -0.3371  0.4320 -0.6080
 7815TIP3   OH247639   7.596   5.537  13.533  0.1411 -0.1829  0.1589
 7815TIP3    H147640   7.608   5.497  13.619 -0.7574 -0.3262  0.2218
 7815TIP3    H247641   7.639   5.623  13.541  2.8816 -1.3971 -0.2482
 7816TIP3   OH247642   3.981   2.942  11.628 -0.4172 -0.0439  0.1829
 7816TIP3    H147643   4.009   2.979  11.712 -0.9252  1.6374 -0.3432
 7816TIP3    H247644   4.061   2.938  11.576  0.1335 -2.2123  1.0833
 7817TIP3   OH247645   4.538   5.616  11.912 -0.2112 -0.2704 -0.1687
 7817TIP3    H147646   4.545   5.711  11.902 -2.3032 -0.1527 -1.1465
 7817TIP3    H247647   4.605   5.594  11.976  1.2218  1.6720 -0.8780
 7818TIP3   OH247648   4.473   1.021  13.320 -0.2559  0.5209  0.2554
 7818TIP3    H147649   4.546   1.040  13.378 -0.0059  1.5400 -0.3727
 7818TIP3    H247650   4.473   1.092  13.256  0.5072 -1.4236 -2.0369
 7819TIP3   OH247651   4.968   2.613  13.196  0.2303 -0.5173  0.0366
 7819TIP3    H147652   4.929   2.575  13.118 -2.2440  0.1856  0.8216
 7819TIP3    H247653   4.964   2.544  13.262  1.0493 -0.6715 -0.0594
 7820TIP3   OH247654   6.018   8.007  11.999  0.3670 -0.7200 -0.0913
 7820TIP3    H147655   6.084   7.947  12.033  2.0868  1.8947  1.5429
 7820TIP3    H247656   6.025   8.084  12.055 -1.3881  1.2093 -2.3403
 7821TIP3   OH247657   0.193   4.739  11.907  0.4074  0.0177 -0.0711
 7821TIP3    H147658   0.222   4.793  11.981  0.5280 -1.3013  0.8893
 7821TIP3    H247659   0.130   4.794  11.860 -1.0071  0.3028  2.0261
 7822TIP3   OH247660   4.143   2.363  13.516  0.1984 -0.1813  0.3801
 7822TIP3    H147661   4.071   2.332  13.570 -0.4306  0.3959 -0.1193
 7822TIP3    H247662   4.189   2.427  13.571 -2.2376  2.7456 -0.7445
 7823TIP3   OH247663   2.973   7.292  11.608  0.4056  0.1663 -0.8158
 7823TIP3    H147664   2.988   7.197  11.607 -0.4561  0.0137 -0.7205
 7823TIP3    H247665   2.884   7.301  11.643  0.7817  1.0591 -0.0570
 7824TIP3   OH247666   5.630   1.304  13.621 -0.2379 -0.0195 -0.6287
 7824TIP3    H147667   5.627   1.385  13.672  0.2696 -1.3199  1.6255
 7824TIP3    H247668   5.721   1.276  13.628 -0.6707 -1.3918 -0.3391
 7825TIP3   OH247669   6.250   4.484  12.461 -0.5339  0.3363 -0.1342
 7825TIP3    H147670   6.229   4.456  12.550 -0.9464 -1.7771 -0.8322
 7825TIP3    H247671   6.176   4.539  12.435 -0.4592  0.8821  0.7739
 7826TIP3   OH247672   5.682   5.407  11.648 -0.3324  0.2030  0.2600
 7826TIP3    H147673   5.761   5.354  11.634 -0.1495  0.4565  0.3392
 7826TIP3    H247674   5.610   5.344  11.638 -0.1943  0.2453 -1.2740
 7827TIP3   OH247675   6.568   4.392  12.659 -0.1342 -0.2481 -0.4017
 7827TIP3    H147676   6.490   4.342  12.682  1.2562 -2.6041 -0.5482
 7827TIP3    H247677   6.610   4.411  12.743  0.0007 -0.4522 -0.4234
 7828TIP3   OH247678   0.110   5.003  12.931  0.1293 -0.3518  0.4150
 7828TIP3    H147679   0.049   5.071  12.958  0.1751 -0.9276  2.0573
 7828TIP3    H247680   0.118   5.014  12.836 -0.1607  1.6721  0.5823
 7829TIP3   OH247681   0.886   5.715  12.632 -0.1416 -0.1691  0.3687
 7829TIP3    H147682   0.879   5.666  12.549  2.1278  0.2169 -0.1044
 7829TIP3    H247683   0.800   5.705  12.672 -1.3733 -0.2734 -2.0859
 7830TIP3   OH247684   2.762   6.495  12.252 -0.4522  0.0425  0.1695
 7830TIP3    H147685   2.688   6.526  12.198 -0.1554  0.3853 -0.0437
 7830TIP3    H247686   2.838   6.539  12.215 -0.1487 -0.2631  0.4321
 7831TIP3   OH247687   6.661   1.243  13.639 -0.5140 -0.2973 -0.6198
 7831TIP3    H147688   6.626   1.221  13.725  0.6285 -0.0124 -0.0566
 7831TIP3    H247689   6.584   1.255  13.584 -1.2834  0.1689  0.5192
 7832TIP3   OH247690   8.378   4.823  11.437 -0.5004 -0.2458  0.1782
 7832TIP3    H147691   8.330   4.813  11.520 -0.7979  2.2692  0.3827
 7832TIP3    H247692   8.321   4.879  11.384 -0.7802 -2.5728 -2.1838
 7833TIP3   OH247693   6.777   6.420  13.558  0.6203 -0.5300 -0.3461
 7833TIP3    H147694   6.694   6.465  13.538 -0.3919 -0.3727  3.4532
 7833TIP3    H247695   6.844   6.488  13.548  0.0450 -0.1027 -1.4784
 7834TIP3   OH247696   0.343   1.472  12.944  0.5931  0.3866  0.1589
 7834TIP3    H147697   0.349   1.417  12.866  0.3494  2.0356 -1.0651
 7834TIP3    H247698   0.417   1.445  12.999  1.4565 -0.0124 -1.1611
 7835TIP3   OH247699   4.425   3.374  12.517  0.7268  0.2806 -0.1061
 7835TIP3    H147700   4.388   3.350  12.602  0.5539 -0.2118 -0.3208
 7835TIP3    H247701   4.376   3.452  12.491 -0.6261 -0.7135 -0.6759
 7836TIP3   OH247702   2.768   5.262  12.437  0.1466 -0.3358 -0.5630
 7836TIP3    H147703   2.791   5.355  12.439  0.7899 -0.4967  0.0416
 7836TIP3    H247704   2.838   5.221  12.387 -0.3824 -0.4378 -1.2295
 7837TIP3   OH247705   1.227   7.794  12.835 -0.0128  0.1898 -0.3430
 7837TIP3    H147706   1.135   7.767  12.846 -0.0443  0.4743  0.0945
 7837TIP3    H247707   1.277   7.729  12.884  0.2403 -1.4870 -2.6372
 7838TIP3   OH247708   6.342   0.852  12.461 -0.1667  0.2276  0.1260
 7838TIP3    H147709   6.252   0.833  12.437  0.2128  1.5550 -2.7649
 7838TIP3    H247710   6.341   0.945  12.485  0.6756  0.7772 -1.7830
 7839TIP3   OH247711   6.579   5.809  12.946 -0.6501 -0.2307 -0.1903
 7839TIP3    H147712   6.557   5.755  12.870  0.6366 -0.2647 -0.5597
 7839TIP3    H247713   6.638   5.877  12.912 -0.4681  0.0576  0.6744
 7840TIP3   OH247714   2.769   4.235  12.321  0.1865 -0.4851 -0.7019
 7840TIP3    H147715   2.731   4.260  12.405 -0.8908 -2.1453 -0.6440
 7840TIP3    H247716   2.842   4.177  12.344 -1.5020 -2.7974 -0.8708
 7841TIP3   OH247717   4.536   5.650  13.235 -0.1716 -0.1720  0.1605
 7841TIP3    H147718   4.603   5.593  13.195  0.2675  1.1277 -1.0459
 7841TIP3    H247719   4.492   5.690  13.161 -1.6410 -0.2401  0.9730
 7842TIP3   OH247720   5.269   1.299  13.381  0.6364  0.5947  0.1752
 7842TIP3    H147721   5.250   1.299  13.287  1.2968  2.5858 -0.0220
 7842TIP3    H247722   5.260   1.208  13.408  0.8929 -0.1021 -1.9194
 7843TIP3   OH247723   1.378   0.387  11.784  0.1506  0.0831 -0.1904
 7843TIP3    H147724   1.473   0.382  11.790  0.3886  0.0681 -2.8651
 7843TIP3    H247725   1.355   0.468  11.829  1.6384  1.0850 -1.1524
 7844TIP3   OH247726   1.019   3.066  12.491 -0.1286  0.4785  0.3663
 7844TIP3    H147727   1.091   3.023  12.444 -0.5066  0.0639  0.1571
 7844TIP3    H247728   1.060   3.102  12.570  0.1642 -0.4883  0.6744
 7845TIP3   OH247729   3.709   5.394  11.559 -0.3102 -0.4962  0.5191
 7845TIP3    H147730   3.777   5.439  11.509  0.1357 -0.0797  1.4744
 7845TIP3    H247731   3.670   5.333  11.497  0.5048 -0.2886 -0.2169
 7846TIP3   OH247732   2.670   4.117  12.059 -0.1725 -0.1643  0.0814
 7846TIP3    H147733   2.749   4.063  12.058  1.4695  2.0622  0.2948
 7846TIP3    H247734   2.681   4.174  12.135 -1.3742  1.0313 -0.5943
 7847TIP3   OH247735   0.728   1.394  12.860  0.1351  0.0615 -0.0955
 7847TIP3    H147736   0.739   1.344  12.779 -0.1235  1.9267 -1.3602
 7847TIP3    H247737   0.807   1.447  12.867 -1.6790  3.3360 -1.7554
 7848TIP3   OH247738   1.344   3.657  11.840  0.2546  0.2966  0.2430
 7848TIP3    H147739   1.298   3.714  11.779  0.3178  1.2498  1.0517
 7848TIP3    H247740   1.345   3.707  11.922  2.4039  0.1582  0.3436
 7849TIP3   OH247741   3.926   4.094  12.044 -0.1394 -0.5197 -0.3454
 7849TIP3    H147742   3.971   4.133  11.969  0.2640  1.1585  0.7041
 7849TIP3    H247743   3.846   4.147  12.053 -0.8671 -1.5793 -0.3997
 7850TIP3   OH247744   7.900   5.657  11.618  0.4288  0.1556 -0.4316
 7850TIP3    H147745   7.957   5.708  11.676 -0.9641 -0.2605  1.3691
 7850TIP3    H247746   7.887   5.574  11.664 -0.0388 -0.5321 -1.7612
 7851TIP3   OH247747   1.526   1.950  13.283 -0.6545 -0.1656  0.3276
 7851TIP3    H147748   1.506   2.042  13.303  0.3212  0.2314 -0.4497
 7851TIP3    H247749   1.619   1.950  13.262 -0.6529 -1.3383  0.2989
 7852TIP3   OH247750   3.049   7.433  13.365  0.0020 -0.9667 -0.7032
 7852TIP3    H147751   2.980   7.367  13.354  0.0451 -1.1048 -0.1656
 7852TIP3    H247752   3.130   7.387  13.344  0.0416 -1.1105 -0.2333
 7853TIP3   OH247753   0.128   1.452  13.114  0.1623  0.6420 -0.6087
 7853TIP3    H147754   0.065   1.381  13.124  0.4974  0.0287 -2.3994
 7853TIP3    H247755   0.193   1.417  13.053 -0.2188  2.8180 -2.3635
 7854TIP3   OH247756   6.095   5.704  12.413 -0.1045  0.5614 -0.2281
 7854TIP3    H147757   6.131   5.620  12.387 -1.1064  0.2372 -0.6162
 7854TIP3    H247758   6.077   5.749  12.331  0.9037  1.3762 -0.0171
 7855TIP3   OH247759   6.602   1.879  12.978 -0.0026  0.1842 -0.8106
 7855TIP3    H147760   6.685   1.917  13.007 -0.9239  1.5891  0.1319
 7855TIP3    H247761   6.563   1.948  12.924 -0.3544 -0.6439 -1.6254
 7856TIP3   OH247762   2.382   6.429  13.646 -0.3116  0.0746 -0.2449
 7856TIP3    H147763   2.440   6.500  13.673  0.3538 -0.7676  0.6208
 7856TIP3    H247764   2.403   6.357  13.706 -0.3796 -1.1327 -1.6113
 7857TIP3   OH247765   5.650   4.424  13.614 -0.0695 -0.1723  0.2083
 7857TIP3    H147766   5.576   4.472  13.652 -1.5977  0.1502 -2.8865
 7857TIP3    H247767   5.655   4.344  13.666 -2.7934 -0.3090  0.4282
 7858TIP3   OH247768   7.060   2.830  11.415 -0.4334 -0.1402  0.3893
 7858TIP3    H147769   6.981   2.777  11.406 -1.6074  1.5928 -0.0871
 7858TIP3    H247770   7.029   2.913  11.452  1.2965  0.3064  0.9311
 7859TIP3   OH247771   5.076   6.375  12.642 -0.0326  0.4982 -0.5756
 7859TIP3    H147772   4.994   6.410  12.675 -0.1889 -2.4174  2.7738
 7859TIP3    H247773   5.051   6.303  12.585  0.0180 -1.1553  1.3631
 7860TIP3   OH247774   3.202   2.452  11.720 -0.0337 -0.2130  0.6279
 7860TIP3    H147775   3.286   2.455  11.675 -0.6436  0.2316 -0.5025
 7860TIP3    H247776   3.208   2.520  11.787 -0.5111  1.9110 -1.3443
 7861TIP3   OH247777   3.620   0.367  12.832 -0.6448 -0.1138 -0.1956
 7861TIP3    H147778   3.637   0.276  12.857  1.5649  0.8176  2.1547
 7861TIP3    H247779   3.696   0.415  12.864 -1.2155  2.4569 -2.3238
 7862TIP3   OH247780   5.885   4.633  13.737  0.0637 -0.7853  0.6921
 7862TIP3    H147781   5.823   4.653  13.668  0.7517  0.5298  0.4398
 7862TIP3    H247782   5.953   4.581  13.695 -0.3145 -1.3293  0.7420
 7863TIP3   OH247783   5.269   4.016  11.709 -0.1524 -0.5198  0.1727
 7863TIP3    H147784   5.340   4.041  11.650  1.1972  0.8829  2.2559
 7863TIP3    H247785   5.304   4.031  11.797 -3.1704  0.6894  1.3108
 7864TIP3   OH247786   6.941   8.301  12.083 -0.3806  0.0053 -0.0110
 7864TIP3    H147787   7.021   8.252  12.101 -0.1229  0.5285  0.3114
 7864TIP3    H247788   6.905   8.260  12.005  0.9141  0.5915 -0.9538
 7865TIP3   OH247789   6.584   0.155  13.572  0.0483 -0.0543  0.1171
 7865TIP3    H147790   6.512   0.159  13.510  0.3557  2.2432 -0.1526
 7865TIP3    H247791   6.604   0.061  13.578 -0.6492 -0.4565 -2.4607
 7866TIP3   OH247792   6.533   5.095  12.748 -0.1966 -0.6350 -0.2452
 7866TIP3    H147793   6.617   5.066  12.784  0.5989  0.9380 -0.7192
 7866TIP3    H247794   6.500   5.158  12.813  0.6389  1.2599 -1.5552
 7867TIP3   OH247795   7.739   5.925  12.871 -0.1463  0.5381  0.3362
 7867TIP3    H147796   7.703   5.840  12.894  1.1358 -0.1892 -0.2205
 7867TIP3    H247797   7.673   5.988  12.900 -0.4889 -0.5536  2.0610
 7868TIP3   OH247798   4.455   1.611  13.890 -0.1288 -0.7851 -0.0456
 7868TIP3    H147799   4.368   1.646  13.911 -0.2561 -0.5426 -0.9469
 7868TIP3    H247800   4.500   1.684  13.847  0.6992 -0.7555  0.8375
 7869TIP3   OH247801   7.009   7.828  12.670 -0.8641 -0.0364  0.5744
 7869TIP3    H147802   6.948   7.869  12.732 -1.0743 -0.1741  0.4615
 7869TIP3    H247803   7.022   7.740  12.704 -1.3625 -0.2779  0.1653
 7870TIP3   OH247804   2.872   4.418  12.789 -0.6766 -0.4111  0.0589
 7870TIP3    H147805   2.825   4.342  12.755 -0.2170 -0.9348  0.5705
 7870TIP3    H247806   2.841   4.427  12.879 -0.8984  0.1547 -0.0673
 7871TIP3   OH247807   2.308   7.567  13.060  0.4534  0.1521 -0.3991
 7871TIP3    H147808   2.363   7.518  12.999 -0.6332  0.9949 -2.1830
 7871TIP3    H247809   2.219   7.556  13.025 -0.3105  0.1461  1.4468
 7872TIP3   OH247810   5.129   2.924  11.920 -0.3728  0.2208 -0.0326
 7872TIP3    H147811   5.130   2.871  12.000  1.4783  1.6888  0.9987
 7872TIP3    H247812   5.156   2.863  11.851  0.3956 -0.5310  0.8892
 7873TIP3   OH247813   4.769   5.221  12.108  0.4421 -0.0729 -0.2878
 7873TIP3    H147814   4.864   5.228  12.099  0.5717 -1.2476  0.0968
 7873TIP3    H247815   4.753   5.222  12.202 -0.1336  2.2365 -0.3312
 7874TIP3   OH247816   3.277   0.346  12.984  0.2094  0.0503 -0.0202
 7874TIP3    H147817   3.220   0.310  13.052  0.3695  2.3497  1.4150
 7874TIP3    H247818   3.217   0.383  12.919 -0.0649  2.3655  1.4335
 7875TIP3   OH247819   6.171   1.587  12.422 -0.3444  0.2648  0.2881
 7875TIP3    H147820   6.132   1.675  12.424 -0.9417 -0.0103  1.1379
 7875TIP3    H247821   6.170   1.563  12.330 -2.2146  0.2685  0.2818
 7876TIP3   OH247822   5.285   6.691  11.836 -0.0267 -0.0402 -0.2713
 7876TIP3    H147823   5.306   6.666  11.746 -1.5758  0.4086 -0.7894
 7876TIP3    H247824   5.191   6.707  11.835  0.4699  3.8139  0.4874
 7877TIP3   OH247825   7.689   3.267  12.395 -0.4946  0.2462 -0.6258
 7877TIP3    H147826   7.631   3.203  12.436  0.6503 -1.3376 -1.3774
 7877TIP3    H247827   7.680   3.251  12.301 -0.3234  1.3270 -0.8422
 7878TIP3   OH247828   0.615   5.434  13.176  0.0926 -0.1142 -0.0503
 7878TIP3    H147829   0.553   5.496  13.214  1.7099  1.1752  0.6356
 7878TIP3    H247830   0.660   5.483  13.107  0.9929 -0.6953  0.0981
 7879TIP3   OH247831   6.919   7.891  11.971  0.3137 -0.9031 -0.2642
 7879TIP3    H147832   6.883   7.860  12.054 -0.2527  1.5267  0.4943
 7879TIP3    H247833   6.881   7.978  11.960  2.0535 -0.2886 -1.9937
 7880TIP3   OH247834   8.200   4.968  12.856 -0.5312  0.0408  0.1400
 7880TIP3    H147835   8.147   4.938  12.782 -0.3368  0.5845 -0.2210
 7880TIP3    H247836   8.275   4.909  12.858 -2.0728 -2.0434  1.8745
 7881TIP3   OH247837   6.180   6.728  12.851  0.0764  0.3133  0.2862
 7881TIP3    H147838   6.197   6.819  12.828  0.2083  0.8793  2.3845
 7881TIP3    H247839   6.170   6.729  12.946 -1.1103 -1.6893  0.2458
 7882TIP3   OH247840   1.086   7.381  12.930  0.3491  0.7431  0.3016
 7882TIP3    H147841   1.119   7.396  12.842  0.3831 -2.0710 -0.2535
 7882TIP3    H247842   1.125   7.452  12.982  1.4785  1.6499 -1.6377
 7883TIP3   OH247843   7.328   4.906  12.739 -0.5905  0.1427  0.1660
 7883TIP3    H147844   7.268   4.933  12.808 -2.1314 -1.7174 -0.3577
 7883TIP3    H247845   7.301   4.955  12.661 -0.5425  0.3080  0.2538
 7884TIP3   OH247846   8.005   1.344  11.424 -0.0469 -0.0821 -0.3422
 7884TIP3    H147847   7.979   1.434  11.402  0.3538 -0.0892 -0.8856
 7884TIP3    H247848   8.078   1.355  11.485 -1.3688 -0.0634  1.2999
 7885TIP3   OH247849   7.384   0.849  12.040 -0.5246 -0.0458 -0.4485
 7885TIP3    H147850   7.313   0.791  12.066 -1.1328  0.3281 -1.2228
 7885TIP3    H247851   7.370   0.864  11.946  0.3375  0.3594 -0.5232
 7886TIP3   OH247852   4.767   1.229  13.970  0.1342  0.1661  0.0876
 7886TIP3    H147853   4.853   1.270  13.957  0.6962 -0.2552  2.1958
 7886TIP3    H247854   4.771   1.148  13.919  1.5660 -0.5642  1.2952
 7887TIP3   OH247855   6.352   8.245  13.139 -0.2222 -0.3383  0.6193
 7887TIP3    H147856   6.351   8.184  13.065 -0.0783  0.0357  0.3042
 7887TIP3    H247857   6.320   8.194  13.213 -0.5565 -0.6664  0.2556
 7888TIP3   OH247858   4.366   6.157  11.966  0.1034  0.0799 -0.3553
 7888TIP3    H147859   4.281   6.201  11.962  0.0154 -0.0257  0.2411
 7888TIP3    H247860   4.353   6.086  12.028  0.5566 -0.1036 -0.4683
 7889TIP3   OH247861   2.331   2.748  12.348 -0.1104  0.2243  0.3445
 7889TIP3    H147862   2.420   2.782  12.338 -0.1298  0.3146  0.4826
 7889TIP3    H247863   2.280   2.823  12.381  0.0893 -0.2457  1.7828
 7890TIP3   OH247864   3.522   1.829  12.323  0.5703 -0.0387 -0.1899
 7890TIP3    H147865   3.433   1.824  12.357  0.3893  1.4640 -0.3801
 7890TIP3    H247866   3.554   1.739  12.327 -0.8189 -0.5424  0.2243
 7891TIP3   OH247867   5.714   0.447  13.558 -0.5997  0.4211 -0.3281
 7891TIP3    H147868   5.635   0.424  13.606  0.9962  1.4391  3.0468
 7891TIP3    H247869   5.716   0.542  13.557  0.8739  0.4218  0.2175
 7892TIP3   OH247870   6.352   2.538  12.646  0.2530  0.8978 -0.4456
 7892TIP3    H147871   6.260   2.515  12.657  0.1839  1.2758 -0.1850
 7892TIP3    H247872   6.355   2.586  12.563  0.0564  1.6708 -0.0143
 7893TIP3   OH247873   4.962   0.743  12.041  0.7024 -0.1099  0.4049
 7893TIP3    H147874   4.954   0.655  12.078  1.4994 -0.1149  0.5886
 7893TIP3    H247875   5.049   0.772  12.069  0.8730  0.3192 -0.5421
 7894TIP3   OH247876   6.241   4.389  13.394 -0.4252 -0.0985 -0.0704
 7894TIP3    H147877   6.226   4.295  13.399 -2.0643  0.1283 -0.2684
 7894TIP3    H247878   6.159   4.425  13.360  0.4835  1.3182 -0.8571
 7895TIP3   OH247879   1.056   0.079  11.490 -0.0324  0.1191 -0.0636
 7895TIP3    H147880   1.112   0.110  11.561  1.4306  0.0720 -1.1542
 7895TIP3    H247881   1.076  -0.015  11.482  0.4330  0.2842 -1.0432
 7896TIP3   OH247882   5.628   7.843  12.933 -0.6202  0.2827 -0.2886
 7896TIP3    H147883   5.642   7.810  13.022  0.1229  0.3341 -0.3791
 7896TIP3    H247884   5.628   7.938  12.942 -1.8168  0.2859 -0.1682
 7897TIP3   OH247885   3.455   7.874  11.717  0.2119  0.3319 -0.3568
 7897TIP3    H147886   3.446   7.843  11.807 -0.6170 -0.5839 -0.7283
 7897TIP3    H247887   3.547   7.900  11.709  0.4427 -0.1673  0.5703
 7898TIP3   OH247888   2.435   7.025  12.325 -0.0253 -0.3426 -0.0014
 7898TIP3    H147889   2.365   6.962  12.313 -0.5635  0.3001 -0.3099
 7898TIP3    H247890   2.490   7.016  12.247 -0.0660 -0.4685 -0.0151
 7899TIP3   OH247891   1.137   1.336  13.564 -0.3975 -0.0496 -0.7488
 7899TIP3    H147892   1.054   1.379  13.548 -0.5373  0.2134  0.5318
 7899TIP3    H247893   1.203   1.405  13.555 -0.5666  0.3297  0.7117
 7900TIP3   OH247894   3.126   6.651  13.293 -0.5724  0.3932 -0.3910
 7900TIP3    H147895   3.055   6.592  13.318  0.9686 -1.2451  0.3538
 7900TIP3    H247896   3.089   6.739  13.304 -1.8524 -0.3394  2.0638
 7901TIP3   OH247897   4.872   3.812  12.534  0.4682 -0.2199 -0.5748
 7901TIP3    H147898   4.791   3.763  12.522  0.0529  0.4628 -0.6463
 7901TIP3    H247899   4.843   3.903  12.543  1.3869  0.4403 -3.3435
 7902TIP3   OH247900   6.664   0.978  11.832  0.6047 -0.5029  0.9354
 7902TIP3    H147901   6.638   0.949  11.745 -0.4945  2.8570 -0.0186
 7902TIP3    H247902   6.663   0.899  11.886 -0.9614 -2.3118 -1.5670
 7903TIP3   OH247903   4.711   4.119  12.011 -0.0837 -0.6602  0.0397
 7903TIP3    H147904   4.680   4.209  12.023  0.1650 -0.7117  1.1218
 7903TIP3    H247905   4.648   4.080  11.950  1.2921  1.0224 -2.6573
 7904TIP3   OH247906   5.862   8.385  13.023 -0.1541 -0.3163  0.4582
 7904TIP3    H147907   5.806   8.385  12.945  0.1657  1.5308  0.1766
 7904TIP3    H247908   5.948   8.361  12.991 -0.4317 -1.6361  0.6345
 7905TIP3   OH247909   4.977   5.566  13.824 -0.2233 -0.1199  0.5013
 7905TIP3    H147910   5.022   5.539  13.904  0.3067 -0.7146  0.0163
 7905TIP3    H247911   4.917   5.636  13.852  0.5429  0.2470  1.2679
 7906TIP3   OH247912   0.517   2.424  12.439  0.3930  0.1900  0.0264
 7906TIP3    H147913   0.598   2.374  12.432 -1.3042 -2.7972  0.1471
 7906TIP3    H247914   0.503   2.434  12.533 -0.3531 -1.0876  0.0677
 7907TIP3   OH247915   2.683   5.505  17.252 -0.6712 -0.2612 -0.4742
 7907TIP3    H147916   2.757   5.446  17.235  0.0899  0.5536 -0.0797
 7907TIP3    H247917   2.629   5.498  17.173 -0.1441 -0.8327 -0.7984
 7908TIP3   OH247918   3.207   1.914  12.539  0.0528  0.6654  0.1077
 7908TIP3    H147919   3.283   1.860  12.560  1.0945  1.0140 -2.4570
 7908TIP3    H247920   3.141   1.889  12.604  1.9381 -0.4869  1.6869
 7909TIP3   OH247921   0.207   3.150  11.634 -0.1409  0.6666 -0.4785
 7909TIP3    H147922   0.209   3.238  11.597 -1.3001  2.0783  2.5476
 7909TIP3    H247923   0.292   3.139  11.676  0.0858  0.1976 -1.0315
 7910TIP3   OH247924   1.666   5.881  12.342  0.1302  0.7889  0.2004
 7910TIP3    H147925   1.657   5.964  12.295  1.1984 -0.0875 -1.6702
 7910TIP3    H247926   1.579   5.842  12.338  0.3800  0.3305 -1.9416
 7911TIP3   OH247927   0.325   1.417  12.258  0.6373 -0.0532 -0.3357
 7911TIP3    H147928   0.401   1.454  12.213 -0.0680  0.4275 -1.1749
 7911TIP3    H247929   0.285   1.359  12.193  1.8766 -2.6174  1.0328
 7912TIP3   OH247930   2.065   6.477  11.883  0.3705  0.0502  0.0236
 7912TIP3    H147931   2.099   6.400  11.928  0.9677 -0.7793 -1.7521
 7912TIP3    H247932   1.979   6.491  11.923 -1.6569 -4.0587 -2.1966
 7913TIP3   OH247933   2.866   2.988  12.166  0.2465  0.0021 -0.6749
 7913TIP3    H147934   2.917   3.063  12.198  0.9230 -0.7594  0.0825
 7913TIP3    H247935   2.860   2.930  12.242  0.1206 -0.9106 -1.3797
 7914TIP3   OH247936   4.706   6.802  11.744 -0.0400 -0.1819 -0.3244
 7914TIP3    H147937   4.610   6.799  11.738 -0.1489 -0.0242  1.0200
 7914TIP3    H247938   4.736   6.758  11.664 -1.2199  0.2630 -1.0429
 7915TIP3   OH247939   4.900   3.504  13.508 -0.5226 -0.0155 -0.0207
 7915TIP3    H147940   4.934   3.543  13.428 -1.9460  0.4216 -0.4418
 7915TIP3    H247941   4.949   3.422  13.518 -1.3919 -0.8782 -2.2171
 7916TIP3   OH247942   7.732   1.603  11.881  0.2336 -0.1229  0.6771
 7916TIP3    H147943   7.665   1.647  11.934  1.8550  0.2098  2.5510
 7916TIP3    H247944   7.778   1.546  11.943  0.8464 -1.3717 -0.8582
 7917TIP3   OH247945   2.890   0.406  12.415 -0.3949 -0.1248 -0.3817
 7917TIP3    H147946   2.958   0.470  12.394 -0.0650 -0.5373 -0.5849
 7917TIP3    H247947   2.825   0.417  12.346 -2.1197  2.4375  1.4615
 7918TIP3   OH247948   1.664   6.850  12.506  0.5298 -0.4583  0.7185
 7918TIP3    H147949   1.588   6.874  12.558  1.1942 -0.4479  1.7048
 7918TIP3    H247950   1.636   6.864  12.415 -0.9304 -1.3204  1.0103
 7919TIP3   OH247951   1.904   5.320  12.064  0.1177  0.0841 -0.1599
 7919TIP3    H147952   1.976   5.357  12.014 -1.9194  2.3191 -1.6934
 7919TIP3    H247953   1.899   5.228  12.035  0.7229  0.5984 -2.0292
 7920TIP3   OH247954   8.033   6.496  13.228  0.0257 -0.4418 -0.4863
 7920TIP3    H147955   8.022   6.496  13.323  0.7787 -0.5202 -0.3938
 7920TIP3    H247956   7.997   6.412  13.199 -1.2267  0.0538 -0.4015
 7921TIP3   OH247957   3.891   8.426  12.451 -0.0526 -0.6816 -0.2176
 7921TIP3    H147958   3.916   8.334  12.442 -0.4621 -0.8722  0.5336
 7921TIP3    H247959   3.800   8.430  12.421  0.9313  0.1200 -3.5470
 7922TIP3   OH247960   4.334   3.186  11.937 -0.2628  0.2171  0.6330
 7922TIP3    H147961   4.287   3.254  11.986 -0.0049  0.9987 -0.1684
 7922TIP3    H247962   4.364   3.231  11.857 -0.7094 -1.0340 -0.2552
 7923TIP3   OH247963   4.781   2.793  12.984 -0.6903 -0.1353  0.4575
 7923TIP3    H147964   4.863   2.783  13.032 -0.8551 -1.3426  0.5084
 7923TIP3    H247965   4.728   2.850  13.040 -0.2826 -0.2246  0.9446
 7924TIP3   OH247966   2.544   1.631  12.787 -0.2038  0.0950  0.1814
 7924TIP3    H147967   2.578   1.590  12.866  1.6583  1.7099  0.2888
 7924TIP3    H247968   2.610   1.614  12.720 -1.3212 -0.4797 -0.8220
 7925TIP3   OH247969   2.928   3.770  11.543 -0.3571 -0.7334 -0.1032
 7925TIP3    H147970   2.936   3.687  11.590 -1.5280 -1.9584 -1.9414
 7925TIP3    H247971   2.854   3.757  11.484  0.4124  1.0628 -1.5596
 7926TIP3   OH247972   1.968   0.830  13.029 -0.1539  0.4036 -0.1233
 7926TIP3    H147973   1.944   0.766  13.096 -0.5098  0.1323 -0.5045
 7926TIP3    H247974   2.037   0.882  13.070 -0.9506  0.7964  0.7644
 7927TIP3   OH247975   8.299   6.245  12.034  0.1085  0.1990  0.0774
 7927TIP3    H147976   8.277   6.188  11.961  3.1957  0.6864 -1.3894
 7927TIP3    H247977   8.264   6.199  12.111 -1.4870 -1.3199 -1.4385
 7928TIP3   OH247978   3.099   0.698  11.422  0.1782  0.6794 -0.2214
 7928TIP3    H147979   3.108   0.784  11.462  0.0281  0.2514  0.7815
 7928TIP3    H247980   3.014   0.701  11.377 -0.1053  0.8678  0.3157
 7929TIP3   OH247981   3.754   0.474  12.558  0.1150  0.1184  0.4326
 7929TIP3    H147982   3.713   0.394  12.525 -0.4218  0.0596  1.2461
 7929TIP3    H247983   3.791   0.449  12.643 -0.5389  0.8746  0.9486
 7930TIP3   OH247984   0.407   4.933  12.652 -0.2601  0.2019  0.0250
 7930TIP3    H147985   0.347   5.007  12.661 -0.5298 -0.0934  0.7037
 7930TIP3    H247986   0.373   4.882  12.579 -0.4002  0.4425 -0.0770
 7931TIP3   OH247987   2.908   6.490  13.319  0.4284  0.1477  0.1117
 7931TIP3    H147988   2.827   6.504  13.368  1.4640  3.8982  1.1355
 7931TIP3    H247989   2.928   6.397  13.331 -2.5105 -0.4083  1.6877
 7932TIP3   OH247990   3.356   4.076  13.369  0.5272 -0.2897 -0.5376
 7932TIP3    H147991   3.415   4.091  13.443  0.1521  1.3156 -0.5157
 7932TIP3    H247992   3.414   4.060  13.295  0.9888  0.5291 -0.3685
 7933TIP3   OH247993   7.077   5.696  12.538  0.6755  0.5402  0.4416
 7933TIP3    H147994   7.086   5.766  12.474 -0.3092  0.2855  0.0104
 7933TIP3    H247995   7.063   5.617  12.486  2.2994 -0.0920  0.9007
 7934TIP3   OH247996   4.505   1.356  13.915  0.4038  0.1408  0.2495
 7934TIP3    H147997   4.567   1.353  13.987 -2.6381  1.1330  3.1616
 7934TIP3    H247998   4.482   1.449  13.907 -0.2351 -0.1148 -1.2202
 7935TIP3   OH247999   6.443   5.719  11.397  0.0285  0.4104  0.1669
 7935TIP3    H148000   6.507   5.789  11.385 -1.5559  1.6681 -1.5850
 7935TIP3    H248001   6.486   5.640  11.365  1.0167  1.0394 -0.1017
 7936TIP3   OH248002   0.719   1.982  11.590  0.0381 -0.0631 -0.1215
 7936TIP3    H148003   0.788   2.049  11.590 -0.3881  0.3924 -1.2947
 7936TIP3    H248004   0.742   1.924  11.518 -1.8542  1.2466 -1.8935
 7937TIP3   OH248005   5.157   3.548  12.709 -0.1957  0.0694  0.1853
 7937TIP3    H148006   5.091   3.495  12.664  0.0006 -0.1887  0.2017
 7937TIP3    H248007   5.236   3.537  12.657 -0.1767  0.4186  0.1407
 7938TIP3   OH248008   2.907   5.998  12.468  0.1655  0.1600  0.0229
 7938TIP3    H148009   2.970   6.066  12.493 -1.7984  1.2213  2.4660
 7938TIP3    H248010   2.822   6.033  12.492 -1.1618 -2.3123 -0.6777
 7939TIP3   OH248011   5.424   1.639  13.294 -0.6304 -0.0081 -0.3293
 7939TIP3    H148012   5.429   1.587  13.374 -0.9153  0.2072 -0.1680
 7939TIP3    H248013   5.349   1.603  13.246 -0.3330 -0.2725 -0.5986
 7940TIP3   OH248014   6.500   6.889  13.470  0.5017 -0.2193 -0.2610
 7940TIP3    H148015   6.434   6.821  13.461 -0.6884  0.2848  3.1676
 7940TIP3    H248016   6.449   6.970  13.478  1.7814  0.7732 -1.6133
 7941TIP3   OH248017   3.478   2.640  12.636 -0.0699 -0.1004 -0.1301
 7941TIP3    H148018   3.490   2.641  12.731  0.6042 -0.8152 -0.1974
 7941TIP3    H248019   3.484   2.547  12.612  0.1042  0.1038 -0.9072
 7942TIP3   OH248020   5.519   7.083  12.199 -0.2631 -0.0617  0.4427
 7942TIP3    H148021   5.589   7.095  12.135  0.4996  0.1021  1.2828
 7942TIP3    H248022   5.449   7.039  12.150  0.1064  0.4779 -0.6144
 7943TIP3   OH248023   2.738   0.881  12.141 -0.2005  0.3461 -0.0293
 7943TIP3    H148024   2.742   0.946  12.211 -0.2501 -0.4866  0.7535
 7943TIP3    H248025   2.646   0.881  12.113 -0.4600 -0.2637  0.8086
 7944TIP3   OH248026   8.228   4.654  12.483 -0.5538  0.1452  0.0596
 7944TIP3    H148027   8.245   4.601  12.405  1.7773  1.1231 -0.1923
 7944TIP3    H248028   8.251   4.598  12.557  0.6762  0.3465 -0.1510
 7945TIP3   OH248029   0.321   4.336  12.039  0.0688  0.3600 -0.4159
 7945TIP3    H148030   0.285   4.400  11.977  1.3752  0.8669 -0.6734
 7945TIP3    H248031   0.296   4.251  12.002 -1.8361  0.6767  0.0221
 7946TIP3   OH248032   3.447   0.550  13.968  0.0317  0.8382 -0.0897
 7946TIP3    H148033   3.535   0.570  13.936  0.1089 -0.2622 -0.5981
 7946TIP3    H248034   3.459   0.477  14.029 -0.3868  1.4990  0.8105
 7947TIP3   OH248035   3.184   5.055  11.680  0.2435 -0.2749 -0.0303
 7947TIP3    H148036   3.175   4.974  11.630  1.9857 -1.4823  1.4532
 7947TIP3    H248037   3.116   5.049  11.747  0.2307 -0.4062 -0.0542
 7948TIP3   OH248038   3.217   2.389  12.967 -0.3697  0.4853  0.0567
 7948TIP3    H148039   3.263   2.446  13.028 -0.7143  1.8482 -0.8745
 7948TIP3    H248040   3.282   2.366  12.901 -0.6873  1.4746 -0.6393
 7949TIP3   OH248041   2.420   6.428  12.438 -0.4415  0.1335  0.0651
 7949TIP3    H148042   2.376   6.468  12.362 -0.7826  0.5811  0.4946
 7949TIP3    H248043   2.417   6.495  12.506 -0.0944 -0.2490  0.4675
 7950TIP3   OH248044   6.324   3.205  12.052  0.3551  0.2093  1.0603
 7950TIP3    H148045   6.281   3.220  11.968  0.4208  1.1924  1.1971
 7950TIP3    H248046   6.416   3.191  12.030  0.7602  2.4605  1.0895
 7951TIP3   OH248047   1.626   3.510  13.389  0.0035 -0.3063  0.0741
 7951TIP3    H148048   1.619   3.416  13.405  0.2003 -0.7400 -2.1771
 7951TIP3    H248049   1.665   3.544  13.470  1.8802 -2.4509  0.1948
 7952TIP3   OH248050   5.321   6.356  11.706  0.0282  0.3926 -1.1245
 7952TIP3    H148051   5.238   6.390  11.673 -0.8527 -1.5693 -1.0694
 7952TIP3    H248052   5.298   6.310  11.786  1.6161  2.0630  0.3706
 7953TIP3   OH248053   0.810   7.891  12.629  0.5344  0.0680 -0.7361
 7953TIP3    H148054   0.796   7.796  12.624  0.3912  0.0392  0.0452
 7953TIP3    H248055   0.750   7.928  12.564 -1.1279 -0.2403  0.5458
 7954TIP3   OH248056   1.163   5.126  12.892 -0.2391  0.1591 -0.4194
 7954TIP3    H148057   1.122   5.079  12.819  0.8039 -2.1081  0.3790
 7954TIP3    H248058   1.255   5.102  12.887 -0.3871 -1.4743  2.5999
 7955TIP3   OH248059   2.898   6.195  13.286 -0.1844 -0.1134  0.3469
 7955TIP3    H148060   2.814   6.151  13.296  0.3589 -1.0873  0.8144
 7955TIP3    H248061   2.956   6.149  13.348  1.3950 -1.2700 -1.8650
 7956TIP3   OH248062   8.194   3.980  12.588 -0.2808 -0.1616 -0.2016
 7956TIP3    H148063   8.262   3.913  12.594 -0.3830 -0.1375  1.7115
 7956TIP3    H248064   8.132   3.958  12.658 -1.1003  1.0764 -0.5073
 7957TIP3   OH248065   0.660   3.246  13.903 -0.2694  0.1030  0.0588
 7957TIP3    H148066   0.628   3.162  13.871  0.6633  0.1605 -1.0842
 7957TIP3    H248067   0.581   3.294  13.928 -0.7998 -1.2183  1.0653
 7958TIP3   OH248068   7.111   1.845  12.843  0.1416  0.1445  0.4226
 7958TIP3    H148069   7.131   1.931  12.806  2.0506  0.1010  1.2269
 7958TIP3    H248070   7.029   1.858  12.890 -0.5366  1.0443 -0.9464
 7959TIP3   OH248071   4.207   3.222  12.957 -0.2455 -0.2607  0.2239
 7959TIP3    H148072   4.233   3.243  12.867  0.0907 -0.2405  0.3254
 7959TIP3    H248073   4.246   3.291  13.010 -1.5303  0.4780  0.2540
 7960TIP3   OH248074   3.340   2.656  12.396 -0.3868 -0.5834 -0.1339
 7960TIP3    H148075   3.374   2.643  12.485  1.2237  0.8488 -0.4969
 7960TIP3    H248076   3.272   2.589  12.387 -1.0655 -0.3361  2.4067
 7961TIP3   OH248077   5.109   5.746  13.292 -0.4740 -0.3416 -0.2599
 7961TIP3    H148078   5.039   5.739  13.357 -0.2734  1.5494  0.2188
 7961TIP3    H248079   5.068   5.716  13.210 -2.2340  1.7390 -0.2341
 7962TIP3   OH248080   3.678   4.330  11.742 -0.2444 -0.1413  0.0346
 7962TIP3    H148081   3.772   4.327  11.761  0.1735  1.1511 -1.5964
 7962TIP3    H248082   3.655   4.239  11.721  0.9559 -0.2678 -0.8551
 7963TIP3   OH248083   8.215   5.170  12.270  0.6864 -0.9070  0.3597
 7963TIP3    H148084   8.126   5.203  12.262  0.4115 -1.5908  0.5451
 7963TIP3    H248085   8.205   5.076  12.287  1.4719 -1.2724 -1.0326
 7964TIP3   OH248086   6.265   7.486  12.906 -0.0253 -0.0363 -0.1184
 7964TIP3    H148087   6.192   7.510  12.964 -0.8537  0.4129 -1.2981
 7964TIP3    H248088   6.243   7.528  12.823  2.0077  0.7994 -0.2890
 7965TIP3   OH248089   7.215   2.303  11.504 -0.4674  0.6326 -0.1699
 7965TIP3    H148090   7.140   2.337  11.553 -0.9648  0.4154 -0.7693
 7965TIP3    H248091   7.292   2.339  11.549 -0.9295  0.8218  0.4731
 7966TIP3   OH248092   8.207   7.109  11.865 -0.4342 -0.0499  0.1568
 7966TIP3    H148093   8.147   7.166  11.817 -1.2186 -0.3765  0.7271
 7966TIP3    H248094   8.290   7.115  11.817 -0.5285  1.4653  0.1219
 7967TIP3   OH248095   4.125   6.170  12.866 -0.2273  0.5153 -0.3880
 7967TIP3    H148096   4.086   6.188  12.951 -1.1846  0.1039 -0.7255
 7967TIP3    H248097   4.067   6.213  12.803 -0.8503 -1.1383 -0.9889
 7968TIP3   OH248098   0.480   3.391  12.758  0.2482  0.5525  0.2842
 7968TIP3    H148099   0.547   3.416  12.695  2.1086  0.8830  2.2778
 7968TIP3    H248100   0.500   3.300  12.780 -1.2673 -0.0356 -0.6012
 7969TIP3   OH248101   1.656   1.405  13.767 -0.4755 -0.1836  0.1279
 7969TIP3    H148102   1.600   1.342  13.813  0.2919  0.5687  2.1852
 7969TIP3    H248103   1.610   1.488  13.775 -0.1294  0.0384 -0.1460
 7970TIP3   OH248104   7.553   3.076  12.859  0.4584 -0.2092  0.1032
 7970TIP3    H148105   7.513   3.047  12.941  2.8641 -0.0517  1.4275
 7970TIP3    H248106   7.578   3.167  12.876 -2.2489  1.0795 -2.1475
 7971TIP3   OH248107   5.140   4.040  12.056  0.5449 -0.3133  0.1022
 7971TIP3    H148108   5.211   3.976  12.062 -1.0335 -2.5503 -2.5976
 7971TIP3    H248109   5.063   3.994  12.091 -0.5098  0.3006 -1.3072
 7972TIP3   OH248110   7.253   5.736  13.551  0.4123 -0.1359  0.1821
 7972TIP3    H148111   7.266   5.662  13.610 -0.1322  0.6707  1.3568
 7972TIP3    H248112   7.286   5.811  13.600  0.2854  0.4941 -0.6900
 7973TIP3   OH248113   5.229   4.024  12.720  0.3282 -0.4529 -0.5636
 7973TIP3    H148114   5.267   4.100  12.764 -0.0659 -0.2462 -0.5764
 7973TIP3    H248115   5.267   3.949  12.765  1.0285 -0.2551 -0.8124
 7974TIP3   OH248116   2.612   1.592  11.791  0.3484 -0.2008  0.0454
 7974TIP3    H148117   2.562   1.674  11.799 -0.8950 -1.0509  1.3811
 7974TIP3    H248118   2.703   1.619  11.803  0.0204  1.0656 -0.1210
 7975TIP3   OH248119   1.621   6.049  11.757  0.1756  0.3280 -0.1837
 7975TIP3    H148120   1.558   5.988  11.718 -0.9464  1.8105 -0.7986
 7975TIP3    H248121   1.572   6.093  11.826  0.3614  1.8306 -0.9676
 7976TIP3   OH248122   1.621   6.614  12.191 -0.2250 -0.5987  0.7173
 7976TIP3    H148123   1.628   6.709  12.205  1.3672 -0.8004  1.4861
 7976TIP3    H248124   1.697   6.592  12.138 -0.3754 -1.5103  0.8647
 7977TIP3   OH248125   6.732   6.409  13.248  0.5014  0.2597 -0.1695
 7977TIP3    H148126   6.717   6.337  13.188 -0.3106  0.5328 -0.3028
 7977TIP3    H248127   6.664   6.399  13.315  0.6705  0.6346  0.0619
 7978TIP3   OH248128   5.377   7.223  11.406  0.0736 -0.1559  0.3603
 7978TIP3    H148129   5.461   7.260  11.379  0.0962 -0.8107 -0.4838
 7978TIP3    H248130   5.316   7.248  11.337  0.1241 -1.8229 -0.3133
 7979TIP3   OH248131   0.889   1.939  12.766 -0.5121  0.0274 -0.3585
 7979TIP3    H148132   0.804   1.897  12.753 -0.3802 -0.4400  0.2156
 7979TIP3    H248133   0.868   2.025  12.803 -0.7072 -0.6405  1.1601
 7980TIP3   OH248134   1.784   4.757  12.034 -0.1297 -0.1115  0.2419
 7980TIP3    H148135   1.853   4.774  11.970 -0.7649  1.4830 -0.0876
 7980TIP3    H248136   1.703   4.769  11.984 -0.6553  2.0792  1.4767
 7981TIP3   OH248137   7.283   8.008  13.541 -0.5241 -0.1241  0.6856
 7981TIP3    H148138   7.220   7.992  13.471 -0.1285  0.0753  0.2815
 7981TIP3    H248139   7.314   7.921  13.567 -0.5450 -0.1858  0.4985
 7982TIP3   OH248140   1.868   5.934  12.525 -0.3934 -0.1744 -0.1875
 7982TIP3    H148141   1.822   5.994  12.584 -1.8986 -1.0327 -0.4247
 7982TIP3    H248142   1.807   5.921  12.453  0.3485 -1.1754 -0.6527
 7983TIP3   OH248143   0.106   6.046  11.952 -0.2765 -0.0387 -0.2472
 7983TIP3    H148144   0.153   6.065  12.033 -0.0423 -3.6055  0.6514
 7983TIP3    H248145   0.173   6.010  11.894 -0.8717  0.3014 -1.1630
 7984TIP3   OH248146   6.897   5.974  11.302 -0.3411 -0.5047 -0.7151
 7984TIP3    H148147   6.952   5.989  11.379  1.1074  0.5562 -1.9135
 7984TIP3    H248148   6.841   6.052  11.297 -0.4636 -0.5924 -0.7192
 7985TIP3   OH248149   6.958   7.613  13.067 -0.6179 -0.0185 -0.0579
 7985TIP3    H148150   6.926   7.523  13.061  1.5659 -0.9274  0.8252
 7985TIP3    H248151   6.997   7.619  13.155  1.4218  0.9971 -0.9458
 7986TIP3   OH248152   7.735   2.293  13.180  0.5491  0.2598  0.1840
 7986TIP3    H148153   7.693   2.211  13.207 -1.5458  0.7323 -1.3486
 7986TIP3    H248154   7.701   2.358  13.241  0.9403  0.2541  0.4070
 7987TIP3   OH248155   7.578   5.341  11.322 -0.7918  0.4196  0.1514
 7987TIP3    H148156   7.565   5.340  11.227 -1.9988  1.0138  0.2791
 7987TIP3    H248157   7.548   5.428  11.348  0.2125  0.5289  1.0018
 7988TIP3   OH248158   4.916   8.425  12.065 -0.3672  0.4401 -0.8370
 7988TIP3    H148159   4.952   8.492  12.124 -0.2654  0.5989 -1.0745
 7988TIP3    H248160   4.972   8.348  12.080 -0.8726  0.2038 -0.1092
 7989TIP3   OH248161   2.779   6.943  12.373 -0.3794  0.0928 -0.0599
 7989TIP3    H148162   2.735   7.028  12.362  0.5643  0.7885  1.2297
 7989TIP3    H248163   2.869   6.966  12.398  0.1055 -1.2988 -0.4750
 7990TIP3   OH248164   0.043   7.563  12.767  0.5349  0.0399  0.7252
 7990TIP3    H148165   0.013   7.563  12.676  0.8777 -0.5719  0.6114
 7990TIP3    H248166   0.071   7.473  12.784 -2.5843 -0.7855  2.4429
 7991TIP3   OH248167   4.632   2.733  11.838  0.1509  0.0272  0.4328
 7991TIP3    H148168   4.652   2.822  11.866  2.7509 -0.6038  0.8275
 7991TIP3    H248169   4.630   2.682  11.919 -3.4651 -0.0583  0.4815
 7992TIP3   OH248170   0.416   4.114  11.585  0.3418  0.0112 -0.1535
 7992TIP3    H148171   0.431   4.207  11.602 -1.0630  0.3468 -0.6089
 7992TIP3    H248172   0.503   4.078  11.569  1.1745  0.7644  2.2574
 7993TIP3   OH248173   1.966   1.329  12.622  0.1105  0.1443 -0.3129
 7993TIP3    H148174   2.020   1.395  12.580  0.2231  0.2644  0.0127
 7993TIP3    H248175   2.026   1.256  12.638  0.6792  0.9856  1.7490
 7994TIP3   OH248176   3.697   4.162  13.547  0.1836  0.3797  0.3302
 7994TIP3    H148177   3.681   4.221  13.474 -1.2947 -0.2824  0.0729
 7994TIP3    H248178   3.744   4.215  13.612 -0.4781  1.6240 -0.1750
 7995TIP3   OH248179   0.150   2.630  11.691  0.8661 -0.2958 -0.4200
 7995TIP3    H148180   0.120   2.570  11.759  0.8435  0.8577  0.6328
 7995TIP3    H248181   0.073   2.642  11.634  0.6141 -0.5899 -0.1434
 7996TIP3   OH248182   0.222   5.808  13.202 -0.4824  0.0784 -0.0138
 7996TIP3    H148183   0.190   5.759  13.278  0.8528  0.4897  0.8483
 7996TIP3    H248184   0.146   5.858  13.172 -1.0497 -0.1507  0.9937
 7997TIP3   OH248185   8.004   5.818  11.425  0.7736  0.6074  0.3666
 7997TIP3    H148186   7.970   5.750  11.483 -1.1046  0.4578 -0.8124
 7997TIP3    H248187   8.095   5.794  11.410  0.5800 -0.7613  1.2167
 7998TIP3   OH248188   3.761   7.921  12.561  0.4931 -0.2629 -0.2382
 7998TIP3    H148189   3.672   7.929  12.528  0.7543  4.5473 -0.4080
 7998TIP3    H248190   3.751   7.899  12.654 -0.9010  0.4415 -0.2020
 7999TIP3   OH248191   6.666   1.095  12.703 -0.1405  0.0071  0.3922
 7999TIP3    H148192   6.674   1.150  12.626  0.4963 -0.9810 -0.2751
 7999TIP3    H248193   6.572   1.088  12.719 -0.2708  0.2986 -0.2342
 8000TIP3   OH248194   8.083   2.471  11.682 -0.1942 -0.1372 -0.1843
 8000TIP3    H148195   8.154   2.437  11.735 -0.4642  0.3358  0.4891
 8000TIP3    H248196   8.003   2.445  11.728 -0.4223  0.7019 -0.0806
 8001TIP3   OH248197   4.791   5.862  13.288 -0.4465 -0.2692 -0.0903
 8001TIP3    H148198   4.768   5.793  13.226 -1.1113 -0.6792  0.6071
 8001TIP3    H248199   4.861   5.824  13.342  0.4832  0.2592 -0.8815
 8002TIP3   OH248200   4.013   5.854  12.306 -0.2361 -0.7477  0.1510
 8002TIP3    H148201   3.992   5.849  12.213  0.1141 -1.5671  0.1024
 8002TIP3    H248202   4.095   5.805  12.315  1.1232  1.4503  0.5118
 8003TIP3   OH248203   7.954   4.750  12.882  0.3686 -0.7138 -0.5556
 8003TIP3    H148204   7.877   4.807  12.890  1.6540  0.9766  0.4066
 8003TIP3    H248205   7.985   4.739  12.971  0.5775 -2.4070 -0.8030
 8004TIP3   OH248206   2.226   7.928  11.981 -0.0907 -0.1288  0.3030
 8004TIP3    H148207   2.313   7.922  11.941 -0.2686 -0.6983 -0.0176
 8004TIP3    H248208   2.166   7.905  11.910 -0.4313 -0.9219  0.8324
 8005TIP3   OH248209   4.316   0.582  13.431 -0.2876  0.0169  0.4462
 8005TIP3    H148210   4.313   0.491  13.399 -1.2350  0.3974 -0.6353
 8005TIP3    H248211   4.408   0.606  13.424 -0.0982 -0.7156  0.2765
 8006TIP3   OH248212   4.059   1.228  12.134  0.1784 -0.1414  0.5803
 8006TIP3    H148213   3.971   1.223  12.171  0.4435 -1.0470  1.1226
 8006TIP3    H248214   4.103   1.150  12.167  0.7748 -0.3921 -0.7501
 8007TIP3   OH248215   2.550   3.223  13.694 -0.6501  0.4930 -0.5817
 8007TIP3    H148216   2.496   3.262  13.625 -2.1155 -0.8778 -0.2892
 8007TIP3    H248217   2.627   3.280  13.701  0.1760  0.0281 -4.1698
 8008TIP3   OH248218   1.077   5.292  11.896  0.0832  0.1688 -0.1324
 8008TIP3    H148219   1.032   5.225  11.844 -0.1697  1.5480 -1.7615
 8008TIP3    H248220   1.009   5.328  11.953  0.4787 -1.7246  1.6640
 8009TIP3   OH248221   1.573   2.386  12.283 -0.1092 -0.4659  0.2397
 8009TIP3    H148222   1.640   2.452  12.301 -0.2637 -0.3494  0.3956
 8009TIP3    H248223   1.491   2.429  12.307 -0.4515  0.1071 -1.8283
 8010TIP3   OH248224   3.471   1.749  14.388 -0.0313  0.5171 -0.5672
 8010TIP3    H148225   3.393   1.745  14.333  0.0817 -1.6877 -0.6667
 8010TIP3    H248226   3.527   1.678  14.355  1.6638  1.4958  0.0481
 8011TIP3   OH248227   2.184   7.679  12.149  0.1759  0.1761  0.0392
 8011TIP3    H148228   2.156   7.767  12.125  0.2519  0.3624  0.6159
 8011TIP3    H248229   2.264   7.692  12.199  0.4286 -0.2527 -0.2474
 8012TIP3   OH248230   4.552   4.117  12.666 -0.1383 -0.4137  0.0387
 8012TIP3    H148231   4.505   4.200  12.663  2.2745  1.0453  0.1638
 8012TIP3    H248232   4.487   4.052  12.639 -2.1999  1.4371  0.2562
 8013TIP3   OH248233   0.184   5.366  13.020 -0.0849 -0.4914 -0.1149
 8013TIP3    H148234   0.171   5.353  13.114  1.1062  0.6084  0.2257
 8013TIP3    H248235   0.106   5.413  12.991  0.5050  1.0958  0.7739
 8014TIP3   OH248236   0.240   4.802  13.056  0.0437  0.3124  0.1129
 8014TIP3    H148237   0.318   4.791  13.003 -1.7662 -2.5805 -2.2721
 8014TIP3    H248238   0.192   4.873  13.014 -0.2049 -0.2675 -0.5996
 8015TIP3   OH248239   8.301   5.196  12.549 -0.4633  0.6802 -0.1887
 8015TIP3    H148240   8.207   5.181  12.549 -0.4228  0.4176  0.1444
 8015TIP3    H248241   8.319   5.235  12.464 -0.7538 -0.0176 -0.5747
 8016TIP3   OH248242   2.788   2.438  11.821 -0.3333  0.2800  0.1228
 8016TIP3    H148243   2.700   2.408  11.802 -0.0737  0.8260 -2.1977
 8016TIP3    H248244   2.818   2.479  11.740  1.8974  0.4951  0.9786
 8017TIP3   OH248245   3.381   2.638  11.493  0.7756 -0.2644  0.1833
 8017TIP3    H148246   3.322   2.630  11.418  1.8712 -0.7048 -0.6550
 8017TIP3    H248247   3.410   2.548  11.511  2.1518  0.0726 -0.2294
 8018TIP3   OH248248   1.425   3.660  13.689 -0.2019  0.1214 -0.0259
 8018TIP3    H148249   1.426   3.739  13.634 -3.1348  0.1217 -0.2109
 8018TIP3    H248250   1.514   3.626  13.682  0.8940  2.8271 -0.7580
 8019TIP3   OH248251   5.066   2.247  12.217 -0.2514  0.3429  0.4080
 8019TIP3    H148252   4.987   2.250  12.163 -0.6799  0.3253  1.0240
 8019TIP3    H248253   5.034   2.244  12.307  0.4546  1.5697  0.7309
 8020TIP3   OH248254   0.079   3.454  12.080  0.0641 -0.0452 -0.6218
 8020TIP3    H148255   0.010   3.449  12.013  1.2734 -0.6953 -1.8498
 8020TIP3    H248256   0.156   3.415  12.039  0.8097 -0.6291  1.2205
 8021TIP3   OH248257   7.679   8.437  12.589 -0.0517  0.0769  0.4319
 8021TIP3    H148258   7.601   8.408  12.637 -0.4724  0.7271  0.1525
 8021TIP3    H248259   7.683   8.531  12.604  0.6753  0.0524  0.4238
 8022TIP3   OH248260   7.546   2.305  11.251  0.8490 -0.4067  0.6718
 8022TIP3    H148261   7.560   2.251  11.329 -1.2262 -2.4886 -0.2691
 8022TIP3    H248262   7.472   2.264  11.207  1.0551  1.5426 -1.6857
 8023TIP3   OH248263   7.099   6.840  11.825 -0.1714  0.5932  0.2519
 8023TIP3    H148264   7.153   6.917  11.807  0.6021 -0.0715 -0.3546
 8023TIP3    H248265   7.160   6.767  11.822 -1.0070 -0.1162  0.2061
 8024TIP3   OH248266   5.466   0.332  13.541 -0.0703 -0.1788 -0.2426
 8024TIP3    H148267   5.418   0.408  13.508  0.2679 -0.7930 -2.3081
 8024TIP3    H248268   5.410   0.296  13.609 -1.4302  0.5049 -0.9508
 8025TIP3   OH248269   6.213   4.168  13.608  0.4602  0.2270 -0.4038
 8025TIP3    H148270   6.203   4.091  13.552  0.5909  0.5533 -0.8790
 8025TIP3    H248271   6.306   4.189  13.605  0.1323  1.7197 -2.0702
 8026TIP3   OH248272   6.266   4.102  11.757 -0.7881  0.5185 -1.0228
 8026TIP3    H148273   6.171   4.105  11.751 -0.9971 -0.4566  0.9662
 8026TIP3    H248274   6.286   4.011  11.777  0.4618  0.9377 -0.2245
 8027TIP3   OH248275   6.252   1.761  13.788 -0.2525  0.2988  0.0216
 8027TIP3    H148276   6.244   1.842  13.738 -0.8985  0.0265 -0.3380
 8027TIP3    H248277   6.217   1.782  13.874 -0.8710  0.2945 -0.2147
 8028TIP3   OH248278   8.072   4.295  11.531 -0.4596  0.2752 -0.2736
 8028TIP3    H148279   8.045   4.253  11.450  0.5317  2.0562 -1.5869
 8028TIP3    H248280   8.165   4.315  11.518 -0.5206  1.4642  0.8973
 8029TIP3   OH248281   1.492   8.372  12.966 -0.3174  0.0728 -0.0478
 8029TIP3    H148282   1.414   8.334  13.005 -0.4013  0.0317 -0.2553
 8029TIP3    H248283   1.505   8.323  12.885 -1.9049  2.1197 -1.6501
 8030TIP3   OH248284   3.848   4.739  13.157  0.0258  0.0359  0.4373
 8030TIP3    H148285   3.847   4.669  13.222  1.0066  0.7658  1.2653
 8030TIP3    H248286   3.919   4.797  13.185 -0.3332  1.0135 -0.6034
 8031TIP3   OH248287   4.119   3.592  13.318 -0.2521 -0.2700  0.2562
 8031TIP3    H148288   4.025   3.592  13.336 -0.4457  0.8465 -0.6611
 8031TIP3    H248289   4.132   3.520  13.256 -0.4050 -0.7455  0.7630
 8032TIP3   OH248290   0.938   3.157  12.988 -0.4459 -0.0028  0.7205
 8032TIP3    H148291   1.010   3.183  13.046 -1.3002 -0.5756  2.1134
 8032TIP3    H248292   0.861   3.198  13.027 -0.9842  0.0038 -0.3287
 8033TIP3   OH248293   6.817   7.812  11.500  0.4931  0.2062  0.4165
 8033TIP3    H148294   6.887   7.878  11.508  0.9233 -0.2022  0.0784
 8033TIP3    H248295   6.799   7.807  11.407  1.8243 -1.5289  0.2012
 8034TIP3   OH248296   3.182   5.344  12.263 -0.2007 -0.0854  0.3168
 8034TIP3    H148297   3.256   5.378  12.213 -0.4572 -1.2104 -0.8830
 8034TIP3    H248298   3.198   5.250  12.271  0.1480  0.1077  2.9713
 8035TIP3   OH248299   6.847   6.638  13.182  0.1944 -0.3014 -0.4224
 8035TIP3    H148300   6.792   6.713  13.203  0.4234 -0.0759 -0.6236
 8035TIP3    H248301   6.807   6.564  13.228  0.2309  0.0335  0.1421
 8036TIP3   OH248302   5.518   3.650  13.087 -0.3517 -0.2882 -0.2244
 8036TIP3    H148303   5.452   3.686  13.147  1.8851  0.4110  1.9783
 8036TIP3    H248304   5.567   3.587  13.140  0.7173 -0.8635 -1.8157
 8037TIP3   OH248305   3.869   7.237  12.141  0.1305 -0.0453 -0.0104
 8037TIP3    H148306   3.825   7.287  12.072 -0.1049 -0.0717  0.1185
 8037TIP3    H248307   3.868   7.295  12.217 -0.0186 -0.1875  0.0994
 8038TIP3   OH248308   3.399   5.256  12.496  0.0513  0.0050 -0.6025
 8038TIP3    H148309   3.392   5.339  12.449  2.0770 -1.1402 -3.1471
 8038TIP3    H248310   3.349   5.194  12.444  0.5542 -0.8860 -0.0498
 8039TIP3   OH248311   5.247   4.846  13.460  0.0248  0.3767  0.2348
 8039TIP3    H148312   5.183   4.860  13.531  0.8841 -0.2030  1.1444
 8039TIP3    H248313   5.199   4.795  13.395 -0.6332  0.4824  0.6241
 8040TIP3   OH248314   2.161   1.294  12.919  0.2853 -0.2481  0.4402
 8040TIP3    H148315   2.256   1.287  12.928  0.5285  0.0375 -1.4141
 8040TIP3    H248316   2.143   1.261  12.831 -1.3872 -0.6357  0.8926
 8041TIP3   OH248317   4.030   3.448  12.846  0.5009 -0.5453  0.3006
 8041TIP3    H148318   4.035   3.466  12.940  0.1796  0.9468  0.0602
 8041TIP3    H248319   4.114   3.479  12.811 -0.1310  0.7375 -0.1526
 8042TIP3   OH248320   7.819   6.811  12.749  0.4200  0.0754  0.4111
 8042TIP3    H148321   7.757   6.755  12.797  1.1976 -0.1545  1.1740
 8042TIP3    H248322   7.765   6.878  12.709 -0.4561 -0.7985  0.0843
 8043TIP3   OH248323   2.915   0.736  11.776 -0.0083 -0.2924 -0.3991
 8043TIP3    H148324   2.902   0.782  11.859 -0.4183 -0.0831 -0.5774
 8043TIP3    H248325   2.962   0.799  11.721 -0.2099 -0.2357 -0.5066
 8044TIP3   OH248326   6.210   6.168  12.543 -0.5992 -0.1882 -0.0570
 8044TIP3    H148327   6.294   6.208  12.567 -0.8016 -0.1803  0.6515
 8044TIP3    H248328   6.219   6.077  12.569 -0.7635 -0.2188 -0.1087
 8045TIP3   OH248329   1.483   1.609  12.706 -0.2724  0.5134  0.1329
 8045TIP3    H148330   1.420   1.544  12.736  0.5196 -0.5359 -0.4185
 8045TIP3    H248331   1.430   1.683  12.677 -1.2888 -0.6008 -0.9533
 8046TIP3   OH248332   8.129   8.203  12.753 -0.3964  0.1560  0.0115
 8046TIP3    H148333   8.138   8.289  12.793  0.1264 -0.1933  0.6639
 8046TIP3    H248334   8.155   8.216  12.662  1.1440  0.3912  0.4603
 8047TIP3   OH248335   0.717   5.609  12.957  0.0336  0.5357 -0.4437
 8047TIP3    H148336   0.812   5.602  12.966  0.1578  3.0365  1.3150
 8047TIP3    H248337   0.705   5.664  12.880  0.0097  0.3685 -0.5597
 8048TIP3   OH248338   1.069   7.121  11.661 -0.0637  0.2512  0.4347
 8048TIP3    H148339   1.149   7.171  11.652  0.2234  0.0620  1.7599
 8048TIP3    H248340   1.003   7.185  11.690  0.3962 -0.1459  2.5199
 8049TIP3   OH248341   0.111   3.691  12.220  0.2131 -0.2356  0.3065
 8049TIP3    H148342   0.099   3.609  12.172 -2.2588  0.5500 -0.5803
 8049TIP3    H248343   0.022   3.715  12.248  1.2500  0.6018  3.2332
 8050TIP3   OH248344   7.449   1.025  12.608 -0.5860 -0.0413 -0.1422
 8050TIP3    H148345   7.511   1.082  12.653 -0.1966 -0.1423 -0.5407
 8050TIP3    H248346   7.505   0.966  12.556 -1.0124 -0.2241 -0.3936
 8051TIP3   OH248347   3.616   0.952  12.032  0.5182  0.0381  0.5076
 8051TIP3    H148348   3.594   0.868  11.992 -0.8059  0.4592  0.3014
 8051TIP3    H248349   3.674   0.994  11.969  0.2953 -0.2621  0.0965
 8052TIP3   OH248350   8.259   7.431  13.124 -0.6342 -0.2394 -0.1254
 8052TIP3    H148351   8.225   7.517  13.148 -0.4070  0.0262 -0.7337
 8052TIP3    H248352   8.293   7.395  13.206 -2.4413 -0.5649  0.5489
 8053TIP3   OH248353   6.958   1.904  12.218 -0.0722  0.1362 -0.1413
 8053TIP3    H148354   6.931   1.876  12.305 -0.4116  0.4512 -0.1432
 8053TIP3    H248355   7.033   1.848  12.197 -0.1879 -0.1571  0.2185
 8054TIP3   OH248356   2.447   4.594  12.177 -0.0658  0.1151  0.2127
 8054TIP3    H148357   2.464   4.517  12.231  1.0879 -0.6099 -1.1112
 8054TIP3    H248358   2.364   4.574  12.133 -0.8383  0.5657  1.4206
 8055TIP3   OH248359   1.670   0.031  11.537  0.0029  0.3045  0.2972
 8055TIP3    H148360   1.727  -0.002  11.607  0.7780  1.5604  0.2883
 8055TIP3    H248361   1.721   0.018  11.457 -0.8708 -1.1041 -0.0666
 8056TIP3   OH248362   4.303   4.337  12.888  0.6546  0.2228 -0.2273
 8056TIP3    H148363   4.355   4.354  12.810  0.5151  2.0017  0.0378
 8056TIP3    H248364   4.367   4.308  12.954  1.2231  1.6169 -0.1365
 8057TIP3   OH248365   1.853   5.963  13.570  0.4489  0.2251 -0.0292
 8057TIP3    H148366   1.791   6.010  13.625  0.5065  2.0622 -1.4225
 8057TIP3    H248367   1.806   5.952  13.487  0.5708 -1.9534  0.1398
 8058TIP3   OH248368   6.876   1.483  11.463 -0.0535 -0.0606 -0.0596
 8058TIP3    H148369   6.967   1.470  11.491  0.0568  1.3629  0.3471
 8058TIP3    H248370   6.882   1.520  11.375 -0.2735 -0.7249 -0.3590
 8059TIP3   OH248371   4.931   2.193  12.950 -0.0612 -0.1450  0.0316
 8059TIP3    H148372   4.846   2.152  12.968 -0.2114  0.5052  0.8777
 8059TIP3    H248373   4.922   2.282  12.983  1.5008 -0.5665  1.8021
 8060TIP3   OH248374   6.019   0.348  13.068 -0.2145 -0.1597 -0.0742
 8060TIP3    H148375   5.953   0.283  13.093  0.3285 -0.7450 -0.1257
 8060TIP3    H248376   6.039   0.394  13.149 -0.2977 -0.3416  0.0496
 8061TIP3   OH248377   4.018   6.696  11.976 -0.1706 -0.5918  0.0829
 8061TIP3    H148378   4.084   6.629  11.959  0.9654  0.5156 -0.0692
 8061TIP3    H248379   3.937   6.661  11.939  1.2099 -0.2254 -3.7284
 8062TIP3   OH248380   6.552   7.670  12.419 -0.3939 -0.2096 -0.3083
 8062TIP3    H148381   6.547   7.694  12.326  1.7757  0.7627 -0.2405
 8062TIP3    H248382   6.595   7.584  12.419  0.4065  0.1891 -0.1743
 8063TIP3   OH248383   0.887   3.958  11.824 -0.0073  0.2305 -0.2157
 8063TIP3    H148384   0.866   3.866  11.804 -1.0706  0.4722 -0.2927
 8063TIP3    H248385   0.923   3.955  11.913  1.1553 -0.3960 -0.6816
 8064TIP3   OH248386   3.216   3.781  11.448  0.1421  0.3824 -0.3717
 8064TIP3    H148387   3.222   3.805  11.356 -1.4412 -0.1609 -0.6498
 8064TIP3    H248388   3.122   3.778  11.466  0.2949 -2.4396  0.4601
 8065TIP3   OH248389   7.691   6.684  13.597 -0.0351  0.2702 -0.7032
 8065TIP3    H148390   7.615   6.743  13.596  0.9389  1.7236  1.8012
 8065TIP3    H248391   7.675   6.626  13.671  0.8379 -0.0471 -0.7566
 8066TIP3   OH248392   8.075   5.896  13.503 -0.1133  0.0515 -0.1245
 8066TIP3    H148393   7.993   5.924  13.462 -0.6502  0.5520  1.2306
 8066TIP3    H248394   8.076   5.801  13.491  0.4190  0.2827 -2.4214
 8067TIP3   OH248395   8.346   6.252  12.705 -0.3059  0.9153  0.1800
 8067TIP3    H148396   8.320   6.184  12.643  1.4565  0.7008 -0.3944
 8067TIP3    H248397   8.270   6.264  12.761 -1.2326 -0.3547 -0.7413
 8068TIP3   OH248398   5.246   4.329  11.455 -0.1759 -0.2003 -0.3539
 8068TIP3    H148399   5.178   4.287  11.508  0.0540  0.3858  0.4293
 8068TIP3    H248400   5.221   4.311  11.365 -1.8932  0.8065 -0.1117
 8069TIP3   OH248401   5.712   3.247  12.923  0.1356  0.0836 -0.0102
 8069TIP3    H148402   5.754   3.202  12.850 -0.3084 -0.7680  0.2348
 8069TIP3    H248403   5.668   3.322  12.884  0.2953 -0.1035 -0.5481
 8070TIP3   OH248404   7.233   5.335  11.893  0.0264  0.3497  0.9735
 8070TIP3    H148405   7.176   5.393  11.842  0.6381  1.4322  1.4987
 8070TIP3    H248406   7.262   5.388  11.967  0.9959 -0.4746  1.2110
 8071TIP3   OH248407   1.374   0.435  12.729  0.0419  0.6317 -0.4880
 8071TIP3    H148408   1.303   0.473  12.780 -0.0756  1.3694 -1.1713
 8071TIP3    H248409   1.453   0.482  12.757  0.1382  0.3297 -0.2562
 8072TIP3   OH248410   1.654   5.919  13.383  0.1976 -0.2111  0.1314
 8072TIP3    H148411   1.559   5.908  13.386 -0.0554  1.3339 -0.7106
 8072TIP3    H248412   1.687   5.838  13.345 -1.0465  0.1390 -1.8562
 8073TIP3   OH248413   8.277   5.627  11.867  0.1046 -0.4994 -0.0355
 8073TIP3    H148414   8.196   5.662  11.831  1.2535 -0.2991 -2.6382
 8073TIP3    H248415   8.327   5.703  11.896  0.2704 -0.4318 -0.4925
 8074TIP3   OH248416   5.323   2.353  13.245  0.1675  0.2619 -0.4466
 8074TIP3    H148417   5.328   2.442  13.279  1.4624 -0.0556  0.2383
 8074TIP3    H248418   5.409   2.315  13.262 -0.6439 -1.4250  0.1239
 8075TIP3   OH248419   7.577   4.238  11.429 -0.1988  0.4120 -0.2599
 8075TIP3    H148420   7.550   4.152  11.396 -0.5764 -0.3296  1.8581
 8075TIP3    H248421   7.500   4.271  11.476  1.3013 -0.1600  2.8209
 8076TIP3   OH248422   7.326   6.652  12.707 -0.3456 -0.6753  0.2517
 8076TIP3    H148423   7.319   6.602  12.625 -1.7464 -1.2854  0.6970
 8076TIP3    H248424   7.345   6.586  12.774 -1.5525 -0.5549  0.7478
 8077TIP3   OH248425   6.160   3.321  12.429  0.1569 -0.4271 -0.1793
 8077TIP3    H148426   6.118   3.328  12.344  0.6340 -0.6007 -0.4365
 8077TIP3    H248427   6.091   3.294  12.489  0.0871 -1.6016 -0.7637
 8078TIP3   OH248428   0.416   0.094  11.725  0.4491 -0.9924 -0.0847
 8078TIP3    H148429   0.369   0.034  11.667 -0.2593 -0.0644 -0.4842
 8078TIP3    H248430   0.493   0.044  11.754  0.8439 -1.4561 -1.8441
 8079TIP3   OH248431   7.730   4.249  12.051 -0.5565 -0.4251 -0.4420
 8079TIP3    H148432   7.780   4.168  12.041  0.8010  0.5796 -2.4876
 8079TIP3    H248433   7.646   4.230  12.008 -0.4096 -0.8796 -0.5404
 8080TIP3   OH248434   1.083   4.737  12.500  0.0298  0.0941  0.0766
 8080TIP3    H148435   1.165   4.688  12.499 -0.9775 -1.6871 -0.2816
 8080TIP3    H248436   1.089   4.792  12.578  2.2865  1.3781 -0.9213
 8081TIP3   OH248437   0.214   4.059  11.783 -0.3156 -0.1174 -0.1656
 8081TIP3    H148438   0.276   4.073  11.712  0.4325  0.7248  0.6213
 8081TIP3    H248439   0.199   3.965  11.784  1.1862 -0.3780 -0.2064
 8082TIP3   OH248440   6.167   5.397  13.007 -0.0278 -0.3190  0.0873
 8082TIP3    H148441   6.213   5.335  13.063 -0.6939 -1.4250 -0.5418
 8082TIP3    H248442   6.233   5.427  12.944 -0.1461 -2.0216 -0.9167
 8083TIP3   OH248443   1.205   0.790  12.309 -0.2297  0.3067 -0.1461
 8083TIP3    H148444   1.296   0.788  12.280 -0.7552 -0.3832 -1.8694
 8083TIP3    H248445   1.189   0.702  12.344 -0.5474  0.0426 -0.9338
 8084TIP3   OH248446   1.916   0.753  11.898 -0.1906 -0.1966 -0.3611
 8084TIP3    H148447   1.832   0.775  11.940  0.1704 -0.4684  0.5135
 8084TIP3    H248448   1.962   0.837  11.891  0.2874 -0.3157  1.0038
 8085TIP3   OH248449   1.773   1.292  12.325 -0.1544 -0.5772 -0.5061
 8085TIP3    H148450   1.784   1.345  12.246 -0.2838 -1.8373 -1.4088
 8085TIP3    H248451   1.760   1.356  12.395  1.8854  0.6435 -1.1632
 8086TIP3   OH248452   3.190   3.885  12.390 -0.5438 -0.5268  0.1935
 8086TIP3    H148453   3.229   3.916  12.471 -0.2674 -0.4692  0.0414
 8086TIP3    H248454   3.212   3.953  12.326  1.1241 -1.5816 -0.4282
 8087TIP3   OH248455   0.891   8.324  12.606  0.2545  0.2787 -0.1089
 8087TIP3    H148456   0.917   8.264  12.677 -0.0141  0.5330  0.2091
 8087TIP3    H248457   0.805   8.356  12.633 -0.0684 -0.0051 -0.7999
 8088TIP3   OH248458   4.934   3.703  12.809 -0.1087  0.3208  0.3043
 8088TIP3    H148459   4.881   3.750  12.744 -0.9531 -0.8041  0.1551
 8088TIP3    H248460   5.003   3.661  12.758 -0.4574 -0.1239  0.1928
 8089TIP3   OH248461   0.662   3.258  13.022 -0.2922  0.7360 -0.4390
 8089TIP3    H148462   0.577   3.220  13.003 -0.1723  0.7339 -0.9930
 8089TIP3    H248463   0.648   3.310  13.101 -0.7804  0.6557 -0.4698
 8090TIP3   OH248464   1.682   4.386  12.497  0.0660  0.0760  0.1743
 8090TIP3    H148465   1.618   4.338  12.549 -2.0542 -0.2932 -2.5477
 8090TIP3    H248466   1.635   4.464  12.468  1.5011  0.7665 -0.3880
 8091TIP3   OH248467   6.762   2.241  12.138  0.0129  0.1055 -0.1321
 8091TIP3    H148468   6.851   2.247  12.172  0.3121  1.4245 -1.0872
 8091TIP3    H248469   6.722   2.324  12.162 -1.2135 -0.7390  0.8878
 8092TIP3   OH248470   0.607   5.174  12.079 -0.3267 -0.4503 -0.3041
 8092TIP3    H148471   0.689   5.166  12.031 -1.6016 -3.2072 -2.2540
 8092TIP3    H248472   0.538   5.174  12.012 -2.0218  0.8129  1.3030
 8093TIP3   OH248473   2.825   8.350  12.822 -0.4467  0.2687 -0.0998
 8093TIP3    H148474   2.767   8.318  12.891  0.8829 -1.0413  0.4796
 8093TIP3    H248475   2.780   8.328  12.740 -1.8337  1.4290  0.3195
 8094TIP3   OH248476   5.246   5.289  13.473  0.3251  0.0656  0.1798
 8094TIP3    H148477   5.216   5.334  13.394 -1.3501 -1.4351 -0.1011
 8094TIP3    H248478   5.208   5.339  13.545  0.6490  0.6013 -0.0152
 8095TIP3   OH248479   3.987   8.108  12.604 -0.3662 -0.0387 -0.6219
 8095TIP3    H148480   3.923   8.174  12.628 -1.0815 -0.1915 -1.9921
 8095TIP3    H248481   3.935   8.034  12.571  0.4735  0.0949 -2.3875
 8096TIP3   OH248482   1.402   2.575  13.598  0.0591  0.1390  0.4206
 8096TIP3    H148483   1.413   2.562  13.504  1.6673 -1.6262  0.7881
 8096TIP3    H248484   1.359   2.660  13.606  0.8012  0.7883 -1.8717
 8097TIP3   OH248485   3.199   6.063  11.627 -0.3691 -0.6169 -0.0657
 8097TIP3    H148486   3.181   5.990  11.568 -1.4668 -0.2909 -0.1405
 8097TIP3    H248487   3.273   6.109  11.586 -1.0815 -0.4193 -1.1648
 8098TIP3   OH248488   5.804   2.479  12.523  0.6046  0.1314 -0.1269
 8098TIP3    H148489   5.763   2.444  12.602 -0.1333  0.9259 -0.1505
 8098TIP3    H248490   5.742   2.461  12.453  1.5763 -1.2386 -0.6913
 8099TIP3   OH248491   0.831   5.127  11.803 -0.7579  0.1116 -0.0413
 8099TIP3    H148492   0.843   5.091  11.891  0.6698 -0.0639 -0.2834
 8099TIP3    H248493   0.853   5.055  11.744  1.1015  1.0112 -0.5217
 8100TIP3   OH248494   5.938   2.831  12.151  0.7762  0.1387 -0.1006
 8100TIP3    H148495   5.870   2.789  12.098  0.1733  2.1276 -0.9769
 8100TIP3    H248496   5.964   2.763  12.213 -1.1092 -1.0990 -0.5593
 8101TIP3   OH248497   2.972   1.277  13.642  0.5241  0.3576 -0.4309
 8101TIP3    H148498   2.969   1.343  13.573  0.4104  0.5908 -0.2072
 8101TIP3    H248499   2.898   1.219  13.624  0.0917  0.8023 -0.1302
 8102TIP3   OH248500   2.406   3.902  11.387  0.1346 -0.1242  0.0239
 8102TIP3    H148501   2.444   3.872  11.304 -0.1010  0.2810 -0.2326
 8102TIP3    H248502   2.376   3.822  11.430 -0.1140 -0.3003 -0.4671
 8103TIP3   OH248503   8.369   3.028  13.077  0.1541  0.3795  0.4479
 8103TIP3    H148504   8.326   3.103  13.036  0.2751  0.8788  1.2089
 8103TIP3    H248505   8.386   2.968  13.005  0.0710  1.0924 -0.1833
 8104TIP3   OH248506   4.090   7.018  12.853  0.1626  0.4207  0.1506
 8104TIP3    H148507   4.013   6.969  12.883  0.0376  0.4850 -0.0637
 8104TIP3    H248508   4.073   7.108  12.880  0.3687  0.3577  0.4992
 8105TIP3   OH248509   2.078   4.862  12.199 -1.0881  0.0300 -0.4559
 8105TIP3    H148510   2.032   4.862  12.115 -3.0975 -2.3817  0.5235
 8105TIP3    H248511   2.072   4.771  12.229  0.7794  0.5383  1.6891
 8106TIP3   OH248512   0.196   4.484  11.847 -0.0814  0.2459 -0.2556
 8106TIP3    H148513   0.190   4.579  11.846 -1.3765  0.1946  0.5432
 8106TIP3    H248514   0.143   4.456  11.772 -0.7823  0.1262  0.2752
 8107TIP3   OH248515   7.612   2.811  11.268 -0.2574  0.2861 -0.1057
 8107TIP3    H148516   7.541   2.766  11.314 -1.4768  0.7324 -1.4534
 8107TIP3    H248517   7.676   2.742  11.250 -1.2654 -0.5628 -0.5805
 8108TIP3   OH248518   2.765   7.298  11.794 -0.4026  0.1427 -0.0119
 8108TIP3    H148519   2.805   7.249  11.866 -1.5494  1.0755  1.3132
 8108TIP3    H248520   2.724   7.374  11.836 -1.3509  0.5730 -1.6156
 8109TIP3   OH248521   1.944   6.909  12.423 -0.7446  0.5436  0.3527
 8109TIP3    H148522   1.942   6.891  12.329 -0.7311  0.9005  0.2834
 8109TIP3    H248523   1.852   6.915  12.448 -0.7507  0.2909  0.3942
 8110TIP3   OH248524   4.840   0.986  13.816  0.2206  0.1351  0.3258
 8110TIP3    H148525   4.934   0.970  13.812  0.3454  0.8780  0.1038
 8110TIP3    H248526   4.803   0.933  13.745  0.4895 -0.0212  0.3016
 8111TIP3   OH248527   5.003   2.479  12.684 -0.6196  0.2674 -0.1464
 8111TIP3    H148528   4.967   2.490  12.596 -1.2135  1.0461  0.1743
 8111TIP3    H248529   5.096   2.460  12.670 -0.1564  2.7401 -0.9145
 8112TIP3   OH248530   3.496   7.731  12.399 -0.0196  0.0226 -0.2570
 8112TIP3    H148531   3.489   7.807  12.456  0.3891 -0.0647 -0.0882
 8112TIP3    H248532   3.530   7.662  12.455  3.0442  0.6341 -1.1843
 8113TIP3   OH248533   8.066   6.906  12.861 -0.2039  0.5779 -0.4679
 8113TIP3    H148534   7.986   6.871  12.822  0.5857 -0.0429 -1.6179
 8113TIP3    H248535   8.052   7.000  12.865 -0.2944  0.7001 -2.4435
 8114TIP3   OH248536   1.105   3.649  12.222  0.2334  0.0522  0.5918
 8114TIP3    H148537   1.041   3.695  12.275 -1.4289 -0.8775 -0.5316
 8114TIP3    H248538   1.054   3.586  12.171  2.0132 -0.5964 -0.4893
 8115TIP3   OH248539   2.000   4.176  12.339 -0.7385 -0.0667  0.4993
 8115TIP3    H148540   2.053   4.192  12.261 -0.9732 -1.8370 -0.0724
 8115TIP3    H248541   1.984   4.263  12.376  0.1166  0.7293 -0.9230
 8116TIP3   OH248542   7.852   0.846  12.615 -0.4196 -0.1043 -0.1754
 8116TIP3    H148543   7.917   0.782  12.643 -0.8405 -1.4069 -2.0230
 8116TIP3    H248544   7.866   0.921  12.673  1.8515 -0.8313  0.3085
 8117TIP3   OH248545   0.753   6.237  13.380 -0.5830  0.5564 -0.6176
 8117TIP3    H148546   0.764   6.330  13.358 -2.0221  0.7296 -0.6966
 8117TIP3    H248547   0.783   6.230  13.471  1.6095  0.6280 -1.2551
 8118TIP3   OH248548   0.752   5.827  11.759 -0.0091  0.0524 -0.3548
 8118TIP3    H148549   0.816   5.895  11.742  0.5843 -0.4096 -0.0486
 8118TIP3    H248550   0.703   5.859  11.835 -0.3208  0.5295 -0.7583
 8119TIP3   OH248551   8.399   6.114  13.914  0.3767  0.3214  0.0097
 8119TIP3    H148552   8.399   6.198  13.867 -0.6608  0.8256  0.8634
 8119TIP3    H248553   8.463   6.127  13.984  0.2344  0.3902  0.1268
 8120TIP3   OH248554   3.175   3.776  13.281  0.0634 -0.1264 -0.3205
 8120TIP3    H148555   3.107   3.794  13.346  0.4940 -1.8254  0.6454
 8120TIP3    H248556   3.231   3.711  13.322  0.9392 -0.4947 -2.0174
 8121TIP3   OH248557   0.075   6.389  11.970 -0.1138 -0.3609 -0.5331
 8121TIP3    H148558   0.097   6.314  12.026  0.2772  0.4129  0.3773
 8121TIP3    H248559  -0.018   6.376  11.949 -0.3428 -0.5561  0.5078
 8122TIP3   OH248560   8.228   2.342  17.935 -0.5648 -0.4897 -0.4266
 8122TIP3    H148561   8.224   2.396  17.856  0.7135  0.0007 -0.1837
 8122TIP3    H248562   8.283   2.392  17.996  0.1100 -1.7589  0.0531
 8123TIP3   OH248563   3.711   3.621  13.080  0.4412 -0.3049 -0.2488
 8123TIP3    H148564   3.743   3.645  13.167 -0.4869  1.8265 -0.4388
 8123TIP3    H248565   3.623   3.588  13.095  0.6257 -0.8297 -0.2991
 8124TIP3   OH248566   4.393   0.975  12.104 -0.0549 -0.3966 -0.2408
 8124TIP3    H148567   4.369   1.018  12.186 -0.6477 -1.0314 -0.0757
 8124TIP3    H248568   4.451   0.904  12.130 -1.3573 -1.4820 -0.2114
 8125TIP3   OH248569   6.160   1.146  12.807 -0.0246  0.9059 -0.4343
 8125TIP3    H148570   6.099   1.204  12.761  0.1562  1.4281 -0.0211
 8125TIP3    H248571   6.121   1.059  12.797 -1.8264  1.4388  1.3734
 8126TIP3   OH248572   3.492   3.005  12.207  0.5365 -0.2697  0.0788
 8126TIP3    H148573   3.423   2.980  12.268  0.8111 -0.0303  0.4933
 8126TIP3    H248574   3.446   3.025  12.126  0.3528 -2.6295 -0.4536
 8127TIP3   OH248575   6.445   5.947  13.395  0.5351 -0.3932  0.3464
 8127TIP3    H148576   6.381   5.880  13.370 -1.5074  1.2290  0.8752
 8127TIP3    H248577   6.499   5.905  13.462 -1.0640 -1.3704  1.0971
 8128TIP3   OH248578   3.061   4.719  11.817 -0.5431 -0.1711  0.2714
 8128TIP3    H148579   3.065   4.644  11.758 -1.1149 -0.3629  0.4689
 8128TIP3    H248580   2.982   4.704  11.869  0.3558 -0.4281  1.6278
 8129TIP3   OH248581   1.023   3.918  13.120 -0.0609 -0.4959 -0.0377
 8129TIP3    H148582   1.072   3.924  13.202  0.4625 -0.2064 -0.3628
 8129TIP3    H248583   1.085   3.879  13.059 -0.6089 -1.1764 -0.1750
 8130TIP3   OH248584   6.258   4.358  13.824 -0.0663  0.2789  0.5687
 8130TIP3    H148585   6.189   4.321  13.880  0.3000 -1.3263  0.0053
 8130TIP3    H248586   6.222   4.353  13.735  0.9299 -1.0301  0.2125
 8131TIP3   OH248587   4.605   2.069  12.638 -0.0317 -0.4240  0.6339
 8131TIP3    H148588   4.672   2.137  12.647  1.8634 -2.2162  0.6910
 8131TIP3    H248589   4.643   1.992  12.680 -0.9171 -2.3291 -1.8117
 8132TIP3   OH248590   5.727   6.850  12.505  0.2552  0.1668 -0.3045
 8132TIP3    H148591   5.698   6.937  12.479  0.7368  1.1548  2.1533
 8132TIP3    H248592   5.771   6.815  12.427  0.8679  2.5008 -1.0905
 8133TIP3   OH248593   1.053   6.014  13.230  0.5026 -0.2029  0.0977
 8133TIP3    H148594   1.052   6.014  13.134  1.0535  0.4470  0.0850
 8133TIP3    H248595   1.145   6.023  13.253  0.4242 -0.8261  0.6997
 8134TIP3   OH248596   6.270   5.320  18.962 -0.2286  0.6038 -0.3197
 8134TIP3    H148597   6.262   5.299  18.869  1.2431 -0.3358 -0.2826
 8134TIP3    H248598   6.303   5.239  19.002 -1.2784  0.8388  1.1147
 8135TIP3   OH248599   7.192   7.745  12.988  0.2287 -0.2388  0.1435
 8135TIP3    H148600   7.097   7.739  12.999  0.3539 -0.9037  0.9785
 8135TIP3    H248601   7.224   7.657  13.005  1.0101  0.0147  0.0177
 8136TIP3   OH248602   2.733   1.571  12.589 -0.2515 -0.7032 -0.9026
 8136TIP3    H148603   2.718   1.506  12.521 -1.7726 -0.5609 -0.7466
 8136TIP3    H248604   2.774   1.645  12.544 -1.2773 -0.5895 -1.6859
 8137TIP3   OH248605   7.173   7.831  12.264 -0.0741 -0.0724  0.1499
 8137TIP3    H148606   7.218   7.916  12.257  0.6649 -0.4660  0.0468
 8137TIP3    H248607   7.095   7.850  12.317 -0.5428  0.9111 -0.8453
 8138TIP3   OH248608   0.058   5.638  12.243  0.3691 -0.4317 -0.0282
 8138TIP3    H148609   0.080   5.689  12.165 -0.0290 -1.1471 -0.6274
 8138TIP3    H248610   0.122   5.664  12.308 -0.7312  1.9640  0.1953
 8139TIP3   OH248611   3.439   2.607  13.035  0.2924  0.5150 -0.4537
 8139TIP3    H148612   3.513   2.572  12.986  3.0225  0.6592  3.1222
 8139TIP3    H248613   3.425   2.694  12.998  2.2742  0.6810 -0.9196
 8140TIP3   OH248614   4.616   3.707  11.728  0.2659 -0.7034 -0.0912
 8140TIP3    H148615   4.693   3.755  11.759 -1.3370  2.1936 -0.1569
 8140TIP3    H248616   4.610   3.730  11.635  0.1409 -2.1463 -0.4560
 8141TIP3   OH248617   3.630   2.181  12.676 -0.0356  1.0188  0.5067
 8141TIP3    H148618   3.553   2.171  12.619  0.6889  1.8881 -0.6899
 8141TIP3    H248619   3.662   2.269  12.656  1.1184  0.7690  1.1923
 8142TIP3   OH248620   0.002   4.557  13.252  0.3610 -0.0488 -0.5307
 8142TIP3    H148621  -0.002   4.506  13.332 -0.2761  0.0378 -0.5028
 8142TIP3    H248622   0.072   4.517  13.201  0.9415  0.0547  0.1752
 8143TIP3   OH248623   3.403   5.256  11.702 -0.3586 -0.3131 -0.4283
 8143TIP3    H148624   3.493   5.234  11.724 -0.4133  1.4853  1.9258
 8143TIP3    H248625   3.354   5.174  11.717  0.7561 -1.1880 -1.3588
 8144TIP3   OH248626   4.357   0.630  13.046  0.0906  0.2959  0.4703
 8144TIP3    H148627   4.345   0.719  13.078  0.2609 -0.2534  2.2117
 8144TIP3    H248628   4.277   0.584  13.073  0.4294 -0.2926  0.4944
 8145TIP3   OH248629   5.698   2.069  12.648 -0.6368  0.3033  0.5553
 8145TIP3    H148630   5.749   2.056  12.567  0.7779  2.0691  1.0821
 8145TIP3    H248631   5.717   1.991  12.700  1.3051  0.7288  0.5718
 8146TIP3   OH248632   2.485   0.251  12.857 -0.3377 -0.2427 -0.0182
 8146TIP3    H148633   2.578   0.273  12.854 -0.1804 -0.9350 -0.2807
 8146TIP3    H248634   2.472   0.210  12.943 -0.4365 -0.0048  0.0830
 8147TIP3   OH248635   3.495   5.514  12.920 -0.0714 -0.0429 -0.2180
 8147TIP3    H148636   3.567   5.464  12.881 -0.1340  0.1002 -0.5219
 8147TIP3    H248637   3.423   5.451  12.929 -0.3181  0.1125 -1.0685
 8148TIP3   OH248638   4.121   0.101  12.490  0.2038  0.1019 -0.2336
 8148TIP3    H148639   4.037   0.072  12.455 -0.7616  1.9915  0.3769
 8148TIP3    H248640   4.099   0.149  12.569  1.8669  0.6380 -0.0523
 8149TIP3   OH248641   5.769   1.842  12.785  0.6707  0.2230  0.5029
 8149TIP3    H148642   5.858   1.809  12.775 -0.0620 -1.6506 -0.1777
 8149TIP3    H248643   5.729   1.784  12.850 -0.8166 -0.6366 -1.1170
 8150TIP3   OH248644   1.742   2.742  13.377  0.2898 -0.3468 -0.0520
 8150TIP3    H148645   1.775   2.788  13.300 -0.2070 -0.2388 -0.2041
 8150TIP3    H248646   1.802   2.766  13.447  0.2208  0.2806 -0.2028
 8151TIP3   OH248647   5.154   5.481  11.544 -0.1585  0.1971  0.5456
 8151TIP3    H148648   5.161   5.565  11.500  2.0753 -0.3078 -0.2092
 8151TIP3    H248649   5.161   5.502  11.637  0.2819  0.8608  0.3715
 8152TIP3   OH248650   3.799   6.566  11.836  0.0405 -0.1593 -0.5764
 8152TIP3    H148651   3.832   6.518  11.760 -0.2408  0.9497 -1.4333
 8152TIP3    H248652   3.732   6.624  11.800 -1.4502 -0.9430  0.8166
 8153TIP3   OH248653   7.039   8.063  13.373  0.0046 -0.3750 -0.0418
 8153TIP3    H148654   6.997   8.099  13.452 -2.0544  1.9031 -1.9915
 8153TIP3    H248655   6.999   7.977  13.362 -1.3081  0.1593  0.3010
 8154TIP3   OH248656   8.068   1.962  13.332 -0.3225 -0.2147  0.7068
 8154TIP3    H148657   8.136   1.911  13.288 -1.6819 -0.3451 -1.4168
 8154TIP3    H248658   8.031   1.901  13.397  0.6194 -0.6077  0.8919
 8155TIP3   OH248659   8.342   2.900  12.827  0.0090  0.1606 -0.6149
 8155TIP3    H148660   8.248   2.882  12.825  0.0191  0.0564 -0.2565
 8155TIP3    H248661   8.380   2.837  12.766  0.1915 -1.9757  1.5437
 8156TIP3   OH248662   4.274   6.678  13.039  0.2261 -0.4334 -0.2817
 8156TIP3    H148663   4.305   6.718  12.958 -0.9271 -1.6852 -1.4022
 8156TIP3    H248664   4.308   6.734  13.108 -0.4585  1.8945 -1.6972
 8157TIP3   OH248665   7.821   4.058  12.963  0.4201 -0.1819  0.3877
 8157TIP3    H148666   7.843   4.050  13.056  3.1637 -1.4932 -0.2631
 8157TIP3    H248667   7.743   4.003  12.952  0.7734 -0.9982  1.7254
 8158TIP3   OH248668   3.253   1.714  12.306  0.3910  0.0500  0.1248
 8158TIP3    H148669   3.183   1.761  12.350  2.3084  2.1904  1.1118
 8158TIP3    H248670   3.270   1.637  12.361 -0.0915  0.4078  0.7796
 8159TIP3   OH248671   5.420   7.754  13.189 -0.5978 -0.5296  0.3278
 8159TIP3    H148672   5.398   7.780  13.278  1.4341  0.7504  0.5147
 8159TIP3    H248673   5.377   7.670  13.177 -1.7144 -0.2652  2.1593
 8160TIP3   OH248674   0.984   1.757  12.436 -0.6818 -0.7067  0.5781
 8160TIP3    H148675   0.897   1.764  12.474 -1.8307  1.3751 -2.0993
 8160TIP3    H248676   0.987   1.669  12.399 -1.6027 -0.8327  0.7852
 8161TIP3   OH248677   5.043   1.313  13.880  0.3005 -0.0918  0.4179
 8161TIP3    H148678   5.076   1.397  13.912  0.4259 -0.0047  0.0582
 8161TIP3    H248679   5.029   1.326  13.786  0.2187 -0.4418  0.3788
 8162TIP3   OH248680   3.227   6.932  11.836 -0.2685 -0.8322 -0.4962
 8162TIP3    H148681   3.241   7.014  11.789 -0.3451 -0.9072 -0.6476
 8162TIP3    H248682   3.249   6.864  11.772 -3.8627 -1.0765 -1.6480
 8163TIP3   OH248683   6.354   6.256  13.675 -0.0510 -0.0329 -0.0022
 8163TIP3    H148684   6.381   6.327  13.617 -0.7345  0.6761  0.5291
 8163TIP3    H248685   6.436   6.211  13.697  0.4017  0.6465 -0.2710
 8164TIP3   OH248686   6.369   5.302  13.150 -0.1593 -0.1325 -0.4689
 8164TIP3    H148687   6.444   5.258  13.110 -1.1890 -1.8073 -0.6792
 8164TIP3    H248688   6.335   5.238  13.214 -2.1999 -0.0171 -1.3431
 8165TIP3   OH248689   3.219   0.527  13.514 -0.0290 -0.2072 -0.0118
 8165TIP3    H148690   3.166   0.576  13.451 -0.5454  1.4493  1.6314
 8165TIP3    H248691   3.196   0.435  13.499  1.8761 -0.2295 -4.0396
 8166TIP3   OH248692   3.612   3.062  13.327 -0.9213  0.3399 -0.8476
 8166TIP3    H148693   3.552   3.023  13.263 -2.3271 -0.0729  0.6785
 8166TIP3    H248694   3.594   3.016  13.408  1.2419  0.4513 -0.2363
 8167TIP3   OH248695   4.685   7.912  11.958  0.0257 -0.6466  0.5204
 8167TIP3    H148696   4.648   7.856  11.890 -1.0610 -0.0061  0.5609
 8167TIP3    H248697   4.618   7.916  12.026  1.0411 -1.1758  1.5984
 8168TIP3   OH248698   6.083   8.187  11.424  0.1024  0.4764  0.0708
 8168TIP3    H148699   6.173   8.214  11.441  0.0718  2.7355 -2.6323
 8168TIP3    H248700   6.084   8.153  11.334 -1.4317 -1.3857  0.6638
 8169TIP3   OH248701   0.895   4.900  13.792 -0.1750  0.2319 -0.3643
 8169TIP3    H148702   0.989   4.890  13.778 -0.3016 -1.1223 -0.4454
 8169TIP3    H248703   0.873   4.828  13.852 -0.8504  1.6217  1.1333
 8170TIP3   OH248704   2.789   7.235  12.299  0.0166  0.0479 -0.0964
 8170TIP3    H148705   2.745   7.295  12.239  1.2343  0.0690 -0.9860
 8170TIP3    H248706   2.858   7.287  12.340  0.1643 -0.3706  0.1944
 8171TIP3   OH248707   7.658   0.948  12.437 -0.1386 -0.3387 -0.4280
 8171TIP3    H148708   7.720   0.933  12.508 -1.4552  0.3243  0.9120
 8171TIP3    H248709   7.712   0.952  12.358  1.3134 -1.5214  0.4659
 8172TIP3   OH248710   1.522   1.259  12.195 -0.1728 -0.1444 -0.6114
 8172TIP3    H148711   1.597   1.240  12.251  0.4697 -0.2006 -1.4694
 8172TIP3    H248712   1.530   1.353  12.175 -0.1574 -0.2143 -0.9463
 8173TIP3   OH248713   7.073   2.828  13.279 -0.0209 -0.4149  0.5144
 8173TIP3    H148714   7.008   2.885  13.320 -0.3834 -1.0946  0.9038
 8173TIP3    H248715   7.028   2.745  13.266 -0.0926 -0.0615 -1.8434
 8174TIP3   OH248716   6.508   0.051  11.698  0.3014  0.3103  0.4123
 8174TIP3    H148717   6.587   0.008  11.732  0.9976  1.8252  0.8101
 8174TIP3    H248718   6.512   0.037  11.604  1.8075  1.4989  0.2553
 8175TIP3   OH248719   5.593   5.630  12.253 -0.4133 -0.1084  0.0739
 8175TIP3    H148720   5.564   5.635  12.162  0.4953  1.2572 -0.1671
 8175TIP3    H248721   5.687   5.616  12.247 -0.1786  1.0653  0.7815
 8176TIP3   OH248722   2.284   1.951  13.299 -0.2085  0.9328  0.0963
 8176TIP3    H148723   2.335   1.972  13.378 -0.1287  2.4843 -0.3405
 8176TIP3    H248724   2.194   1.972  13.323 -0.1981  1.3102 -0.2014
 8177TIP3   OH248725   8.340   5.865  12.054 -0.5782  0.3767  0.0681
 8177TIP3    H148726   8.334   5.910  12.138 -1.9318 -0.4759  0.4514
 8177TIP3    H248727   8.396   5.922  12.000  0.6756  0.7185  1.6574
 8178TIP3   OH248728   4.666   4.549  13.706  0.4822  0.2936 -0.5104
 8178TIP3    H148729   4.662   4.615  13.637  0.7465 -1.9568 -2.8563
 8178TIP3    H248730   4.583   4.502  13.699 -0.0683  0.8316  1.6805
 8179TIP3   OH248731   2.828   6.296  12.422  0.3176  0.1231  0.3831
 8179TIP3    H148732   2.820   6.229  12.354  2.6334  1.5174 -1.4095
 8179TIP3    H248733   2.798   6.376  12.380 -1.1460  0.5310  2.0760
 8180TIP3   OH248734   2.439   4.024  11.642  0.1399  0.1129 -0.1715
 8180TIP3    H148735   2.392   4.104  11.663  0.7777  0.6881 -0.8924
 8180TIP3    H248736   2.421   4.008  11.549  1.2715  0.2916 -0.4360
 8181TIP3   OH248737   6.963   1.479  13.057  0.7826  0.3933 -0.3073
 8181TIP3    H148738   7.038   1.438  13.099  0.9390 -0.3311 -1.2576
 8181TIP3    H248739   6.999   1.525  12.981  0.7326  3.0420  1.1362
 8182TIP3   OH248740   5.351   0.583  12.549  0.1172 -0.6619  0.1409
 8182TIP3    H148741   5.313   0.615  12.630 -0.2486  0.4627 -0.4573
 8182TIP3    H248742   5.402   0.506  12.575  0.9936  0.3797  1.6217
 8183TIP3   OH248743   3.580   2.088  12.310  0.0566 -0.4002 -0.1137
 8183TIP3    H148744   3.584   1.996  12.283 -0.5658 -1.2341  2.4105
 8183TIP3    H248745   3.669   2.121  12.298  0.7515 -1.9023  0.7754
 8184TIP3   OH248746   5.469   1.065  11.591  0.0873  0.5433 -0.4318
 8184TIP3    H148747   5.557   1.061  11.553  0.4185  0.7290  0.2911
 8184TIP3    H248748   5.448   1.158  11.595  0.0975  0.5354 -0.0941
 8185TIP3   OH248749   6.105   0.739  11.972 -0.2400 -0.7081  0.1509
 8185TIP3    H148750   6.029   0.780  11.930 -0.3051 -0.2162  0.7226
 8185TIP3    H248751   6.120   0.659  11.923 -0.3425 -0.1744 -0.7637
 8186TIP3   OH248752   6.360   1.777  12.677  0.4140 -0.3021  0.1281
 8186TIP3    H148753   6.285   1.731  12.715 -0.0007 -0.4897 -0.8869
 8186TIP3    H248754   6.436   1.726  12.705 -0.0704 -1.9931 -1.4584
 8187TIP3   OH248755   1.093   3.338  11.680 -0.7630 -0.2966  0.2299
 8187TIP3    H148756   1.094   3.262  11.622 -1.4853 -0.5966  0.6041
 8187TIP3    H248757   1.071   3.412  11.622 -1.4705 -0.5926  0.1083
 8188TIP3   OH248758   7.166   6.517  13.344 -0.1080  0.1148  0.2584
 8188TIP3    H148759   7.155   6.586  13.279 -0.3179  0.0082  0.1796
 8188TIP3    H248760   7.252   6.534  13.383 -0.0966  0.3341  0.1376
 8189TIP3   OH248761   3.298   0.094  12.044  0.2721  0.1455  0.0837
 8189TIP3    H148762   3.345   0.114  12.125 -1.1470 -1.2787  1.3107
 8189TIP3    H248763   3.208   0.122  12.061 -0.3716 -1.5533 -0.4092
 8190TIP3   OH248764   6.500   3.235  11.562  0.0400  0.7726 -0.0733
 8190TIP3    H148765   6.581   3.280  11.536  0.2361  0.0106 -0.8506
 8190TIP3    H248766   6.530   3.161  11.614 -0.2548  1.2721  0.8239
 8191TIP3   OH248767   8.269   1.307  11.580  0.1271 -0.1719 -0.6029
 8191TIP3    H148768   8.243   1.370  11.647 -1.4694 -0.9120 -0.4616
 8191TIP3    H248769   8.362   1.289  11.598 -0.3061 -0.5442  1.6176
 8192TIP3   OH248770   5.006   8.445  11.537 -0.1621 -0.5204 -0.0712
 8192TIP3    H148771   4.972   8.458  11.625 -0.9144 -2.0353 -0.1005
 8192TIP3    H248772   4.929   8.444  11.481  0.3543  1.0165 -0.8543
 8193TIP3   OH248773   6.740   2.278  13.044 -0.7097 -0.0238  0.0673
 8193TIP3    H148774   6.774   2.189  13.043 -0.7802 -0.0480 -0.1721
 8193TIP3    H248775   6.648   2.269  13.020 -0.5797  0.1724 -0.5166
 8194TIP3   OH248776   6.542   4.102  12.381 -0.0478 -0.3464  0.0143
 8194TIP3    H148777   6.574   4.072  12.296  0.8329 -0.8763  0.5114
 8194TIP3    H248778   6.486   4.177  12.361 -1.0060 -1.3251 -1.1324
 8195TIP3   OH248779   8.234   3.172  11.728  0.1397 -0.2113  0.0847
 8195TIP3    H148780   8.147   3.133  11.716  0.1356  0.1198 -1.1775
 8195TIP3    H248781   8.295   3.100  11.717  0.0247 -0.5672  1.6049
 8196TIP3   OH248782   0.764   8.260  11.515  0.2406 -0.2079  0.1584
 8196TIP3    H148783   0.851   8.229  11.538 -0.0116 -0.9833  0.1203
 8196TIP3    H248784   0.706   8.186  11.537 -0.2327 -0.2528 -1.1353
 8197TIP3   OH248785   1.816   3.922  11.864  0.5570  0.2753  0.0368
 8197TIP3    H148786   1.821   3.960  11.776 -0.6026 -2.9024 -1.6037
 8197TIP3    H248787   1.729   3.945  11.895  0.3774  0.1503 -0.3566
 8198TIP3   OH248788   5.760   3.572  12.376 -0.8523 -0.3567 -0.6011
 8198TIP3    H148789   5.720   3.516  12.310 -2.2113 -0.0062 -0.0924
 8198TIP3    H248790   5.820   3.628  12.326 -0.8033 -1.0393 -1.3349
 8199TIP3   OH248791   3.682   0.630  11.955  0.1038  0.2778 -0.1139
 8199TIP3    H148792   3.737   0.569  12.004  1.1667  0.9189 -0.4836
 8199TIP3    H248793   3.725   0.638  11.870 -1.7293 -0.8542 -1.2220
 8200TIP3   OH248794   2.925   2.508  12.499  0.2233  0.1388  0.0645
 8200TIP3    H148795   2.951   2.573  12.565  0.3124 -1.1372  1.3427
 8200TIP3    H248796   2.894   2.433  12.551 -1.4924 -0.2065 -1.3680
 8201TIP3   OH248797   2.553   7.019  12.041  0.0787  0.1603  0.0400
 8201TIP3    H148798   2.472   6.995  11.996  0.2214 -0.4177  0.0817
 8201TIP3    H248799   2.622   7.006  11.976  0.3510 -1.2335  0.5747
 8202TIP3   OH248800   4.713   3.012  12.665 -0.3249 -0.4647  0.1676
 8202TIP3    H148801   4.688   3.095  12.625 -0.6078 -0.6907 -0.1339
 8202TIP3    H248802   4.696   3.024  12.758 -0.4417 -0.2093  0.1149
 8203TIP3   OH248803   7.767   8.299  12.353  0.8235 -0.0736  0.2893
 8203TIP3    H148804   7.724   8.357  12.415 -0.8310 -0.6560 -0.2716
 8203TIP3    H248805   7.832   8.251  12.405  2.4760  2.4266  0.7058
 8204TIP3   OH248806   4.215   7.193  12.677 -0.0733 -0.1100 -0.5932
 8204TIP3    H148807   4.207   7.163  12.587  1.3630  0.8281 -1.0873
 8204TIP3    H248808   4.181   7.121  12.730  0.4785 -1.3240 -1.8223
 8205TIP3   OH248809   1.985   6.108  11.895 -0.3858  0.7047  0.2313
 8205TIP3    H148810   2.019   6.197  11.883 -1.9196  1.1901 -0.8919
 8205TIP3    H248811   1.932   6.092  11.817  0.7124 -1.6433 -0.1153
 8206TIP3   OH248812   0.317   0.572  12.072  0.3186 -0.0069  0.5421
 8206TIP3    H148813   0.250   0.629  12.108 -0.3445 -0.8555  0.6809
 8206TIP3    H248814   0.321   0.594  11.978  0.6079  0.7778  0.7317
 8207TIP3   OH248815   8.197   5.667  12.174 -0.2647  0.2537 -0.1000
 8207TIP3    H148816   8.292   5.667  12.183 -0.2926 -1.8612  0.6337
 8207TIP3    H248817   8.182   5.672  12.079  0.6522 -1.1357 -0.3565
 8208TIP3   OH248818   0.313   6.484  13.092 -1.0446 -0.0148 -0.3755
 8208TIP3    H148819   0.319   6.390  13.076  0.5798  0.0373 -0.2463
 8208TIP3    H248820   0.281   6.520  13.010 -0.6817 -0.5890 -0.7860
 8209TIP3   OH248821   0.505   2.080  11.935 -0.2243 -0.3724  0.0701
 8209TIP3    H148822   0.523   2.115  11.848 -0.3806 -0.9387 -0.1926
 8209TIP3    H248823   0.417   2.043  11.928 -0.1573 -0.6021  0.4087
 8210TIP3   OH248824   5.282   4.823  11.649  0.7311  0.0658 -0.6424
 8210TIP3    H148825   5.317   4.742  11.612  0.2391 -0.2792 -0.3646
 8210TIP3    H248826   5.238   4.795  11.729  0.0525  0.5230 -0.8460
 8211TIP3   OH248827   0.883   6.061  11.687 -0.3857  0.0110 -0.6140
 8211TIP3    H148828   0.910   6.147  11.719 -0.7448 -0.9204  2.5290
 8211TIP3    H248829   0.822   6.080  11.616  0.7078  2.2919 -1.0309
 8212TIP3   OH248830   4.838   3.558  12.038 -0.1671 -0.4384  0.1346
 8212TIP3    H148831   4.845   3.508  11.957 -0.7449 -0.3062  0.0051
 8212TIP3    H248832   4.917   3.533  12.087 -0.8481 -2.1308  0.4457
 8213TIP3   OH248833   6.397   5.763  12.193  0.1427 -0.5432  0.3128
 8213TIP3    H148834   6.323   5.703  12.204  0.5607 -1.1318 -0.0285
 8213TIP3    H248835   6.434   5.741  12.107  0.6176 -0.1453  0.4088
 8214TIP3   OH248836   4.267   3.569  12.770 -0.3997 -0.2315 -0.6627
 8214TIP3    H148837   4.265   3.581  12.675  0.4693 -0.4566 -0.7171
 8214TIP3    H248838   4.360   3.565  12.792 -0.5536 -2.4488 -0.1121
 8215TIP3   OH248839   6.675   3.185  13.467  0.7933 -0.1279 -0.3631
 8215TIP3    H148840   6.584   3.157  13.482  0.8835  0.0585  0.5896
 8215TIP3    H248841   6.671   3.232  13.384 -0.0248  0.0361 -0.2462
 8216TIP3   OH248842   7.558   6.079  11.700 -0.3369  0.0810 -0.2297
 8216TIP3    H148843   7.567   6.170  11.728  0.2851  0.2737 -0.9907
 8216TIP3    H248844   7.508   6.085  11.618 -1.8875 -0.4367  0.6466
 8217TIP3   OH248845   2.672   4.435  11.751  0.1780  0.4230 -0.2904
 8217TIP3    H148846   2.670   4.530  11.745 -0.4618  0.4037 -0.4290
 8217TIP3    H248847   2.617   4.415  11.827  0.2584  0.1615 -0.3001
 8218TIP3   OH248848   2.270   5.010  12.088 -0.2359 -1.0032  0.0816
 8218TIP3    H148849   2.288   4.960  12.008  0.6073  0.6129 -0.7813
 8218TIP3    H248850   2.190   4.970  12.123 -1.1013 -1.2452 -2.0038
 8219TIP3   OH248851   0.296   1.878  11.542 -0.3587  0.2803  0.0114
 8219TIP3    H148852   0.304   1.787  11.571 -2.6218  0.1976  0.5939
 8219TIP3    H248853   0.258   1.871  11.454 -1.5024  0.6309  0.4536
 8220TIP3   OH248854   3.521   8.346  12.237  0.8637  0.1187  0.0898
 8220TIP3    H148855   3.608   8.346  12.197  0.5486  0.0213 -0.6095
 8220TIP3    H248856   3.490   8.436  12.229  1.5197  0.5230  1.7477
 8221TIP3   OH248857   0.461   1.791  12.268  0.3500  0.2608  0.3096
 8221TIP3    H148858   0.412   1.755  12.342  0.0799  0.3447  0.1750
 8221TIP3    H248859   0.420   1.877  12.253 -0.4469 -0.2753 -0.7442
 8222TIP3   OH248860   6.343   2.349  12.082  0.7616 -0.3169  0.0472
 8222TIP3    H148861   6.364   2.422  12.140  0.4479  0.0348 -0.2753
 8222TIP3    H248862   6.323   2.276  12.141  0.5461  0.0104  0.3814
 8223TIP3   OH248863   6.561   1.862  12.252 -0.3122  0.3809  0.6435
 8223TIP3    H148864   6.544   1.771  12.279  0.4804  0.3720  1.1751
 8223TIP3    H248865   6.515   1.915  12.317  0.0466  0.3484  0.9353
 8224TIP3   OH248866   3.825   2.798  14.053 -0.0107 -0.3128  0.2725
 8224TIP3    H148867   3.750   2.831  14.004  1.9813 -0.9414 -3.5713
 8224TIP3    H248868   3.878   2.876  14.071  0.2497 -0.3021 -0.5093
 8225TIP3   OH248869   7.241   5.702  11.941 -0.1108  0.1118 -0.2187
 8225TIP3    H148870   7.269   5.721  12.031  3.5720 -1.8390 -0.7668
 8225TIP3    H248871   7.296   5.758  11.886  0.1572 -1.1732 -1.3066
 8226TIP3   OH248872   8.111   1.472  13.073 -0.5943  0.0758  0.0057
 8226TIP3    H148873   8.169   1.422  13.015  0.4781 -0.1143  1.2145
 8226TIP3    H248874   8.104   1.419  13.152 -0.8584  1.0131  0.6249
 8227TIP3   OH248875   0.986   4.909  13.031 -0.5117  0.5389 -0.0156
 8227TIP3    H148876   1.047   4.836  13.024 -1.7175 -0.4561 -0.5748
 8227TIP3    H248877   1.025   4.978  12.978 -0.2605 -0.3666 -1.0519
 8228TIP3   OH248878   7.218   5.293  13.311 -0.4041  0.0433 -0.0395
 8228TIP3    H148879   7.264   5.333  13.385  0.6524 -0.1014 -0.5962
 8228TIP3    H248880   7.225   5.199  13.326 -1.6700  0.0315  0.5453
 8229TIP3   OH248881   0.180   1.985  13.009  0.3130 -0.2425  0.0057
 8229TIP3    H148882   0.178   2.079  12.994 -0.4182 -0.2892 -0.2473
 8229TIP3    H248883   0.161   1.975  13.103  0.2012 -0.1451 -0.0076
 8230TIP3   OH248884   3.489   2.329  13.494  0.0824 -0.0763  0.0360
 8230TIP3    H148885   3.540   2.395  13.446 -1.8164  0.1858 -1.7326
 8230TIP3    H248886   3.427   2.380  13.547  0.3164 -0.4274  0.6606
 8231TIP3   OH248887   6.775   5.255  13.511  0.2365 -0.4559 -0.1187
 8231TIP3    H148888   6.801   5.195  13.580 -1.4134  0.4016  1.3235
 8231TIP3    H248889   6.762   5.339  13.555 -1.1217  0.0641 -1.4084
 8232TIP3   OH248890   2.040   1.254  12.097  0.0984 -0.0537  0.5851
 8232TIP3    H148891   2.024   1.180  12.039 -0.9835  0.8153 -0.2649
 8232TIP3    H248892   1.957   1.300  12.102  1.0519  1.8493  0.0241
 8233TIP3   OH248893   3.690   2.895  11.731 -0.0646  0.6080  0.0100
 8233TIP3    H148894   3.766   2.928  11.683 -0.8010  0.1562 -1.5428
 8233TIP3    H248895   3.717   2.809  11.762 -0.0659  0.2596 -0.9210
 8234TIP3   OH248896   6.759   0.200  12.462  0.0669  0.6282 -0.5758
 8234TIP3    H148897   6.669   0.167  12.469 -0.1368  1.1010 -0.9091
 8234TIP3    H248898   6.803   0.139  12.404  0.0871  0.1414 -0.0593
 8235TIP3   OH248899   4.122   6.256  12.043  0.1074 -0.2923 -0.0053
 8235TIP3    H148900   4.036   6.221  12.022  0.2017 -0.2036 -0.5574
 8235TIP3    H248901   4.104   6.329  12.103 -0.2509  0.1602 -0.6574
 8236TIP3   OH248902   6.937   7.916  12.407 -0.1046  0.0483 -0.4940
 8236TIP3    H148903   6.893   8.001  12.417 -0.7644 -0.2145 -1.0345
 8236TIP3    H248904   6.972   7.897  12.494  1.4369  1.5972 -0.7038
 8237TIP3   OH248905   2.620   6.464  13.415 -0.2528 -0.0729  0.2339
 8237TIP3    H148906   2.575   6.404  13.356 -0.5662  1.1680 -0.8379
 8237TIP3    H248907   2.579   6.450  13.500 -0.6103 -1.0639 -0.0902
 8238TIP3   OH248908   6.066   0.445  13.596  0.0877  0.0241  0.2965
 8238TIP3    H148909   6.128   0.509  13.561  0.6223 -0.3845  0.4952
 8238TIP3    H248910   6.084   0.441  13.689  0.3297 -0.7128  0.2239
 8239TIP3   OH248911   5.938   1.667  13.521 -0.9826 -0.6807  0.2225
 8239TIP3    H148912   5.970   1.606  13.588  0.2196 -0.4926 -0.1529
 8239TIP3    H248913   6.016   1.715  13.493 -1.4459 -0.7604 -1.3220
 8240TIP3   OH248914   0.762   6.716  12.968 -0.4993 -0.1228  0.2117
 8240TIP3    H148915   0.818   6.788  12.939  1.4834 -0.6031  2.5557
 8240TIP3    H248916   0.821   6.657  13.016 -2.6441 -1.7317  1.0295
 8241TIP3   OH248917   5.903   1.270  11.527 -0.7603  0.7156 -0.1223
 8241TIP3    H148918   5.971   1.244  11.589 -0.1954  0.3362 -0.8846
 8241TIP3    H248919   5.862   1.347  11.567 -1.9398 -0.8021  1.8173
 8242TIP3   OH248920   4.410   6.679  12.377 -0.2866  0.3997  0.0707
 8242TIP3    H148921   4.443   6.607  12.324  1.5642 -0.2881  2.0197
 8242TIP3    H248922   4.333   6.643  12.420  0.2846 -0.2339  0.5777
 8243TIP3   OH248923   6.405   0.612  12.183 -0.3858  0.0279  0.2193
 8243TIP3    H148924   6.437   0.657  12.261  1.0688 -1.1801  0.3829
 8243TIP3    H248925   6.323   0.572  12.210  1.2102 -2.3479  1.9433
 8244TIP3   OH248926   5.054   5.402  12.975 -0.3031 -0.3088 -0.7036
 8244TIP3    H148927   5.043   5.447  13.059 -2.0530 -1.7334 -0.0937
 8244TIP3    H248928   5.123   5.450  12.930 -1.7061  2.6541  0.0743
 8245TIP3   OH248929   6.336   6.068  13.192  0.1697  0.0957  0.2393
 8245TIP3    H148930   6.362   6.022  13.272 -1.1754  0.2860  0.8084
 8245TIP3    H248931   6.263   6.124  13.219  0.8366  1.5135 -0.7353
 8246TIP3   OH248932   1.444   2.617  12.065 -0.1917 -0.0425 -0.1704
 8246TIP3    H148933   1.353   2.633  12.090  0.4011 -0.0255  2.2388
 8246TIP3    H248934   1.491   2.696  12.091  0.5435 -0.0588 -1.3560
 8247TIP3   OH248935   1.150   5.665  11.979  0.6676 -0.4838 -0.6462
 8247TIP3    H148936   1.112   5.736  11.927  0.3535 -1.6575 -2.0917
 8247TIP3    H248937   1.134   5.690  12.070  1.6454  1.8752 -1.0475
 8248TIP3   OH248938   0.397   6.719  12.310 -0.2243 -0.7739 -0.0026
 8248TIP3    H148939   0.313   6.729  12.265  0.2910  0.8719 -0.6724
 8248TIP3    H248940   0.451   6.669  12.249 -0.2520 -0.5257 -0.2329
 8249TIP3   OH248941   0.710   1.178  12.673 -0.5509 -0.2659  0.5620
 8249TIP3    H148942   0.620   1.159  12.646 -1.0645  1.6455  0.7663
 8249TIP3    H248943   0.748   1.093  12.693 -2.1749 -1.1531  0.0357
 8250TIP3   OH248944   8.023   0.615  11.936 -0.3495  0.5578 -0.2875
 8250TIP3    H148945   8.063   0.616  11.849 -0.1064 -0.5315 -0.2026
 8250TIP3    H248946   8.000   0.523  11.951 -4.4454  1.2775 -1.0215
 8251TIP3   OH248947   2.083   8.126  11.742 -0.6153  0.2046  0.4817
 8251TIP3    H148948   2.057   8.165  11.658 -2.1764 -2.3475 -0.3246
 8251TIP3    H248949   2.171   8.160  11.757 -1.1843  2.5930 -0.9684
 8252TIP3   OH248950   7.267   6.252  13.135  0.1779  0.3335 -0.1078
 8252TIP3    H148951   7.302   6.338  13.111 -0.6310  0.6900 -0.0405
 8252TIP3    H248952   7.317   6.227  13.213  0.0105  1.0107  0.2240
 8253TIP3   OH248953   5.251   6.200  11.912 -0.8576 -0.6567  0.4601
 8253TIP3    H148954   5.186   6.226  11.977 -1.0356  1.0986 -0.3836
 8253TIP3    H248955   5.319   6.156  11.962 -1.7545 -0.7797  1.6033
 8254TIP3   OH248956   7.818   7.954  13.581 -0.1296 -0.2536 -0.2700
 8254TIP3    H148957   7.793   7.886  13.518  2.6314 -2.9797  1.3332
 8254TIP3    H248958   7.905   7.982  13.553 -0.6355  1.6358 -0.0611
 8255TIP3   OH248959   3.501   2.499  11.916  0.1391  0.1562 -0.4184
 8255TIP3    H148960   3.496   2.433  11.985  0.8937 -0.3216 -0.8104
 8255TIP3    H248961   3.425   2.555  11.931 -0.1517 -0.4192  0.3101
 8256TIP3   OH248962   7.514   6.170  14.044  0.8630  0.0611 -0.6837
 8256TIP3    H148963   7.492   6.079  14.066 -0.2898  0.5855  0.4559
 8256TIP3    H248964   7.461   6.190  13.967 -0.5439  0.4298  0.3606
 8257TIP3   OH248965   0.587   0.546  12.147  0.7095 -0.7358  0.3930
 8257TIP3    H148966   0.600   0.457  12.179 -1.1065 -0.7288  1.2489
 8257TIP3    H248967   0.492   0.554  12.136  0.4195  2.0892  3.4035
 8258TIP3   OH248968   0.754   5.566  11.795  0.5097 -0.0827  0.0451
 8258TIP3    H148969   0.821   5.573  11.863  1.2554  0.2866 -0.7148
 8258TIP3    H248970   0.768   5.643  11.740 -2.4151  1.6586  1.5057
 8259TIP3   OH248971   3.017   7.711  13.423 -0.2913 -0.2297 -0.5351
 8259TIP3    H148972   3.040   7.618  13.413 -1.2206 -0.4607 -0.6025
 8259TIP3    H248973   2.924   7.715  13.404 -0.8345  0.3085  1.8930
 8260TIP3   OH248974   5.945   3.487  11.959  0.2396 -0.5299 -0.3099
 8260TIP3    H148975   5.969   3.428  11.888  0.3408 -0.4977 -0.3018
 8260TIP3    H248976   6.016   3.550  11.964 -0.3587  0.2268 -1.0097
 8261TIP3   OH248977   3.230   2.949  12.301  0.0916 -0.2200  0.6188
 8261TIP3    H148978   3.209   3.038  12.272  3.1669  1.0075  1.8139
 8261TIP3    H248979   3.168   2.933  12.373  0.0832  1.3335  0.9931
 8262TIP3   OH248980   8.308   5.301  13.729  0.1238  0.3432  0.5484
 8262TIP3    H148981   8.344   5.231  13.674 -0.9645 -0.9460  1.4035
 8262TIP3    H248982   8.215   5.278  13.738  0.1418  0.8570  2.3928
 8263TIP3   OH248983   5.451   0.214  11.763 -0.4297 -0.2679 -0.3023
 8263TIP3    H148984   5.356   0.223  11.753 -0.5967 -1.6533 -0.0694
 8263TIP3    H248985   5.473   0.134  11.716  0.2853 -1.1914  1.5137
 8264TIP3   OH248986   5.477   5.941  13.106  0.3363  0.3023 -0.1542
 8264TIP3    H148987   5.421   6.018  13.119 -1.0046 -0.8751  1.5011
 8264TIP3    H248988   5.560   5.965  13.148 -0.1726  0.7602  0.6342
 8265TIP3   OH248989   3.424   0.804  13.253  0.0940  0.2139  0.6808
 8265TIP3    H148990   3.357   0.752  13.298  0.3255  0.7335  1.6591
 8265TIP3    H248991   3.378   0.883  13.225  0.6686  1.4786  3.0731
 8266TIP3   OH248992   8.242   8.305  12.523  0.2136  0.4203 -0.0296
 8266TIP3    H148993   8.300   8.316  12.598  0.1441 -1.4525  0.3544
 8266TIP3    H248994   8.237   8.391  12.483  1.1238  1.2082  1.4844
 8267TIP3   OH248995   3.140   7.426  12.163 -0.6745  0.0073 -0.1062
 8267TIP3    H148996   3.127   7.493  12.229  1.9942 -0.1185  0.6789
 8267TIP3    H248997   3.189   7.470  12.093  0.4585 -0.9018  0.0836
 8268TIP3   OH248998   5.640   2.517  13.101  0.0299 -0.5018  0.2530
 8268TIP3    H148999   5.624   2.587  13.165 -2.2029  1.8257 -2.5298
 8268TIP3    H249000   5.693   2.559  13.033  1.9930 -2.7659  0.2691
 8269TIP3   OH249001   0.908   4.603  12.009  0.0199  0.0763  0.3548
 8269TIP3    H149002   0.993   4.613  12.052 -0.4158  1.3949  0.9569
 8269TIP3    H249003   0.907   4.512  11.978  0.9165 -0.5041  1.9223
 8270TIP3   OH249004   6.215   1.181  13.628 -0.2515 -0.7091  0.0269
 8270TIP3    H149005   6.221   1.149  13.718  2.1546 -0.2985  0.0869
 8270TIP3    H249006   6.179   1.107  13.579 -0.3722 -1.4014  1.1213
 8271TIP3   OH249007   6.231   4.773  12.863  0.2240  0.1865 -0.0951
 8271TIP3    H149008   6.225   4.811  12.951  0.2932 -1.4765  0.6754
 8271TIP3    H249009   6.325   4.774  12.843  0.3557 -0.6671  0.4435
 8272TIP3   OH249010   1.070   6.839  12.106  0.3304  0.2063 -0.2376
 8272TIP3    H149011   1.046   6.816  12.017  0.5512  2.3429 -0.9122
 8272TIP3    H249012   1.020   6.779  12.161 -1.1933  0.0209 -1.7494
 8273TIP3   OH249013   4.080   1.606  12.628 -0.2906  0.2088 -0.0199
 8273TIP3    H149014   4.158   1.653  12.657  0.9268 -1.3019 -0.6654
 8273TIP3    H249015   4.108   1.559  12.549 -1.8677 -0.3500 -0.2853
 8274TIP3   OH249016   3.696   0.014  11.731  0.2337  0.5526 -0.3845
 8274TIP3    H149017   3.725  -0.058  11.788 -1.3209 -0.2356 -0.5260
 8274TIP3    H249018   3.623   0.053  11.778  0.5472  1.5279 -0.6986
 8275TIP3   OH249019   5.324   8.124  13.353  0.1485  0.0374 -0.3673
 8275TIP3    H149020   5.342   8.205  13.400 -0.2517  0.6080 -1.1867
 8275TIP3    H249021   5.394   8.064  13.380  0.5430  0.7035  0.1015
 8276TIP3   OH249022   2.404   7.279  12.319 -0.1687  0.1370  0.2572
 8276TIP3    H149023   2.434   7.188  12.322  1.2048  0.5788  0.7028
 8276TIP3    H249024   2.431   7.310  12.232 -1.4528 -0.1246 -0.2580
 8277TIP3   OH249025   2.320   3.208  12.157  0.1169  0.0304 -0.4111
 8277TIP3    H149026   2.353   3.160  12.081 -0.5023 -0.4201 -0.3995
 8277TIP3    H249027   2.384   3.278  12.170  0.9605 -0.7123 -0.4989
 8278TIP3   OH249028   0.858   6.665  12.190 -0.2968 -0.1843 -0.3974
 8278TIP3    H149029   0.841   6.716  12.269 -0.0298 -1.2007  0.3453
 8278TIP3    H249030   0.774   6.661  12.145 -0.5247  0.1537 -0.0081
 8279TIP3   OH249031   5.374   4.539  11.956  0.5124 -0.1184  0.0869
 8279TIP3    H149032   5.389   4.630  11.933  0.9027 -0.3037 -0.3953
 8279TIP3    H249033   5.387   4.490  11.875  0.4465 -0.6216  0.3698
 8280TIP3   OH249034   3.044   4.474  11.686  0.1548  0.0492  0.1604
 8280TIP3    H149035   2.998   4.400  11.725  0.9440 -0.3306  0.4047
 8280TIP3    H249036   3.135   4.445  11.680 -0.1394 -0.6932 -3.7386
 8281TIP3   OH249037   7.724   7.638  11.753 -1.0164 -0.3740 -0.1330
 8281TIP3    H149038   7.724   7.567  11.817  0.7039  1.2902  1.8610
 8281TIP3    H249039   7.814   7.668  11.750 -1.7484  2.0442 -0.4804
 8282TIP3   OH249040   5.373   0.316  11.364  0.5818 -0.4234 -0.0301
 8282TIP3    H149041   5.341   0.357  11.283  1.2050  0.8134  0.3293
 8282TIP3    H249042   5.295   0.307  11.418 -0.1814 -2.8828 -1.3911
 8283TIP3   OH249043   8.237   1.478  11.902 -0.0326  1.0274  0.5250
 8283TIP3    H149044   8.273   1.519  11.980  1.8993  0.8655 -0.2245
 8283TIP3    H249045   8.244   1.545  11.834  0.9658  0.2629 -0.1560
 8284TIP3   OH249046   5.980   5.584  13.166  0.0696  0.1379 -0.2575
 8284TIP3    H149047   5.959   5.522  13.096  0.1099  0.3549 -0.4648
 8284TIP3    H249048   6.044   5.538  13.220 -2.8671 -1.6545  1.9969
 8285TIP3   OH249049   7.185   6.641  13.672  0.3796  0.0226  1.1367
 8285TIP3    H149050   7.225   6.722  13.641  1.3665 -1.6417 -2.4360
 8285TIP3    H249051   7.257   6.590  13.709  0.5887 -0.7345 -0.2329
 8286TIP3   OH249052   3.485   4.871  11.982  0.2296 -0.1302  0.2480
 8286TIP3    H149053   3.521   4.789  12.016 -1.5843 -2.1720 -2.2639
 8286TIP3    H249054   3.390   4.857  11.982 -0.2191  2.4434  0.6843
 8287TIP3   OH249055   6.345   5.681  13.247  0.0208 -0.0777  0.3080
 8287TIP3    H149056   6.263   5.724  13.225  0.7534  0.8360 -0.7139
 8287TIP3    H249057   6.322   5.622  13.320 -1.3347  0.8143  0.6424
 8288TIP3   OH249058   0.133   8.054  12.143  0.3556  0.5524 -0.0852
 8288TIP3    H149059   0.175   8.063  12.228  0.7034 -0.7932 -0.1018
 8288TIP3    H249060   0.055   8.002  12.160  1.1504 -0.9329 -0.7824
 8289TIP3   OH249061   5.578   2.206  13.726 -0.0656  0.6519 -0.0098
 8289TIP3    H149062   5.654   2.149  13.731 -0.6591 -0.0414  1.6131
 8289TIP3    H249063   5.585   2.248  13.640 -0.2016 -2.6749 -1.7827
 8290TIP3   OH249064   5.580   0.113  11.477 -0.5281  0.0165  0.0048
 8290TIP3    H149065   5.668   0.148  11.466  0.3991 -2.0172  0.4379
 8290TIP3    H249066   5.523   0.178  11.435  1.2372  0.9849 -1.0327
 8291TIP3   OH249067   0.621   8.420  11.339  0.1662 -0.1537 -0.0973
 8291TIP3    H149068   0.654   8.504  11.308  0.7152  0.3795  1.8171
 8291TIP3    H249069   0.679   8.397  11.411 -0.5258 -1.7566 -0.0227
 8292TIP3   OH249070   7.303   4.100  11.772  0.0153  0.6959  0.2004
 8292TIP3    H149071   7.240   4.138  11.834  0.3246  0.7189  0.5065
 8292TIP3    H249072   7.289   4.149  11.691 -1.6714 -0.5570 -0.3299
 8293TIP3   OH249073   0.100   8.306  12.027 -0.2345 -0.0192  0.6900
 8293TIP3    H149074   0.122   8.221  12.065 -2.0487 -1.6502 -1.5323
 8293TIP3    H249075   0.062   8.284  11.941  0.1504  3.1251 -0.4159
 8294TIP3   OH249076   5.671   2.393  11.962  0.5581  0.4350  0.5376
 8294TIP3    H149077   5.624   2.320  11.922  2.2894 -0.1114 -0.6437
 8294TIP3    H249078   5.622   2.471  11.936  1.2698  0.0449 -2.2680
 8295TIP3   OH249079   4.375   1.382  11.560 -0.1192  0.2940  0.3928
 8295TIP3    H149080   4.394   1.391  11.467 -1.9646 -0.6671 -0.1440
 8295TIP3    H249081   4.444   1.431  11.604  0.6084  1.0517 -1.4848
 8296TIP3   OH249082   2.535   5.153  12.341 -0.0658  0.0371  0.0619
 8296TIP3    H149083   2.612   5.174  12.394  0.7480  0.5170 -1.2554
 8296TIP3    H249084   2.562   5.173  12.252 -1.5046 -0.4497 -0.5042
 8297TIP3   OH249085   4.779   6.599  13.282  0.0880  0.2955  0.0880
 8297TIP3    H149086   4.748   6.682  13.245  1.5229  0.6634 -0.3624
 8297TIP3    H249087   4.875   6.608  13.282  0.1948 -0.0682  3.0393
 8298TIP3   OH249088   3.133   4.339  12.781 -0.1618  0.0899  0.9008
 8298TIP3    H149089   3.039   4.352  12.773 -0.3259 -0.0137  2.3504
 8298TIP3    H249090   3.147   4.325  12.875  0.8655 -3.2759  0.3841
 8299TIP3   OH249091   4.059   4.965  13.530  0.1692  0.7945 -0.1717
 8299TIP3    H149092   4.021   5.048  13.559  1.0713  0.6586  1.4436
 8299TIP3    H249093   3.984   4.906  13.526 -0.3186  1.4022 -0.3246
 8300TIP3   OH249094   3.073   0.227  11.801  0.3115 -0.0604  0.1904
 8300TIP3    H149095   3.045   0.296  11.741 -0.3416 -0.1481  0.3953
 8300TIP3    H249096   3.167   0.242  11.811  0.1819  0.8028  0.2367
 8301TIP3   OH249097   0.472   2.269  12.809 -0.0931 -0.2779  0.4865
 8301TIP3    H149098   0.436   2.224  12.732 -0.3978 -0.3078  0.6474
 8301TIP3    H249099   0.511   2.349  12.774  2.3495 -1.6391 -0.1236
 8302TIP3   OH249100   1.835   5.436  13.293  0.1959 -0.3547 -0.3184
 8302TIP3    H149101   1.839   5.342  13.279  2.2587 -0.6076  1.5227
 8302TIP3    H249102   1.823   5.447  13.387  0.3683  1.2315 -0.4403
 8303TIP3   OH249103   4.023   6.247  13.118  0.2365 -0.0817 -0.3736
 8303TIP3    H149104   4.025   6.202  13.203  0.6007 -2.8478 -1.7454
 8303TIP3    H249105   4.078   6.325  13.131  0.7345 -0.7205  1.7653
 8304TIP3   OH249106   6.955   0.450  13.685 -0.2103  0.2555 -0.4698
 8304TIP3    H149107   6.943   0.379  13.748  0.4429  1.8643  1.5505
 8304TIP3    H249108   7.047   0.443  13.659 -0.6428 -0.8347 -1.8871
 8305TIP3   OH249109   6.047   4.806  13.877 -0.3942  0.5622 -0.0140
 8305TIP3    H149110   6.032   4.897  13.854 -0.3281  0.8407  0.9941
 8305TIP3    H249111   5.978   4.757  13.832 -1.2368  1.2574  0.5101
 8306TIP3   OH249112   3.354   1.810  13.781  0.8710  0.0024  0.2569
 8306TIP3    H149113   3.259   1.821  13.776  1.0812  1.8836 -0.3062
 8306TIP3    H249114   3.368   1.769  13.867 -0.4131  0.2159  0.5943
 8307TIP3   OH249115   2.789   2.807  13.641  0.6074  0.3054  0.0271
 8307TIP3    H149116   2.861   2.744  13.648  1.0174  0.4729 -2.0171
 8307TIP3    H249117   2.732   2.787  13.715  1.6739 -1.2290  0.4837
 8308TIP3   OH249118   5.154   2.919  12.895 -0.1495 -0.5024  0.2565
 8308TIP3    H149119   5.081   2.870  12.857 -0.1755 -0.5557  0.3752
 8308TIP3    H249120   5.112   2.993  12.940 -0.0279  0.4348 -1.1114
 8309TIP3   OH249121   0.354   1.310  11.487  0.3417  0.7601 -0.2817
 8309TIP3    H149122   0.264   1.296  11.517  0.3667  1.0767 -0.0557
 8309TIP3    H249123   0.349   1.388  11.432  0.6224  1.2739  0.4078
 8310TIP3   OH249124   7.655   5.769  13.181 -0.4824 -0.4520  0.4069
 8310TIP3    H149125   7.661   5.738  13.090 -0.1637  1.6200 -0.3394
 8310TIP3    H249126   7.602   5.848  13.175  2.0590  1.4905  1.5002
 8311TIP3   OH249127   6.367   5.306  11.813 -0.5763  0.4202 -0.1593
 8311TIP3    H149128   6.413   5.307  11.729 -1.5199 -2.3003 -0.8068
 8311TIP3    H249129   6.275   5.297  11.788 -0.9092  0.0379  1.1726
 8312TIP3   OH249130   1.968   7.655  12.429 -0.4646  0.5138 -0.0384
 8312TIP3    H149131   2.020   7.706  12.491  0.1606 -0.8427  0.5826
 8312TIP3    H249132   2.031   7.621  12.366 -0.6465 -0.6614  0.3870
 8313TIP3   OH249133   5.036   7.129  12.159 -0.3862 -0.4483 -0.2889
 8313TIP3    H149134   5.102   7.061  12.175 -0.7241 -0.7275 -0.0440
 8313TIP3    H249135   4.958   7.097  12.204 -0.8316 -0.3575 -0.9755
 8314TIP3   OH249136   7.856   8.155  12.976 -0.0907 -0.0633  0.1159
 8314TIP3    H149137   7.784   8.215  12.994 -0.1904 -0.7617  2.2966
 8314TIP3    H249138   7.922   8.176  13.042  0.3367 -1.5796  0.2104
 8315TIP3   OH249139   5.633   5.845  11.597  0.1238  0.0709 -0.0505
 8315TIP3    H149140   5.569   5.800  11.652 -0.0041  2.2936  1.8128
 8315TIP3    H249141   5.713   5.794  11.606 -0.0748  0.0199  1.7574
 8316TIP3   OH249142   3.398   1.975  12.781  0.0066 -0.3013  0.1726
 8316TIP3    H149143   3.397   2.001  12.689 -1.5452 -1.1170 -0.0794
 8316TIP3    H249144   3.457   1.900  12.784 -1.2797 -1.3786 -0.5217
 8317TIP3   OH249145   3.750   6.802  12.126  0.5738 -0.3342  0.2188
 8317TIP3    H149146   3.670   6.852  12.109  1.0279  0.0434 -0.9657
 8317TIP3    H249147   3.720   6.718  12.159 -0.2365  0.4096  1.4204
 8318TIP3   OH249148   6.988   0.081  11.681  0.5990  0.7641  0.0291
 8318TIP3    H149149   7.073   0.118  11.705  0.4357  0.9364  0.3483
 8318TIP3    H249150   6.952   0.142  11.618  0.7923  0.5944 -0.2474
 8319TIP3   OH249151   4.922   8.351  12.478 -0.1570  0.1750 -0.3538
 8319TIP3    H149152   4.979   8.302  12.538 -1.8568  0.7091  1.8310
 8319TIP3    H249153   4.871   8.283  12.433  0.3371 -0.1988 -0.3617
 8320TIP3   OH249154   1.422   6.720  11.860  0.1226 -0.2498  0.1385
 8320TIP3    H149155   1.467   6.709  11.776 -1.6414 -0.3735 -0.8269
 8320TIP3    H249156   1.418   6.815  11.872  0.3661 -0.2310  0.0931
 8321TIP3   OH249157   6.129   5.817  13.169  0.3777  0.1563  0.3736
 8321TIP3    H149158   6.073   5.888  13.199 -0.9008 -0.3780 -0.6097
 8321TIP3    H249159   6.067   5.748  13.144  1.3600  0.1226 -2.2788
 8322TIP3   OH249160   5.216   8.007  13.110  0.0462 -0.2821 -0.0718
 8322TIP3    H149161   5.205   7.912  13.118  2.7159 -0.6350  0.1121
 8322TIP3    H249162   5.232   8.037  13.200  2.6843 -0.2239 -0.5002
 8323TIP3   OH249163   2.462   1.878  11.628 -0.2693  0.6101  0.0616
 8323TIP3    H149164   2.411   1.954  11.656  0.6970  2.4600 -2.7537
 8323TIP3    H249165   2.397   1.810  11.612 -1.6215  2.0618 -0.9232
 8324TIP3   OH249166   7.596   6.517  13.205 -0.6625 -0.6468 -0.0184
 8324TIP3    H149167   7.553   6.585  13.154  1.9004  0.0127 -1.4733
 8324TIP3    H249168   7.573   6.435  13.161  3.6133  0.0301 -4.3516
 8325TIP3   OH249169   1.910   6.715  12.902 -0.4471  0.3534  0.4852
 8325TIP3    H149170   2.000   6.683  12.892 -0.8445 -0.3213 -1.4999
 8325TIP3    H249171   1.875   6.668  12.977  0.5121 -0.2289  0.5807
 8326TIP3   OH249172   4.200   1.811  13.619 -0.2563 -0.1498 -0.2758
 8326TIP3    H149173   4.139   1.825  13.691 -0.2273  0.6267 -0.3888
 8326TIP3    H249174   4.282   1.852  13.649 -0.2840  0.3008 -0.7959
 8327TIP3   OH249175   6.657   5.374  12.499 -0.0028  0.1220 -0.1020
 8327TIP3    H149176   6.727   5.389  12.435 -0.5129 -0.4662 -0.8189
 8327TIP3    H249177   6.698   5.320  12.566  0.3689  0.2173 -0.2429
 8328TIP3   OH249178   6.195   5.178  11.563 -0.0614  0.2642  0.3845
 8328TIP3    H149179   6.215   5.100  11.512  1.4199  0.8414  0.0232
 8328TIP3    H249180   6.104   5.166  11.592  0.2715 -1.7528  0.6827
 8329TIP3   OH249181   0.366   4.446  12.276 -0.0312  0.1909  0.1938
 8329TIP3    H149182   0.285   4.430  12.323 -0.5922  0.1473 -0.7621
 8329TIP3    H249183   0.357   4.398  12.194  0.6210  0.8306 -0.2736
 8330TIP3   OH249184   7.291   4.440  12.361  0.9310  0.3394 -0.2015
 8330TIP3    H149185   7.219   4.400  12.313  0.5948  0.5076  0.1564
 8330TIP3    H249186   7.340   4.366  12.397  1.4665  0.1932 -1.1886
 8331TIP3   OH249187   8.433   0.250  11.509  0.1414  0.0106  0.0621
 8331TIP3    H149188   8.516   0.216  11.474  1.0693 -0.2346  2.3197
 8331TIP3    H249189   8.420   0.334  11.465  0.4118 -0.9309 -1.9354
 8332TIP3   OH249190   6.095   3.843  11.323  0.2968  0.1801 -0.9271
 8332TIP3    H149191   6.049   3.846  11.239 -0.3888  1.6083 -0.5430
 8332TIP3    H249192   6.097   3.935  11.352  2.2636 -0.0224 -0.3035
 8333TIP3   OH249193   4.693   5.507  12.126  0.4356 -0.5878 -0.1266
 8333TIP3    H149194   4.714   5.414  12.116 -2.2585 -1.2574 -0.4291
 8333TIP3    H249195   4.631   5.509  12.199  0.7582  1.0393  0.1324
 8334TIP3   OH249196   6.884   1.607  11.824  0.3641  0.3556  0.2717
 8334TIP3    H149197   6.963   1.558  11.803  0.0221  1.2398 -3.9269
 8334TIP3    H249198   6.913   1.698  11.831 -0.2767  0.8725 -2.5551
 8335TIP3   OH249199   5.626   0.116  13.344 -0.3234 -0.2983  0.7581
 8335TIP3    H149200   5.569   0.179  13.387  0.6623 -0.7396  2.8096
 8335TIP3    H249201   5.637   0.045  13.407  0.6733 -1.3026 -0.4773
 8336TIP3   OH249202   4.697   2.871  17.664  0.6846  0.2162 -0.0370
 8336TIP3    H149203   4.788   2.862  17.635  0.9920 -0.8559  1.1718
 8336TIP3    H249204   4.658   2.786  17.645  0.4268  0.0793  1.0804
 8337TIP3   OH249205   0.714   6.672  11.823  0.4648 -0.4319  0.3638
 8337TIP3    H149206   0.688   6.764  11.824  0.8430 -0.2722 -1.3153
 8337TIP3    H249207   0.633   6.624  11.843 -0.6091  0.1637 -2.1589
 8338TIP3   OH249208   4.637   7.531  12.548  0.3146 -0.3656  0.2530
 8338TIP3    H149209   4.728   7.534  12.578 -0.0819  0.3273  1.4711
 8338TIP3    H249210   4.640   7.484  12.465  1.7306 -0.6952  0.4702
 8339TIP3   OH249211   1.098   8.224  11.560  0.3190  0.1867 -0.4519
 8339TIP3    H149212   1.059   8.137  11.572 -1.6467  0.9853 -0.7126
 8339TIP3    H249213   1.146   8.240  11.641 -0.4042 -0.5973  0.1430
 8340TIP3   OH249214   5.101   3.091  12.388 -0.0914  0.0584  0.3106
 8340TIP3    H149215   5.067   3.180  12.389 -0.5049 -0.1014  0.9183
 8340TIP3    H249216   5.025   3.036  12.406  0.1579 -0.4195 -0.0727
 8341TIP3   OH249217   0.235   0.082  11.994  0.5706 -0.9355  0.9745
 8341TIP3    H149218   0.174   0.008  11.994  1.0102 -1.3050  0.3445
 8341TIP3    H249219   0.267   0.087  11.904 -1.0564  1.3819  0.4405
 8342TIP3   OH249220   4.279   0.878  12.512  0.0685  0.0587 -0.5972
 8342TIP3    H149221   4.201   0.823  12.523 -1.0624  1.5298 -0.9862
 8342TIP3    H249222   4.319   0.880  12.599 -2.1461  1.8540  0.4966
 8343TIP3   OH249223   3.628   0.980  13.124 -0.0371 -0.0196 -0.1175
 8343TIP3    H149224   3.694   0.943  13.183  1.7642  0.6901 -1.5591
 8343TIP3    H249225   3.553   0.922  13.133  0.0847  0.1368  2.9064
 8344TIP3   OH249226   6.639   6.094  12.488 -0.5818  0.1147  0.0426
 8344TIP3    H149227   6.720   6.049  12.512 -1.0422 -0.1435  1.1611
 8344TIP3    H249228   6.589   6.028  12.441 -0.7192 -0.1621  0.5686
 8345TIP3   OH249229   6.715   7.537  13.850 -0.0338  0.1862  0.0503
 8345TIP3    H149230   6.810   7.537  13.845  0.0383  0.6364  1.1209
 8345TIP3    H249231   6.694   7.460  13.904 -0.2638  0.2089 -0.0047
 8346TIP3   OH249232   1.126   5.024  12.641 -0.4377  0.3392  0.1603
 8346TIP3    H149233   1.133   5.021  12.546  1.6649 -0.4964  0.2858
 8346TIP3    H249234   1.045   4.976  12.660 -1.1140  0.8842 -1.1940
 8347TIP3   OH249235   3.795   4.521  12.287 -0.6372  0.2403 -0.1176
 8347TIP3    H149236   3.761   4.488  12.370 -3.4564  1.5165 -0.6318
 8347TIP3    H249237   3.833   4.606  12.308  0.0441 -0.1138  0.0915
 8348TIP3   OH249238   5.024   2.582  18.263 -0.9836 -0.2769  0.0335
 8348TIP3    H149239   5.016   2.677  18.268 -0.4824 -0.1760 -0.8422
 8348TIP3    H249240   5.078   2.558  18.338  0.3406  0.3369 -0.6824
 8349TIP3   OH249241   3.384   5.972  12.546 -0.1229 -0.3113 -0.1545
 8349TIP3    H149242   3.460   5.992  12.491  1.1599  0.3605  1.7751
 8349TIP3    H249243   3.326   5.923  12.488  0.2347  1.9927 -2.7175
 8350TIP3   OH249244   3.640   1.297  11.580  0.4578  0.7796  0.1014
 8350TIP3    H149245   3.665   1.206  11.590  2.2617  1.1819 -0.3483
 8350TIP3    H249246   3.553   1.303  11.619 -0.7274 -1.6115 -1.8822
 8351TIP3   OH249247   7.866   5.440  13.549 -0.3829 -0.1583  0.3988
 8351TIP3    H149248   7.813   5.390  13.487  1.3943 -0.1374 -1.2285
 8351TIP3    H249249   7.815   5.519  13.565 -0.8880 -0.1328 -1.1250
 8352TIP3   OH249250   7.785   0.003  13.045  0.6118 -0.1206  0.7528
 8352TIP3    H149251   7.861   0.037  12.998  0.5205 -0.1737  0.5642
 8352TIP3    H249252   7.710   0.040  12.999  0.5252  0.2206  1.1595
 8353TIP3   OH249253   8.292   1.362  12.461 -0.1791 -0.2962  0.4215
 8353TIP3    H149254   8.218   1.400  12.414  0.1935 -0.8609 -0.6424
 8353TIP3    H249255   8.271   1.376  12.554 -0.5628  1.4991  0.0907
 8354TIP3   OH249256   3.458   6.581  12.043 -0.5114 -0.4365  0.1489
 8354TIP3    H149257   3.483   6.641  12.113 -1.5326 -1.1584  1.1737
 8354TIP3    H249258   3.371   6.549  12.068 -1.1203 -0.3678 -1.6880
 8355TIP3   OH249259   6.773   1.217  12.457  0.0477  0.2152  0.6274
 8355TIP3    H149260   6.777   1.134  12.409 -1.8247  0.3836  0.1277
 8355TIP3    H249261   6.685   1.250  12.441  0.0085  1.2271  2.6525
 8356TIP3   OH249262   1.130   3.649  12.572 -0.3005 -0.0353  0.6637
 8356TIP3    H149263   1.147   3.572  12.518 -0.4051 -0.1470  0.7892
 8356TIP3    H249264   1.217   3.677  12.601 -0.1110  0.8288 -0.6508
 8357TIP3   OH249265   5.468   8.026  12.653 -0.6367  0.3576 -0.0119
 8357TIP3    H149266   5.498   8.054  12.740 -1.1252 -0.2619  0.3608
 8357TIP3    H249267   5.381   7.989  12.668  0.0654 -1.5625 -0.4376
 8358TIP3   OH249268   4.730   1.584  11.826  0.1328  0.4412 -0.3097
 8358TIP3    H149269   4.815   1.602  11.866 -0.4085 -1.0322  1.7133
 8358TIP3    H249270   4.730   1.489  11.813 -1.9624  0.0455  1.8498
 8359TIP3   OH249271   1.200   5.311  12.425  0.2873 -0.2992 -0.1858
 8359TIP3    H149272   1.233   5.236  12.376 -1.3735 -1.1669 -0.0486
 8359TIP3    H249273   1.221   5.291  12.516  0.1164 -0.4515 -0.1792
 8360TIP3   OH249274   5.750   4.689  13.110  0.3327 -0.4572 -0.2724
 8360TIP3    H149275   5.685   4.618  13.109 -0.8825  0.5753 -2.2581
 8360TIP3    H249276   5.698   4.768  13.127  1.4931  0.1130  0.7587
 8361TIP3   OH249277   2.801   8.056  12.960 -0.4769 -0.5015  0.0373
 8361TIP3    H149278   2.739   8.052  12.888 -1.2010 -2.4134  0.7183
 8361TIP3    H249279   2.887   8.054  12.917 -0.7128  3.1725 -0.9711
 8362TIP3   OH249280   0.139   0.552  12.981 -1.1718 -0.7569  0.2477
 8362TIP3    H149281   0.137   0.517  12.892 -1.7615  0.4757 -0.2457
 8362TIP3    H249282   0.075   0.623  12.981 -1.9389 -1.3874  1.9492
 8363TIP3   OH249283   2.345   6.675  13.131 -0.0722  0.5222  0.3979
 8363TIP3    H149284   2.441   6.671  13.123 -0.0948 -1.2314  0.5437
 8363TIP3    H249285   2.326   6.626  13.211 -1.1222  0.3066  0.0288
 8364TIP3   OH249286   3.020   6.304  12.027 -0.0200  0.2165  0.1907
 8364TIP3    H149287   2.973   6.254  12.094 -1.6699 -1.6112 -2.1526
 8364TIP3    H249288   3.091   6.246  11.999 -0.9764 -0.2612 -1.4253
 8365TIP3   OH249289   4.811   6.957  12.277 -0.0296  0.1984  0.0450
 8365TIP3    H149290   4.779   6.896  12.344  0.5050 -1.2839 -0.9895
 8365TIP3    H249291   4.732   7.001  12.245 -0.7795 -1.5482 -0.6654
 8366TIP3   OH249292   0.849   6.232  13.617  0.1032 -0.2079  0.7586
 8366TIP3    H149293   0.846   6.272  13.704  1.0188  0.4459  0.5071
 8366TIP3    H249294   0.903   6.153  13.629  1.0558  0.3999  0.6063
 8367TIP3   OH249295   2.881   1.329  12.745 -0.0532  0.0350 -0.6092
 8367TIP3    H149296   2.852   1.392  12.679 -2.3966 -0.1878  0.1368
 8367TIP3    H249297   2.951   1.375  12.791 -0.7986  1.5874 -0.9468
 8368TIP3   OH249298   7.552   0.117  12.919 -0.4571 -0.3687  0.5481
 8368TIP3    H149299   7.587   0.197  12.879 -0.1380 -0.1372  1.2758
 8368TIP3    H249300   7.516   0.067  12.846 -0.0470  0.1336 -0.0037
 8369TIP3   OH249301   7.952   2.522  12.881  0.1782  0.1728 -0.8292
 8369TIP3    H149302   7.898   2.589  12.924  1.8653  0.2740  1.3159
 8369TIP3    H249303   7.910   2.439  12.904  0.3912  0.2968  0.0627
 8370TIP3   OH249304   1.858   5.487  13.572 -0.2005  0.3300 -0.6400
 8370TIP3    H149305   1.936   5.507  13.622 -0.6700 -0.5201  0.4626
 8370TIP3    H249306   1.785   5.517  13.627 -0.9978 -4.3070  1.3091
 8371TIP3   OH249307   5.676   5.636  11.789 -0.0901 -0.5564  0.0789
 8371TIP3    H149308   5.682   5.574  11.717  1.3193  0.4244 -0.6992
 8371TIP3    H249309   5.600   5.606  11.840  0.7376 -3.0960 -0.0476
 8372TIP3   OH249310   6.883   5.435  12.337  0.8496 -0.0898 -0.4846
 8372TIP3    H149311   6.907   5.355  12.291  2.4377  0.7344 -1.1660
 8372TIP3    H249312   6.878   5.502  12.269 -2.0305  0.1383 -0.1523
 8373TIP3   OH249313   7.639   3.388  11.472 -0.1106 -0.1255 -0.1008
 8373TIP3    H149314   7.555   3.343  11.470  0.5161 -1.3497 -1.9107
 8373TIP3    H249315   7.697   3.332  11.421  2.4678 -0.5111  2.9381
 8374TIP3   OH249316   0.784   6.015  13.915  0.1193  0.0864  0.0013
 8374TIP3    H149317   0.701   5.982  13.949  0.0229  0.9727  0.6401
 8374TIP3    H249318   0.845   5.941  13.926 -1.1723 -1.6704 -3.1625
 8375TIP3   OH249319   3.925   8.170  13.160 -0.4335  0.3638  0.0472
 8375TIP3    H149320   3.971   8.109  13.102 -1.3440 -0.2963 -0.0093
 8375TIP3    H249321   3.971   8.163  13.244  0.5844  0.9558 -0.4480
 8376TIP3   OH249322   3.467   1.905  11.504 -0.5336 -0.6085 -0.3662
 8376TIP3    H149323   3.420   1.868  11.579  0.8378 -0.5013  0.5758
 8376TIP3    H249324   3.518   1.977  11.541  0.9157 -1.1574 -1.2126
 8377TIP3   OH249325   4.427   7.465  12.151  0.1402  0.3924 -0.0077
 8377TIP3    H149326   4.477   7.546  12.154  1.3690 -0.3455  0.1082
 8377TIP3    H249327   4.464   7.416  12.077  1.1588 -1.1291  1.4428
 8378TIP3   OH249328   1.771   6.651  12.673 -0.5034 -0.0191  0.1749
 8378TIP3    H149329   1.794   6.686  12.759  0.1312 -0.5656  0.2330
 8378TIP3    H249330   1.736   6.726  12.625 -0.1605  0.4530  0.6579
 8379TIP3   OH249331   6.286   0.940  12.053  0.2241 -0.0427 -0.2709
 8379TIP3    H149332   6.223   0.871  12.034 -0.2113  0.2735  0.0048
 8379TIP3    H249333   6.303   0.980  11.967  0.4772 -0.4843 -0.4300
 8380TIP3   OH249334   2.848   7.507  12.333  0.9331 -0.4901  0.9701
 8380TIP3    H149335   2.847   7.474  12.422  1.7824  1.9489  1.9845
 8380TIP3    H249336   2.923   7.567  12.331  0.9276 -0.4820 -1.3811
 8381TIP3   OH249337   7.116   6.697  13.127 -0.4509  0.2332  0.0864
 8381TIP3    H149338   7.022   6.677  13.131 -0.6196  0.5548 -1.4566
 8381TIP3    H249339   7.127   6.738  13.041  0.8031  1.8334  0.9615
 8382TIP3   OH249340   7.138   8.114  12.086 -0.2866 -0.4929  0.0040
 8382TIP3    H149341   7.226   8.153  12.087 -0.0521 -1.0161  0.4113
 8382TIP3    H249342   7.138   8.060  12.007  0.0218 -1.0542  0.3754
 8383TIP3   OH249343   4.177   7.080  12.439 -0.1695 -0.4747  0.0320
 8383TIP3    H149344   4.138   7.002  12.401  0.4360 -0.8454  0.1557
 8383TIP3    H249345   4.194   7.138  12.365 -0.2776 -0.6173 -0.1018
 8384TIP3   OH249346   7.486   5.064  11.728 -0.0341 -0.5019 -0.2670
 8384TIP3    H149347   7.579   5.068  11.750 -0.4294 -0.9254  1.7280
 8384TIP3    H249348   7.456   5.155  11.732 -0.0641 -0.5456  1.0130
 8385TIP3   OH249349   2.315   7.106  13.060 -0.3174 -0.3691 -0.3668
 8385TIP3    H149350   2.301   7.173  12.993 -0.8116  1.4546  1.4643
 8385TIP3    H249351   2.402   7.126  13.095 -1.4395  0.9413  1.8581
 8386TIP3   OH249352   4.635   7.494  12.971  0.4272 -1.0577  0.1024
 8386TIP3    H149353   4.615   7.402  12.952  0.0049 -1.1800  1.0702
 8386TIP3    H249354   4.697   7.491  13.044 -1.0002 -0.5697  1.3978
 8387TIP3   OH249355   7.247   1.160  12.471  0.1822 -0.5636 -0.0781
 8387TIP3    H149356   7.267   1.110  12.392  1.6175  0.9058 -0.7141
 8387TIP3    H249357   7.308   1.127  12.537  0.0282 -0.7569 -0.0343
 8388TIP3   OH249358   3.418   3.323  11.933 -0.6271  0.2006 -0.6769
 8388TIP3    H149359   3.502   3.287  11.903 -0.4015  1.5107 -1.7037
 8388TIP3    H249360   3.366   3.245  11.956 -0.3306 -0.8662 -3.2464
 8389TIP3   OH249361   1.263   6.200  12.787 -0.2632 -0.1551  0.3151
 8389TIP3    H149362   1.194   6.264  12.771  0.4269  0.3319 -0.8722
 8389TIP3    H249363   1.292   6.216  12.876 -2.7718 -1.4556  1.4742
 8390TIP3   OH249364   0.811   2.479  13.525 -0.6693  0.0803 -0.3351
 8390TIP3    H149365   0.792   2.422  13.599  1.7932  0.1293  0.4212
 8390TIP3    H249366   0.760   2.559  13.543 -1.5799 -0.6224  0.2901
 8391TIP3   OH249367   6.262   3.952  12.061  0.6749  0.0991  0.6543
 8391TIP3    H149368   6.344   4.000  12.050  0.9053 -0.3526  0.3130
 8391TIP3    H249369   6.257   3.896  11.983 -0.5805  1.0111  0.0556
 8392TIP3   OH249370   0.619   4.508  12.623  0.1283 -0.0306  0.1883
 8392TIP3    H149371   0.549   4.561  12.661 -0.9099  0.1425 -1.8409
 8392TIP3    H249372   0.640   4.551  12.540  1.4151 -1.0849 -0.0628
 8393TIP3   OH249373   3.926   0.896  11.956  0.3629  0.1507  0.3013
 8393TIP3    H149374   3.878   0.875  11.876 -0.5136  1.8460  0.3389
 8393TIP3    H249375   4.018   0.879  11.934  0.2671  1.6242 -1.4694
 8394TIP3   OH249376   4.380   5.162  12.415  0.1420  0.1757  0.3580
 8394TIP3    H149377   4.403   5.223  12.485  0.3021 -0.1114  0.5574
 8394TIP3    H249378   4.292   5.131  12.438 -0.2997  0.9703 -0.1941
 8395TIP3   OH249379   7.720   3.609  11.939  0.0632 -0.3992 -0.1256
 8395TIP3    H149380   7.682   3.683  11.892  0.3184  0.6083  1.2154
 8395TIP3    H249381   7.665   3.534  11.914 -0.1884  0.2173 -1.5095
 8396TIP3   OH249382   4.893   4.407  12.289  0.2234 -0.3118  0.1732
 8396TIP3    H149383   4.896   4.490  12.241  0.8863  0.5641  1.6728
 8396TIP3    H249384   4.972   4.361  12.261 -0.6826 -0.9419 -1.4724
 8397TIP3   OH249385   3.744   0.313  13.474  0.2157 -0.3077  0.5886
 8397TIP3    H149386   3.665   0.367  13.480 -0.7971 -1.1972 -2.5494
 8397TIP3    H249387   3.726   0.237  13.528 -1.3485 -0.7263 -0.4647
 8398TIP3   OH249388   4.947   7.882  12.888 -0.8334 -0.1730 -0.4521
 8398TIP3    H149389   4.969   7.969  12.855  1.9775  0.0705  1.7345
 8398TIP3    H249390   4.904   7.898  12.972  2.4338 -0.7596  1.4901
 8399TIP3   OH249391   2.753   2.202  12.932 -0.0512  0.5415 -0.3026
 8399TIP3    H149392   2.710   2.176  13.013 -0.1841 -0.3672 -0.6554
 8399TIP3    H249393   2.846   2.202  12.953 -0.0793  0.1873 -0.1872
 8400TIP3   OH249394   6.192   0.446  12.282  0.1737  0.4897  0.2299
 8400TIP3    H149395   6.163   0.422  12.370  1.9891 -0.8116  0.5414
 8400TIP3    H249396   6.114   0.480  12.239 -1.4994 -1.6443  1.3757
 8401TIP3   OH249397   1.382   7.010  12.937 -0.1078 -0.1182  0.0057
 8401TIP3    H149398   1.323   6.996  12.863  0.8264 -0.1499 -0.7405
 8401TIP3    H249399   1.436   6.932  12.941  0.9753  0.5954 -0.3325
 8402TIP3   OH249400   0.523   1.151  11.681  0.0074 -0.0327  0.7108
 8402TIP3    H149401   0.555   1.214  11.745  0.3017 -1.4754  2.0315
 8402TIP3    H249402   0.472   1.203  11.619 -0.5896  1.3518  2.3128
 8403TIP3   OH249403   2.835   2.225  12.544 -0.5692  0.4913  0.2676
 8403TIP3    H149404   2.773   2.177  12.489  0.7366 -0.3865 -0.4859
 8403TIP3    H249405   2.850   2.169  12.619 -1.2093  1.0194  0.7975
 8404TIP3   OH249406   1.757   2.474  13.086  0.1987  0.6557 -0.1990
 8404TIP3    H149407   1.711   2.512  13.011 -0.2628  0.2266 -0.1396
 8404TIP3    H249408   1.832   2.532  13.101 -1.8079  3.0388  1.4335
 8405TIP3   OH249409   8.163   6.330  12.877  0.7981 -0.1766  0.0003
 8405TIP3    H149410   8.159   6.423  12.853  0.1236 -0.1340  0.2694
 8405TIP3    H249411   8.076   6.310  12.910  0.7171 -1.0929 -0.7188
 8406TIP3   OH249412   1.503   5.885  12.721  0.0055  0.7826 -0.3479
 8406TIP3    H149413   1.560   5.959  12.701  0.2122  0.1300 -2.4046
 8406TIP3    H249414   1.451   5.873  12.641 -0.7358 -0.6466  0.3230
 8407TIP3   OH249415   5.502   5.218  13.109 -0.5208  0.2069  0.3524
 8407TIP3    H149416   5.459   5.192  13.191  0.9687  0.9581  1.4245
 8407TIP3    H249417   5.595   5.226  13.133  0.0073  0.0647 -1.5197
 8408TIP3   OH249418   7.048   8.083  13.665  0.5773  0.0651 -0.2297
 8408TIP3    H149419   7.141   8.062  13.657  0.3922 -0.7395 -0.3590
 8408TIP3    H249420   7.024   8.052  13.753  0.2029 -0.6925 -0.5835
 8409TIP3   OH249421   1.870   5.634  11.799  0.1009 -0.1484 -0.0285
 8409TIP3    H149422   1.951   5.596  11.835 -0.1871 -1.5770 -0.8506
 8409TIP3    H249423   1.818   5.656  11.876  0.7208 -0.4384  0.4841
 8410TIP3   OH249424   0.723   2.982  12.871  0.3515 -0.1803 -0.0841
 8410TIP3    H149425   0.777   3.051  12.910  0.0129  0.0910 -0.0977
 8410TIP3    H249426   0.635   3.018  12.868  0.1639 -0.6247 -0.0637
 8411TIP3   OH249427   3.328   6.784  11.614  0.1267  1.0628  0.0760
 8411TIP3    H149428   3.319   6.863  11.559  1.4101  1.0498 -0.1929
 8411TIP3    H249429   3.308   6.712  11.555 -1.1295  1.1793  0.3429
 8412TIP3   OH249430   2.714   1.970  11.624 -0.5062 -0.3335  0.6142
 8412TIP3    H149431   2.735   1.963  11.531  2.3280 -1.7647  1.2468
 8412TIP3    H249432   2.627   1.930  11.632 -1.4177  1.0482 -1.5499
 8413TIP3   OH249433   1.795   4.515  12.214  0.3979  0.2193 -0.6179
 8413TIP3    H149434   1.789   4.440  12.155  0.9715 -0.3231  0.0065
 8413TIP3    H249435   1.808   4.590  12.155 -1.0922 -0.0221 -1.2961
 8414TIP3   OH249436   6.322   4.693  11.929 -0.0161 -0.0573 -0.0454
 8414TIP3    H149437   6.267   4.753  11.880 -1.2267 -1.5612 -0.5973
 8414TIP3    H249438   6.267   4.616  11.945  0.6360 -0.0457  2.8407
 8415TIP3   OH249439   5.204   8.176  13.636 -0.2904 -0.1096  0.0814
 8415TIP3    H149440   5.128   8.231  13.655  0.2751  0.4877  0.6411
 8415TIP3    H249441   5.240   8.212  13.555 -0.6291 -0.4291 -0.2150
 8416TIP3   OH249442   3.591   6.077  11.920  0.7897  0.3822  0.2222
 8416TIP3    H149443   3.530   6.068  11.994 -0.6554  1.1339 -0.8142
 8416TIP3    H249444   3.544   6.037  11.846  1.6188  0.8676 -0.5787
 8417TIP3   OH249445   7.840   1.543  12.123  0.0722  0.1483  0.0072
 8417TIP3    H149446   7.898   1.508  12.056 -3.0430  0.1022 -2.9103
 8417TIP3    H249447   7.880   1.626  12.149  2.6045 -0.9649  0.0163
 8418TIP3   OH249448   7.938   3.524  11.624 -0.0439  0.0690 -0.3217
 8418TIP3    H149449   7.929   3.618  11.633  0.5048  0.3302 -2.0599
 8418TIP3    H249450   7.870   3.499  11.561  1.2650 -0.2982 -1.6467
 8419TIP3   OH249451   2.776   0.555  11.927 -0.4661  0.2531  0.4266
 8419TIP3    H149452   2.848   0.536  11.987 -0.9395 -1.4017  0.5255
 8419TIP3    H249453   2.815   0.610  11.859  0.7050  0.0219  0.8904
 8420TIP3   OH249454   8.043   8.414  12.160  0.1876 -0.0261  0.1532
 8420TIP3    H149455   7.955   8.378  12.170  0.5274 -1.3020 -1.0965
 8420TIP3    H249456   8.032   8.489  12.102 -0.1281  0.1200  0.3981
 8421TIP3   OH249457   7.841   2.271  12.928  0.6384  0.3432 -0.2990
 8421TIP3    H149458   7.835   2.186  12.884 -0.9006  1.6452 -2.8912
 8421TIP3    H249459   7.785   2.263  13.005 -0.1445 -0.7571 -0.9570
 8422TIP3   OH249460   2.059   2.237  11.879  0.5666 -0.0021  0.5541
 8422TIP3    H149461   2.024   2.152  11.904  0.2541  0.6895  2.7635
 8422TIP3    H249462   1.982   2.287  11.850  0.8967 -0.7316 -1.7895
 8423TIP3   OH249463   3.295   1.459  12.691  0.6773 -0.4146  0.2139
 8423TIP3    H149464   3.213   1.478  12.647  0.2319 -0.5120  0.9928
 8423TIP3    H249465   3.270   1.412  12.771  1.3287  1.2231  1.4413
 8424TIP3   OH249466   4.713   4.737  13.015  0.1881 -0.2470 -0.6862
 8424TIP3    H149467   4.710   4.665  13.078  2.0122 -1.2209 -1.6312
 8424TIP3    H249468   4.760   4.807  13.060  2.1942 -1.2229 -1.1334
 8425TIP3   OH249469   1.536   7.672  12.653 -0.9014  0.2451  0.4991
 8425TIP3    H149470   1.530   7.768  12.658  0.9235  0.8185 -3.6086
 8425TIP3    H249471   1.471   7.647  12.588  1.1999 -0.6676 -1.4019
 8426TIP3   OH249472   4.708   4.307  13.492  0.3118  0.6177 -0.0232
 8426TIP3    H149473   4.629   4.270  13.532  0.3238  0.1783 -0.3982
 8426TIP3    H249474   4.680   4.335  13.405  0.7192 -0.1702 -0.4199
 8427TIP3   OH249475   0.693   6.952  11.685  0.5321 -0.2553 -0.3532
 8427TIP3    H149476   0.674   7.043  11.662  1.3705  0.0816  0.2268
 8427TIP3    H249477   0.760   6.925  11.622  2.0352  0.3204  0.9318
 8428TIP3   OH249478   2.460   3.141  11.951 -0.1851 -0.4357 -0.1426
 8428TIP3    H149479   2.519   3.150  11.876 -1.1908 -2.8665 -1.3611
 8428TIP3    H249480   2.484   3.056  11.989 -2.0153 -0.8810  0.0880
 8429TIP3   OH249481   0.522   6.206  13.162 -0.3687  0.7879  0.1584
 8429TIP3    H149482   0.562   6.276  13.215 -1.5495  2.2812 -0.8621
 8429TIP3    H249483   0.503   6.247  13.078 -2.8649 -0.2118  0.1666
 8430TIP3   OH249484   6.949   3.742  13.418  0.0655  0.2231  0.0041
 8430TIP3    H149485   7.030   3.695  13.400 -0.5689 -1.4490  1.2826
 8430TIP3    H249486   6.977   3.831  13.440  1.5752 -0.3543  0.5527
 8431TIP3   OH249487   6.072   2.227  12.402 -0.2158  0.4603 -0.1729
 8431TIP3    H149488   6.164   2.239  12.377 -0.0598  0.7055  0.5104
 8431TIP3    H249489   6.027   2.304  12.367  0.1086  1.1113  0.8057
 8432TIP3   OH249490   3.875   6.981  12.297 -0.2679  0.0533  0.3214
 8432TIP3    H149491   3.865   6.913  12.230 -1.3594 -0.6512  1.1749
 8432TIP3    H249492   3.862   7.063  12.249  0.8583 -0.3028 -0.6819
 8433TIP3   OH249493   5.560   0.712  11.939  0.1519 -0.1215  0.3580
 8433TIP3    H149494   5.530   0.800  11.916 -0.1503  0.3693  2.4752
 8433TIP3    H249495   5.484   0.656  11.920  0.3520  0.0186 -1.0211
 8434TIP3   OH249496   0.022   6.018  13.129 -0.2759 -0.0630 -0.0353
 8434TIP3    H149497  -0.056   5.964  13.135 -0.0286 -0.5562 -1.1143
 8434TIP3    H249498  -0.011   6.108  13.126 -0.8081 -0.2681 -0.4514
 8435TIP3   OH249499   1.578   6.686  13.118  0.0897  0.3214 -0.4390
 8435TIP3    H149500   1.537   6.710  13.035 -3.7322 -1.7295  0.6530
 8435TIP3    H249501   1.570   6.765  13.172 -0.8561  0.5135 -0.8398
 8436TIP3   OH249502   3.807   6.819  12.522  0.1189 -0.4710 -0.3591
 8436TIP3    H149503   3.755   6.863  12.589  2.0177  1.4418 -0.0260
 8436TIP3    H249504   3.821   6.886  12.454  1.0115 -1.3269 -1.0507
 8437TIP3   OH249505   2.288   8.385  12.478  0.5690  0.1844 -0.1025
 8437TIP3    H149506   2.325   8.435  12.551 -3.5122  0.8702  1.7558
 8437TIP3    H249507   2.253   8.451  12.418 -1.5640 -0.2911  0.5231
 8438TIP3   OH249508   3.902   0.700  12.860 -0.1427  0.6021  0.5917
 8438TIP3    H149509   3.873   0.610  12.869  0.2230  0.3936 -0.2043
 8438TIP3    H249510   3.844   0.738  12.794  0.2118  0.7041  0.3304
 8439TIP3   OH249511   0.565   6.917  12.423  0.0658  0.0361  0.0564
 8439TIP3    H149512   0.589   6.980  12.355 -0.8984  0.1533 -0.1785
 8439TIP3    H249513   0.494   6.866  12.385  1.1336 -1.5195  0.0604
 8440TIP3   OH249514   6.732   4.719  11.898 -0.4654 -0.7460 -0.7556
 8440TIP3    H149515   6.700   4.798  11.854 -0.3759 -1.4035 -2.0440
 8440TIP3    H249516   6.824   4.713  11.873 -0.2858 -0.8751 -0.0791
 8441TIP3   OH249517   6.454   0.295  11.808 -0.1937  0.0970 -0.0326
 8441TIP3    H149518   6.487   0.209  11.783 -0.6589  0.4810 -2.1225
 8441TIP3    H249519   6.361   0.293  11.787 -0.4742  0.7235  1.0492
 8442TIP3   OH249520   0.266   1.001  11.738 -0.1603  0.3117  0.1045
 8442TIP3    H149521   0.360   1.019  11.737 -0.0565 -0.2045 -0.7110
 8442TIP3    H249522   0.241   1.003  11.646 -0.3354 -2.5233  0.0127
 8443TIP3   OH249523   7.676   4.022  12.293 -0.0655 -0.6351  0.0255
 8443TIP3    H149524   7.759   4.043  12.336  0.1559 -1.6117  0.1085
 8443TIP3    H249525   7.699   4.001  12.203 -0.3272 -0.1344 -0.1614
 8444TIP3   OH249526   7.641   6.994  12.616 -0.5872  0.7198  0.0100
 8444TIP3    H149527   7.579   7.026  12.550 -0.4795  0.4543 -0.2245
 8444TIP3    H249528   7.586   6.973  12.692 -1.6469 -4.1376 -1.7172
 8445TIP3   OH249529   0.158   0.370  12.689  0.2801  0.1718 -0.1574
 8445TIP3    H149530   0.101   0.441  12.659 -0.6611 -1.5181 -2.6459
 8445TIP3    H249531   0.182   0.323  12.609  0.6734 -2.4946  1.4189
 8446TIP3   OH249532   3.937   7.265  12.775  0.7098 -0.0956  0.2183
 8446TIP3    H149533   3.857   7.241  12.822  0.3794 -0.2579 -0.4145
 8446TIP3    H249534   3.935   7.211  12.696  1.1543  0.3218 -0.0829
 8447TIP3   OH249535   5.072   0.843  13.853  0.3329 -0.0433  0.2979
 8447TIP3    H149536   5.128   0.858  13.777  1.7893 -3.4588  0.4952
 8447TIP3    H249537   5.005   0.782  13.823  1.0342 -1.6002  1.6523
 8448TIP3   OH249538   7.039   7.425  11.254  0.5596  0.3183  0.0700
 8448TIP3    H149539   6.992   7.353  11.297  0.2144  0.5021  0.0049
 8448TIP3    H249540   7.110   7.383  11.207  1.2198  0.1479  1.1881
 8449TIP3   OH249541   0.434   0.491  12.819 -0.6883  0.7467 -0.2272
 8449TIP3    H149542   0.385   0.462  12.896 -1.9411  0.1466 -1.2232
 8449TIP3    H249543   0.469   0.410  12.781 -1.0748  0.9093 -0.9438
 8450TIP3   OH249544   6.438   4.415  13.151 -0.1647  0.5287 -0.4346
 8450TIP3    H149545   6.387   4.401  13.230 -1.7854  0.1525 -1.4946
 8450TIP3    H249546   6.475   4.328  13.131 -0.0685  0.5391 -0.3022
 8451TIP3   OH249547   0.200   7.002  12.508 -0.4365  0.2978  0.0146
 8451TIP3    H149548   0.147   6.988  12.430 -1.3102 -1.0019  0.7967
 8451TIP3    H249549   0.286   7.029  12.475 -0.5195 -1.0723 -1.4327
 8452TIP3   OH249550   7.665   5.956  12.009 -0.0133  0.1055 -0.5543
 8452TIP3    H149551   7.723   6.032  12.012 -0.2571  0.2740  0.0961
 8452TIP3    H249552   7.658   5.935  11.916  0.3769  0.6299 -0.7110
 8453TIP3   OH249553   1.394   5.987  13.700  0.0714 -0.2776 -0.2984
 8453TIP3    H149554   1.329   5.956  13.763  0.0240  1.5982  0.6271
 8453TIP3    H249555   1.401   5.915  13.636 -1.6009 -1.2466  0.5366
 8454TIP3   OH249556   2.781   2.855  11.938  0.2845  0.2177  0.4070
 8454TIP3    H149557   2.795   2.762  11.957  1.3593  0.0685 -0.9679
 8454TIP3    H249558   2.806   2.900  12.019  0.9496 -0.6082  0.6812
 8455TIP3   OH249559   1.028   1.287  11.816 -0.2303  0.0797  0.3910
 8455TIP3    H149560   0.954   1.343  11.837 -0.4493 -0.1199  0.1533
 8455TIP3    H249561   0.990   1.203  11.791  0.1234 -0.3894  1.3684
 8456TIP3   OH249562   2.951   3.895  12.840 -0.4126  0.0090  0.3103
 8456TIP3    H149563   2.996   3.851  12.768 -1.8588 -0.8789 -0.1016
 8456TIP3    H249564   2.916   3.975  12.802 -1.0798 -0.4051  0.0297
 8457TIP3   OH249565   8.434   4.560  12.037 -0.5691 -0.6626  0.3338
 8457TIP3    H149566   8.421   4.488  11.975  0.4824 -1.2371  0.7529
 8457TIP3    H249567   8.512   4.606  12.005 -0.8542 -0.0980  0.4376
 8458TIP3   OH249568   6.383   6.466  11.971 -0.3300  0.0203  0.0722
 8458TIP3    H149569   6.431   6.544  11.944  1.7920 -0.6971  1.5619
 8458TIP3    H249570   6.357   6.425  11.889 -0.1325  1.4604 -0.7486
 8459TIP3   OH249571   1.847   2.864  11.853 -0.3919  0.1109 -0.4003
 8459TIP3    H149572   1.913   2.883  11.920 -1.5515 -0.0325  0.8380
 8459TIP3    H249573   1.873   2.780  11.816  0.5861  0.4680 -0.5509
 8460TIP3   OH249574   3.821   8.295  12.709 -0.2939 -0.1534 -0.3555
 8460TIP3    H149575   3.841   8.321  12.799  1.0232  0.7890 -0.8688
 8460TIP3    H249576   3.787   8.375  12.669  2.5531  0.5922 -1.6061
 8461TIP3   OH249577   6.847   3.162  12.934 -0.1705  0.5500 -0.1696
 8461TIP3    H149578   6.804   3.191  12.854  0.1995 -1.0051 -0.9733
 8461TIP3    H249579   6.916   3.226  12.949 -0.4302  1.0208 -0.9171
 8462TIP3   OH249580   2.673   4.719  12.300 -0.1586  0.4795 -0.0221
 8462TIP3    H149581   2.591   4.678  12.274 -0.0865  0.0281  0.4546
 8462TIP3    H249582   2.739   4.681  12.242  0.0526 -0.7566  0.9929
 8463TIP3   OH249583   1.003   3.264  12.746 -0.0606 -0.4020  0.0157
 8463TIP3    H149584   0.994   3.222  12.832  2.0484  1.3467  1.1730
 8463TIP3    H249585   0.939   3.334  12.746  0.2706 -0.1000  0.3587
 8464TIP3   OH249586   6.847   7.915  12.861  0.0210  0.1483 -0.0382
 8464TIP3    H149587   6.917   7.959  12.910  0.3657  0.0576 -0.4403
 8464TIP3    H249588   6.809   7.854  12.924 -0.0297  0.5565  0.3330
 8465TIP3   OH249589   6.335   7.828  13.180  0.4501 -0.6113 -0.1883
 8465TIP3    H149590   6.356   7.901  13.122  0.3859 -1.0728 -0.8034
 8465TIP3    H249591   6.413   7.818  13.235  0.5292 -0.1995 -0.2213
 8466TIP3   OH249592   7.123   6.170  12.450  0.5772 -0.6355  0.3631
 8466TIP3    H149593   7.171   6.106  12.396  0.0578 -1.4171  0.8012
 8466TIP3    H249594   7.089   6.118  12.523 -2.1978 -0.4547 -0.6771
 8467TIP3   OH249595   2.408   6.186  11.881 -0.5997 -0.7078 -0.1289
 8467TIP3    H149596   2.492   6.202  11.836  0.1148 -2.4095  0.5184
 8467TIP3    H249597   2.424   6.107  11.933 -2.0852 -0.0509  1.3921
 8468TIP3   OH249598   1.006   1.381  12.124 -0.6141 -0.0903 -0.1964
 8468TIP3    H149599   1.039   1.458  12.077 -0.2029 -0.1534 -0.0125
 8468TIP3    H249600   0.924   1.360  12.079  0.7455 -1.3840 -2.2619
 8469TIP3   OH249601   7.499   8.038  12.166  0.6228  0.2653 -0.1521
 8469TIP3    H149602   7.558   7.962  12.161  1.8057  1.1991 -1.0767
 8469TIP3    H249603   7.466   8.037  12.256  4.4664  1.3741  1.4798
 8470TIP3   OH249604   7.419   4.453  12.674 -0.4676 -0.3472  0.0304
 8470TIP3    H149605   7.407   4.359  12.666 -2.1001 -0.1121 -0.7517
 8470TIP3    H249606   7.473   4.464  12.752 -1.1940 -1.8785  0.7940
 8471TIP3   OH249607   4.145   6.131  13.867  0.8703  0.3739  0.1367
 8471TIP3    H149608   4.174   6.062  13.807  0.8090 -0.2093  0.7743
 8471TIP3    H249609   4.198   6.118  13.946 -0.9459 -0.5887  1.2593
 8472TIP3   OH249610   6.394   1.077  12.904 -0.0275  0.3214  0.3949
 8472TIP3    H149611   6.324   1.099  12.843  0.7774  0.9579 -0.3298
 8472TIP3    H249612   6.354   1.016  12.966 -0.4945 -1.4947 -1.5834
 8473TIP3   OH249613   7.898   5.623  12.889 -0.4857  0.0873  0.5663
 8473TIP3    H149614   7.824   5.568  12.915  0.0212 -0.5008  0.8025
 8473TIP3    H249615   7.964   5.560  12.859  1.0713  0.3457  3.2223
 8474TIP3   OH249616   1.526   4.872  11.816  0.0278 -0.2302 -0.1165
 8474TIP3    H149617   1.436   4.900  11.833  0.2162  1.6719 -1.9318
 8474TIP3    H249618   1.517   4.789  11.769 -0.8552  0.6064 -1.4693
 8475TIP3   OH249619   1.571   7.950  11.888 -0.0149 -0.2424 -0.0780
 8475TIP3    H149620   1.495   7.925  11.836 -0.2344 -0.4976  0.3590
 8475TIP3    H249621   1.638   7.974  11.824 -0.0034 -1.3584 -0.4971
 8476TIP3   OH249622   3.579   2.754  12.251 -0.4146  0.7020 -0.2162
 8476TIP3    H149623   3.511   2.721  12.309  0.6089  0.3202  0.8005
 8476TIP3    H249624   3.556   2.845  12.236 -1.5644  0.3813 -0.5231
 8477TIP3   OH249625   3.612   5.675  12.427  0.4673  0.7141  0.7101
 8477TIP3    H149626   3.670   5.751  12.426  1.1732  0.2080  1.7411
 8477TIP3    H249627   3.557   5.688  12.504  1.4584 -0.4357  1.6401
 8478TIP3   OH249628   5.201   6.880  11.546  0.1123 -0.2502 -0.3140
 8478TIP3    H149629   5.158   6.927  11.618  1.0264  0.4059 -0.1869
 8478TIP3    H249630   5.144   6.896  11.470  0.7527  1.6615 -0.4352
 8479TIP3   OH249631   4.004   1.951  12.900 -0.1367  0.2900 -0.4310
 8479TIP3    H149632   3.978   1.860  12.918  1.4562 -0.2257 -0.4976
 8479TIP3    H249633   3.936   2.004  12.940 -1.2548 -0.9419 -0.6335
 8480TIP3   OH249634   5.830   5.659  13.777  0.0247  0.2409 -0.0537
 8480TIP3    H149635   5.745   5.701  13.780 -1.6385 -2.7533 -1.0361
 8480TIP3    H249636   5.864   5.679  13.690 -2.6618 -3.4421 -2.2602
 8481TIP3   OH249637   2.917   0.755  13.404 -0.0166  0.3380 -0.2631
 8481TIP3    H149638   2.836   0.799  13.430  0.1156  0.5426 -0.2004
 8481TIP3    H249639   2.986   0.803  13.449  0.1500  0.2344 -0.4096
 8482TIP3   OH249640   7.751   5.283  12.561 -0.2821 -0.5734  0.0264
 8482TIP3    H149641   7.696   5.286  12.483  3.0052 -0.9021 -2.5217
 8482TIP3    H249642   7.727   5.201  12.604  0.2095 -2.2498 -2.6651
 8483TIP3   OH249643   0.300   0.300  12.152  0.4236  0.6956 -0.0998
 8483TIP3    H149644   0.236   0.248  12.103  2.5863 -1.1203 -1.1360
 8483TIP3    H249645   0.318   0.375  12.094  1.6214 -0.4983 -1.3327
 8484TIP3   OH249646   7.986   0.176  12.003  0.1714  0.0200  0.0736
 8484TIP3    H149647   7.948   0.258  12.036  0.1249  0.0751 -0.1153
 8484TIP3    H249648   7.918   0.139  11.947 -0.2218 -0.6871  1.0022
 8485TIP3   OH249649   5.236   2.841  12.624  0.2471  0.3823 -0.0815
 8485TIP3    H149650   5.270   2.927  12.599 -0.0761  0.3852 -0.5087
 8485TIP3    H249651   5.186   2.858  12.704 -0.8685  0.8185 -0.8394
 8486TIP3   OH249652   0.087   1.695  11.795 -0.6881 -0.7882  0.3163
 8486TIP3    H149653  -0.002   1.722  11.816 -0.1042  2.0096 -0.4726
 8486TIP3    H249654   0.143   1.754  11.846  0.6926 -0.1151 -1.8652
 8487TIP3   OH249655   2.678   7.748  12.537  0.0573  0.0025  0.0882
 8487TIP3    H149656   2.631   7.756  12.454  2.0625 -0.0877 -1.1097
 8487TIP3    H249657   2.648   7.664  12.574 -0.1830 -0.4048 -1.0002
 8488TIP3   OH249658   7.797   5.034  11.633  0.4191 -0.6785  0.5683
 8488TIP3    H149659   7.870   5.047  11.692  0.8254  1.2112 -0.2969
 8488TIP3    H249660   7.836   4.996  11.554 -0.0311 -2.6139  1.2254
 8489TIP3   OH249661   0.167   5.685  13.456  0.0268 -0.1624  0.2861
 8489TIP3    H149662   0.127   5.620  13.514  0.3190 -0.8465 -0.2749
 8489TIP3    H249663   0.254   5.701  13.493  1.2519 -2.5227 -1.3535
 8490TIP3   OH249664   4.880   4.971  13.025  0.0552 -0.1509 -0.6402
 8490TIP3    H149665   4.972   4.997  13.030 -0.1300  0.3783  0.3920
 8490TIP3    H249666   4.839   5.014  13.101 -1.0319 -0.4088 -1.0620
 8491TIP3   OH249667   1.444   2.310  12.626 -0.3702  0.7686 -0.1306
 8491TIP3    H149668   1.402   2.300  12.712 -2.3822  0.4036 -1.0879
 8491TIP3    H249669   1.488   2.395  12.630 -0.6317  0.8609  1.1723
 8492TIP3   OH249670   2.511   4.356  11.956 -0.1391 -0.5467  0.4179
 8492TIP3    H149671   2.495   4.432  12.012  0.2093  0.0005 -0.2043
 8492TIP3    H249672   2.560   4.295  12.010 -0.2433 -0.2372  0.8631
 8493TIP3   OH249673   8.362   5.205  12.960 -0.2189 -0.0160  0.3396
 8493TIP3    H149674   8.313   5.149  12.900  0.4416  0.3492 -0.5690
 8493TIP3    H249675   8.360   5.292  12.918 -0.5848  0.4734  1.3446
 8494TIP3   OH249676   3.215   2.887  13.070  0.5938  0.2129 -0.4224
 8494TIP3    H149677   3.227   2.981  13.082  0.1049  0.2800 -0.4118
 8494TIP3    H249678   3.244   2.870  12.981 -0.0208  0.5114 -0.6870
 8495TIP3   OH249679   5.067   4.727  13.792  0.5291  0.1127  0.0278
 8495TIP3    H149680   5.058   4.640  13.832 -1.6351 -0.2813 -1.1296
 8495TIP3    H249681   5.038   4.788  13.859 -0.2099 -0.2838  0.0809
 8496TIP3   OH249682   0.260   1.445  12.531 -0.1928  0.3996  0.1569
 8496TIP3    H149683   0.268   1.415  12.441 -0.5980  0.0694  0.2300
 8496TIP3    H249684   0.291   1.372  12.584 -1.5400 -0.0572  0.3506
 8497TIP3   OH249685   4.266   1.875  13.334 -0.3084  0.1669  0.3081
 8497TIP3    H149686   4.218   1.818  13.273  1.0952  0.8259 -1.5148
 8497TIP3    H249687   4.223   1.862  13.418 -1.5386 -1.7638 -0.5486
 8498TIP3   OH249688   8.330   6.084  11.788  0.0255 -0.4152 -0.1203
 8498TIP3    H149689   8.400   6.091  11.852 -0.1121 -0.5137  0.0408
 8498TIP3    H249690   8.368   6.120  11.707 -0.2311  0.9721  0.3446
 8499TIP3   OH249691   6.757   4.627  13.337  0.0291  0.3750 -0.0623
 8499TIP3    H149692   6.756   4.677  13.418  0.5672  0.6744 -0.2362
 8499TIP3    H249693   6.802   4.545  13.360 -1.1929 -0.2086  0.3176
 8500TIP3   OH249694   6.242   7.102  11.986 -0.5991 -0.4213 -0.5068
 8500TIP3    H149695   6.205   7.182  12.024  0.6412 -0.2639  0.4319
 8500TIP3    H249696   6.240   7.118  11.891 -1.5472  0.1756 -0.3984
 8501TIP3   OH249697   6.959   7.321  11.646  0.4684 -0.3525  0.0948
 8501TIP3    H149698   6.908   7.353  11.571  2.0069 -1.3283 -1.4562
 8501TIP3    H249699   6.937   7.228  11.651 -0.5886 -0.0495  1.7211
 8502TIP3   OH249700   1.772   6.252  13.447 -0.0801 -0.3159  0.0551
 8502TIP3    H149701   1.736   6.196  13.516  0.7134 -0.2743  0.5084
 8502TIP3    H249702   1.760   6.341  13.479  0.3419 -0.2991  0.1648
 8503TIP3   OH249703   8.221   6.695  13.161 -0.0288  0.5802  0.1716
 8503TIP3    H149704   8.199   6.768  13.104 -0.9091 -0.3864 -0.7840
 8503TIP3    H249705   8.144   6.638  13.157  0.4475 -0.1749  1.2520
 8504TIP3   OH249706   1.466   7.933  12.717  0.2324  0.4642 -0.7182
 8504TIP3    H149707   1.378   7.909  12.746  1.0871 -0.1842  1.5051
 8504TIP3    H249708   1.462   8.028  12.705 -0.2997  0.7358  1.2634
 8505TIP3   OH249709   6.828   8.207  12.415  0.7039  0.5360 -0.3473
 8505TIP3    H149710   6.859   8.295  12.394 -1.2072  1.4031  0.2203
 8505TIP3    H249711   6.850   8.195  12.508 -3.8044  2.8057  1.3426
 8506TIP3   OH249712   6.865   6.667  12.786 -0.7042 -0.1416  0.3035
 8506TIP3    H149713   6.955   6.698  12.784 -1.1229  1.1952 -1.2320
 8506TIP3    H249714   6.850   6.631  12.698 -1.4505 -1.0227  0.7736
 8507TIP3   OH249715   3.131   1.637  13.196  0.2973  0.3285  0.1869
 8507TIP3    H149716   3.141   1.542  13.204  0.8662  0.3719 -0.0215
 8507TIP3    H249717   3.061   1.648  13.132  1.9125  0.0576 -1.7130
 8508TIP3   OH249718   7.606   1.727  12.571 -0.3344  0.0922 -0.1795
 8508TIP3    H149719   7.699   1.706  12.583 -0.8400 -2.7252 -0.5434
 8508TIP3    H249720   7.580   1.768  12.654  1.6160  2.9713 -0.8170
 8509TIP3   OH249721   8.360   4.418  13.513 -0.3285 -0.9695 -0.0150
 8509TIP3    H149722   8.280   4.441  13.560 -1.3148 -1.4720 -1.3940
 8509TIP3    H249723   8.429   4.463  13.562 -1.5451  0.3011  0.6355
 8510TIP3   OH249724   4.675   8.140  11.510  0.0006 -0.0435  0.4697
 8510TIP3    H149725   4.701   8.089  11.434 -0.5705  0.7428 -0.2656
 8510TIP3    H249726   4.589   8.106  11.534 -1.0645  1.5241 -0.9390
 8511TIP3   OH249727   6.350   1.878  13.537  0.0059 -0.4716 -0.0398
 8511TIP3    H149728   6.424   1.827  13.568  0.3459  0.0169 -0.0422
 8511TIP3    H249729   6.375   1.969  13.552  1.0889 -0.0490 -3.5278
 8512TIP3   OH249730   2.054   6.047  13.097  0.5476  0.4107  0.7740
 8512TIP3    H149731   2.116   6.090  13.037 -0.4106  0.5064 -0.1689
 8512TIP3    H249732   2.100   6.044  13.181  1.7153  0.7520  0.1667
 8513TIP3   OH249733   7.599   5.512  13.250  0.3031  0.2206 -0.4693
 8513TIP3    H149734   7.574   5.505  13.342 -0.0391 -0.3525 -0.6050
 8513TIP3    H249735   7.605   5.607  13.235  1.8359  0.3212  0.5239
 8514TIP3   OH249736   2.864   8.367  12.346  0.1478 -0.2144  0.2774
 8514TIP3    H149737   2.863   8.462  12.334 -2.1278 -0.2972 -0.6476
 8514TIP3    H249738   2.833   8.332  12.263  1.2470 -1.8134  0.5077
 8515TIP3   OH249739   8.180   2.556  12.376  0.3078  0.0419  0.5827
 8515TIP3    H149740   8.214   2.645  12.389  1.6303 -0.5347  1.2651
 8515TIP3    H249741   8.239   2.501  12.427 -0.3708 -1.2603 -0.0093
 8516TIP3   OH249742   6.635   3.009  12.111  0.1131 -0.3220  0.0183
 8516TIP3    H149743   6.583   3.050  12.180  2.1725  0.8992  0.9066
 8516TIP3    H249744   6.624   2.915  12.127 -1.5889 -0.1173  0.3109
 8517TIP3   OH249745   6.546   4.856  11.590 -0.2654 -0.4082  0.2535
 8517TIP3    H149746   6.603   4.883  11.518 -3.1160  0.5743 -1.8433
 8517TIP3    H249747   6.577   4.905  11.665  1.3557  0.4109 -0.8865
 8518TIP3   OH249748   7.979   6.835  13.925 -0.2296  0.2189  0.2458
 8518TIP3    H149749   7.958   6.751  13.965 -0.5969  0.4851  0.6226
 8518TIP3    H249750   7.960   6.823  13.832  0.1179 -0.2389  0.2317
 8519TIP3   OH249751   1.574   2.221  12.073  0.5324 -0.2551 -0.2102
 8519TIP3    H149752   1.572   2.278  12.150 -3.3175 -0.3749 -0.0184
 8519TIP3    H249753   1.584   2.133  12.109  1.0768 -0.1379 -0.0641
 8520TIP3   OH249754   4.843   5.509  11.336  0.2543 -0.2189 -0.5048
 8520TIP3    H149755   4.834   5.540  11.426  1.1946 -1.6822  0.1311
 8520TIP3    H249756   4.827   5.586  11.282  0.7297  0.9263  0.9459
 8521TIP3   OH249757   2.139   3.496  11.979 -0.7416 -0.6666 -0.2699
 8521TIP3    H149758   2.169   3.436  11.910 -1.3250 -1.0430 -0.2020
 8521TIP3    H249759   2.089   3.562  11.932 -0.2565 -0.3308 -0.3228
 8522TIP3   OH249760   6.790   4.310  13.182  0.0755 -0.2108 -0.7878
 8522TIP3    H149761   6.836   4.311  13.266  0.2461 -0.3947 -0.8786
 8522TIP3    H249762   6.759   4.399  13.171 -0.2721 -0.2696 -0.3484
 8523TIP3   OH249763   3.130   7.525  11.552  0.2797 -0.4260 -0.1704
 8523TIP3    H149764   3.089   7.507  11.467 -0.6046 -0.5659  0.2736
 8523TIP3    H249765   3.091   7.461  11.611 -0.3777  0.7390  0.7065
 8524TIP3   OH249766   3.274   4.068  11.868 -0.2422 -0.2487  0.2059
 8524TIP3    H149767   3.240   3.988  11.908  0.0337 -0.5049 -0.0742
 8524TIP3    H249768   3.196   4.116  11.840 -0.3670 -1.0208 -0.7941
 8525TIP3   OH249769   2.204   5.516  12.157 -0.2148  0.0362 -0.0001
 8525TIP3    H149770   2.276   5.566  12.119  0.1559 -0.3019  0.2456
 8525TIP3    H249771   2.241   5.428  12.171 -1.4025 -0.9283 -2.2938
 8526TIP3   OH249772   7.287   5.257  12.800 -0.4947 -0.4639  0.3678
 8526TIP3    H149773   7.233   5.234  12.876 -0.4406  0.8649  0.8250
 8526TIP3    H249774   7.376   5.234  12.827 -0.5961 -0.9893  0.2845
 8527TIP3   OH249775   6.852   6.581  12.062  0.0057  0.1715 -0.2662
 8527TIP3    H149776   6.936   6.594  12.105  0.2378 -0.1912 -0.6048
 8527TIP3    H249777   6.868   6.604  11.970 -0.2239 -0.0474 -0.3634
 8528TIP3   OH249778   2.532   0.650  12.618 -0.3901  0.3160 -0.2952
 8528TIP3    H149779   2.529   0.602  12.535  0.0496  0.6342 -0.4987
 8528TIP3    H249780   2.506   0.586  12.684 -3.1527  0.6633 -0.9246
 8529TIP3   OH249781   1.495   1.508  12.064 -0.7080  0.0935 -0.0613
 8529TIP3    H149782   1.446   1.571  12.116 -0.0247 -0.6483  1.5234
 8529TIP3    H249783   1.429   1.447  12.031 -1.0394 -0.0236  0.7995
 8530TIP3   OH249784   6.583   4.743  12.865 -0.6809  0.1879 -0.2945
 8530TIP3    H149785   6.616   4.692  12.939 -1.6844 -0.3377 -0.1901
 8530TIP3    H249786   6.545   4.821  12.904 -1.8065 -0.3982 -0.1668
 8531TIP3   OH249787   2.194   5.789  12.259 -0.2462 -0.0869  0.4150
 8531TIP3    H149788   2.163   5.850  12.192  1.0217 -2.4232 -2.5871
 8531TIP3    H249789   2.123   5.725  12.267 -0.5966  0.4311  1.7742
 8532TIP3   OH249790   7.057   0.574  12.405 -0.5199 -0.2959  0.2269
 8532TIP3    H149791   6.983   0.527  12.366 -1.6057  1.9390 -0.5931
 8532TIP3    H249792   7.134   0.541  12.358 -1.3567 -0.5103 -1.0476
 8533TIP3   OH249793   7.887   7.884  12.345  0.0883 -0.4569 -0.4330
 8533TIP3    H149794   7.974   7.912  12.375  0.0441 -1.8944  1.1971
 8533TIP3    H249795   7.835   7.875  12.425 -1.0676 -1.2101 -1.2291
 8534TIP3   OH249796   7.294   5.711  11.465 -0.1491  0.2044 -0.5327
 8534TIP3    H149797   7.199   5.721  11.462 -0.4585 -1.6026  1.1693
 8534TIP3    H249798   7.327   5.801  11.459 -1.8953  0.8078 -1.9392
 8535TIP3   OH249799   1.834   6.415  12.515  0.3771 -0.6030  0.3281
 8535TIP3    H149800   1.826   6.467  12.594 -0.6774  0.0149 -0.1547
 8535TIP3    H249801   1.916   6.443  12.475 -0.3821  1.0453 -0.1485
 8536TIP3   OH249802   2.607   2.660  13.026  0.2937 -0.1661  0.0683
 8536TIP3    H149803   2.593   2.744  13.070  3.6020 -0.4051  1.9883
 8536TIP3    H249804   2.654   2.682  12.946 -0.1420 -0.1186 -0.1771
 8537TIP3   OH249805   1.995   1.413  13.774  0.3286  0.0477  0.2789
 8537TIP3    H149806   1.951   1.476  13.831 -1.9757 -0.1325 -1.1557
 8537TIP3    H249807   1.989   1.451  13.686 -0.5829 -1.8117 -0.5336
 8538TIP3   OH249808   3.611   4.984  12.721  0.4932  0.4641  0.0797
 8538TIP3    H149809   3.614   5.031  12.638  1.7731 -0.2924 -0.3360
 8538TIP3    H249810   3.694   4.936  12.724  0.1681 -0.0515  1.4834
 8539TIP3   OH249811   4.841   5.084  12.373  0.0931  0.2390  0.3647
 8539TIP3    H149812   4.795   5.156  12.416  0.0698  0.4616 -0.0293
 8539TIP3    H249813   4.930   5.088  12.409 -0.0664  0.0910  0.7874
 8540TIP3   OH249814   0.263   6.908  13.334 -0.5706  0.2732  0.0736
 8540TIP3    H149815   0.220   6.932  13.252  0.6394 -0.0614 -0.6785
 8540TIP3    H249816   0.317   6.832  13.311 -0.8349 -0.3330  1.3743
 8541TIP3   OH249817   1.713   1.297  12.734  0.0566 -0.4599  0.0256
 8541TIP3    H149818   1.697   1.207  12.705 -0.8231 -0.0244 -0.9148
 8541TIP3    H249819   1.798   1.319  12.696  0.2756 -0.8872  0.2596
 8542TIP3   OH249820   7.059   5.164  12.497 -0.2859 -0.1832  0.3745
 8542TIP3    H149821   6.969   5.143  12.470 -0.4898 -0.4027  1.2018
 8542TIP3    H249822   7.094   5.081  12.530 -0.7112  0.4456  2.5933
 8543TIP3   OH249823   5.194   4.799  12.782 -0.1248  0.6506  0.3523
 8543TIP3    H149824   5.263   4.743  12.746 -0.4457  0.5676 -0.1396
 8543TIP3    H249825   5.157   4.843  12.706 -0.7391  0.5554  0.5962
 8544TIP3   OH249826   2.652   5.003  12.711  0.0785 -0.1146 -0.0746
 8544TIP3    H149827   2.604   4.935  12.758  0.7424  0.5801  1.6915
 8544TIP3    H249828   2.585   5.067  12.687 -0.3701 -0.8022 -0.6987
 8545TIP3   OH249829   4.470   4.794  13.898 -0.3407 -0.8831 -0.1020
 8545TIP3    H149830   4.398   4.743  13.859  0.2301 -4.2239  2.7555
 8545TIP3    H249831   4.433   4.831  13.978  0.5956 -0.9945  0.3937
 8546TIP3   OH249832   6.614   0.423  12.942 -0.2759  0.6095 -0.3832
 8546TIP3    H149833   6.557   0.357  12.982 -2.0222  2.0021 -0.4517
 8546TIP3    H249834   6.665   0.375  12.877 -1.3591 -0.7050 -0.3037
 8547TIP3   OH249835   5.253   3.278  12.157 -0.3149  0.3631 -0.2806
 8547TIP3    H149836   5.222   3.192  12.186  2.0518 -0.2826  0.5711
 8547TIP3    H249837   5.266   3.267  12.062 -1.4377  0.2968 -0.4477
 8548TIP3   OH249838   3.848   0.698  12.385 -0.0759  0.5236 -0.3179
 8548TIP3    H149839   3.816   0.630  12.444  1.1741  1.8194  2.0106
 8548TIP3    H249840   3.801   0.683  12.303 -1.7971 -1.4813  0.9347
 8549TIP3   OH249841   1.269   1.168  11.750  0.2986 -0.2176  0.4382
 8549TIP3    H149842   1.188   1.219  11.752  0.3408 -0.0552 -0.9762
 8549TIP3    H249843   1.240   1.077  11.758 -0.1169 -0.2139 -0.7879
 8550TIP3   OH249844   2.906   7.181  18.539  0.6405 -0.0594 -1.0981
 8550TIP3    H149845   2.997   7.150  18.541  0.8331  0.4934  0.9271
 8550TIP3    H249846   2.912   7.274  18.561 -0.4081  0.0240 -1.1270
 8551TIP3   OH249847   7.321   4.900  11.589 -0.5053  0.3988  0.4997
 8551TIP3    H149848   7.238   4.929  11.627  0.7705  1.5020  2.6577
 8551TIP3    H249849   7.388   4.950  11.636  1.4680 -1.3048 -0.3036
 8552TIP3   OH249850   3.814   1.875  14.386 -0.5472 -0.1921 -0.2612
 8552TIP3    H149851   3.871   1.908  14.316  1.9302  0.0902  1.7696
 8552TIP3    H249852   3.812   1.780  14.373  2.8290 -0.5921  1.1957
 8553TIP3   OH249853   4.401   4.758  12.242  0.4143 -0.3243  0.4548
 8553TIP3    H149854   4.471   4.779  12.304 -0.6064 -0.0714  1.5543
 8553TIP3    H249855   4.447   4.736  12.161  1.7405  0.4896  0.9476
 8554TIP3   OH249856   7.250   5.250  13.854 -0.0591  0.2940 -0.3100
 8554TIP3    H149857   7.262   5.182  13.920 -0.3386  0.8415  0.3205
 8554TIP3    H249858   7.167   5.228  13.811 -0.1610  0.2412 -0.0892
 8555TIP3   OH249859   7.296   4.941  13.269  0.0349  0.0012  0.4434
 8555TIP3    H149860   7.274   4.855  13.232 -0.0606 -1.0622  2.7809
 8555TIP3    H249861   7.391   4.938  13.281 -0.1995 -0.7568  2.6012
 8556TIP3   OH249862   2.714   6.961  13.076  0.5270  0.3238  0.1351
 8556TIP3    H149863   2.713   6.955  13.171 -2.5217 -0.1173  0.1889
 8556TIP3    H249864   2.689   7.052  13.057 -0.5691 -0.0128 -0.1603
 8557TIP3   OH249865   2.944   4.629  12.144 -0.4552 -0.3397 -0.1247
 8557TIP3    H149866   3.025   4.579  12.139  0.7921  1.3580  1.5567
 8557TIP3    H249867   2.874   4.564  12.128  1.1253 -2.2048  0.1933
 8558TIP3   OH249868   3.072   7.160  12.198 -0.0532  0.7546 -0.5029
 8558TIP3    H149869   3.101   7.250  12.186 -0.2686  1.0417  0.8591
 8558TIP3    H249870   3.077   7.147  12.293 -0.6383 -0.4557 -0.6258
 8559TIP3   OH249871   0.153   2.797  13.058 -0.0396 -0.1482 -0.3190
 8559TIP3    H149872   0.202   2.839  13.129 -1.5433 -0.6551  1.1069
 8559TIP3    H249873   0.066   2.780  13.096 -0.6611 -1.1343 -2.0551
 8560TIP3   OH249874   1.268   4.841  11.888 -0.1148 -0.3741  0.0145
 8560TIP3    H149875   1.180   4.850  11.851  0.0673  0.0088 -0.3470
 8560TIP3    H249876   1.272   4.752  11.922 -0.5921 -0.4402 -0.1069
 8561TIP3   OH249877   3.314   4.870  12.594  0.7221 -0.5486  0.8426
 8561TIP3    H149878   3.323   4.941  12.657  0.3154 -0.1350  0.4427
 8561TIP3    H249879   3.222   4.844  12.600  0.6587 -0.4446  0.3629
 8562TIP3   OH249880   3.725   3.986  18.608  0.3592  0.0368 -0.1485
 8562TIP3    H149881   3.719   4.054  18.675  0.0668  0.1407 -0.2818
 8562TIP3    H249882   3.690   3.907  18.651 -0.7805  0.3335 -0.4941
 8563TIP3   OH249883   4.042   7.431  12.546  0.4590  0.1405  0.3175
 8563TIP3    H149884   4.057   7.376  12.622 -0.8022  0.5634  0.9019
 8563TIP3    H249885   4.129   7.449  12.512  1.0293 -0.2941  1.4895
 8564TIP3   OH249886   8.138   1.237  12.775  0.0696 -0.4413  0.2819
 8564TIP3    H149887   8.085   1.179  12.829  0.3293 -0.4490  0.5304
 8564TIP3    H249888   8.207   1.268  12.833  0.8084 -1.0552 -0.2566
 8565TIP3   OH249889   8.387   7.660  12.020 -0.3475 -0.6719 -0.7741
 8565TIP3    H149890   8.368   7.740  12.068  1.3131  1.0439 -2.7973
 8565TIP3    H249891   8.307   7.607  12.030 -1.2072  0.8596  1.2302
 8566TIP3   OH249892   1.138   3.874  11.932  0.5504 -0.5855  0.2368
 8566TIP3    H149893   1.175   3.852  12.017 -2.3799 -0.5173  1.6797
 8566TIP3    H249894   1.133   3.970  11.932  0.7379 -0.5734 -0.1200
 8567TIP3   OH249895   6.293   1.614  13.418  0.3635 -0.3043  0.0400
 8567TIP3    H149896   6.261   1.703  13.405  3.5136  0.9415  0.1480
 8567TIP3    H249897   6.316   1.584  13.331 -0.9619 -1.2026 -0.0362
 8568TIP3   OH249898   8.029   7.753  11.861 -0.2284  0.1083  0.1241
 8568TIP3    H149899   7.977   7.735  11.939 -2.1875 -1.1883 -1.3882
 8568TIP3    H249900   7.986   7.829  11.821  0.5566  0.5592  0.1245
 8569TIP3   OH249901   1.130   0.930  11.755  0.1633  0.1199 -0.2959
 8569TIP3    H149902   1.128   0.870  11.680 -0.7372  0.8218 -0.8576
 8569TIP3    H249903   1.076   0.888  11.821  0.5297 -0.2532 -0.2295
 8570TIP3   OH249904   1.085   4.027  12.790  0.2765  0.3176  0.6305
 8570TIP3    H149905   1.132   3.945  12.805  1.8108  1.3273  1.5776
 8570TIP3    H249906   1.098   4.078  12.870  1.7958  2.6290 -0.9638
 8571TIP3   OH249907   0.382   3.983  12.015 -0.0383 -0.0984  0.2047
 8571TIP3    H149908   0.438   3.923  11.966  1.1162  0.2212  1.0861
 8571TIP3    H249909   0.330   4.028  11.949 -0.9052 -2.0167 -0.4911
 8572TIP3   OH249910   1.225   2.801  12.113 -0.3567  0.1481 -0.4100
 8572TIP3    H149911   1.269   2.883  12.093 -1.6230  0.5758 -1.5945
 8572TIP3    H249912   1.139   2.809  12.072 -0.3925 -1.9035 -0.8853
 8573TIP3   OH249913   5.196   7.369  11.286  0.1518 -0.0127 -0.3848
 8573TIP3    H149914   5.186   7.332  11.198  1.4749 -0.3885 -0.4015
 8573TIP3    H249915   5.117   7.421  11.300 -0.2072 -0.1848 -1.6847
 8574TIP3   OH249916   6.502   0.101  12.482 -0.6250 -0.1531 -0.1515
 8574TIP3    H149917   6.454   0.141  12.410 -0.1894 -0.6741 -0.7439
 8574TIP3    H249918   6.466   0.142  12.561 -0.2590  1.3305 -0.7239
 8575TIP3   OH249919   3.349   6.911  12.861 -0.1918  0.1240  0.2400
 8575TIP3    H149920   3.392   6.866  12.933 -0.9862 -1.2174 -0.0758
 8575TIP3    H249921   3.411   6.906  12.788 -0.4231 -0.8524  0.0936
 8576TIP3   OH249922   1.633   0.203  13.075 -0.1796 -0.1257  0.5473
 8576TIP3    H149923   1.644   0.179  13.167  0.8054  0.7783  0.6722
 8576TIP3    H249924   1.617   0.119  13.031  0.6620 -0.7221  1.3447
 8577TIP3   OH249925   7.542   4.378  11.760 -0.5001  0.3552 -0.4269
 8577TIP3    H149926   7.471   4.370  11.697 -1.2664  2.5454  0.0368
 8577TIP3    H249927   7.570   4.469  11.752 -0.6888  0.7653  2.3847
 8578TIP3   OH249928   4.721   1.073  12.610  0.8396 -0.1953  0.8356
 8578TIP3    H149929   4.780   1.121  12.551  0.2470 -0.1837  0.2412
 8578TIP3    H249930   4.733   1.116  12.695  1.3330  0.1133  0.6186
 8579TIP3   OH249931   2.407   3.870  12.589  0.3972  0.0940 -0.3298
 8579TIP3    H149932   2.435   3.788  12.548  0.9620  0.2880 -0.3455
 8579TIP3    H249933   2.311   3.865  12.590  0.4357 -1.4928  1.5403
 8580TIP3   OH249934   0.873   1.985  12.164  0.0708 -0.3259  0.1173
 8580TIP3    H149935   0.864   2.047  12.092  1.3425  0.9649  1.0129
 8580TIP3    H249936   0.933   1.917  12.131 -0.2266 -0.3382 -0.4008
 8581TIP3   OH249937   3.455   7.963  12.521  0.5577  0.1792  0.1289
 8581TIP3    H149938   3.375   7.982  12.570 -0.2117 -0.6280 -0.7736
 8581TIP3    H249939   3.501   8.047  12.516  0.3408  0.4148  1.6437
 8582TIP3   OH249940   0.059   5.154  12.051 -0.0418  0.1949  0.4243
 8582TIP3    H149941  -0.009   5.088  12.044  1.0210 -0.8796 -0.0131
 8582TIP3    H249942   0.026   5.215  12.118 -1.4235 -0.2738  0.2032
 8583TIP3   OH249943   0.839   7.717  11.622 -0.2909  0.1983  0.2313
 8583TIP3    H149944   0.883   7.654  11.565  0.3958  0.2899  0.6580
 8583TIP3    H249945   0.872   7.698  11.709 -3.1367 -1.5979  1.0724
 8584TIP3   OH249946   1.244   7.772  13.685  0.6115  0.4786  0.0901
 8584TIP3    H149947   1.279   7.804  13.768 -0.1179  2.3465 -0.2724
 8584TIP3    H249948   1.151   7.794  13.687 -0.4924 -3.4889  0.6035
 8585TIP3   OH249949   7.800   6.189  12.087  0.3225 -0.3925  0.5520
 8585TIP3    H149950   7.881   6.219  12.045  0.9033 -0.5711  1.5160
 8585TIP3    H249951   7.761   6.268  12.122  2.4074 -0.6986  4.0643
 8586TIP3   OH249952   5.230   2.465  12.129  0.0161  0.6195  0.4412
 8586TIP3    H149953   5.298   2.472  12.197 -0.6627  0.5415  1.1434
 8586TIP3    H249954   5.167   2.402  12.165  0.1859 -0.2653 -0.7398
 8587TIP3   OH249955   2.682   4.973  11.682 -0.6803  0.1982 -0.0285
 8587TIP3    H149956   2.593   4.940  11.682 -0.4727 -0.4264  1.3374
 8587TIP3    H249957   2.682   5.043  11.747  0.3824 -1.5704  2.0137
 8588TIP3   OH249958   0.905   2.189  11.670 -0.1779  0.6389  0.2273
 8588TIP3    H149959   0.992   2.207  11.705 -0.6338  1.1309  1.1431
 8588TIP3    H249960   0.862   2.275  11.665  0.3871  0.8811 -3.1164
 8589TIP3   OH249961   4.651   5.500  12.690  0.0034  0.2373 -0.5932
 8589TIP3    H149962   4.716   5.534  12.629  2.0409 -1.2844  0.5849
 8589TIP3    H249963   4.702   5.474  12.767 -1.9348 -1.5007  0.2032
 8590TIP3   OH249964   5.805   8.009  13.248  0.2469 -0.6424 -0.2955
 8590TIP3    H149965   5.767   7.937  13.297 -0.5566 -1.0944 -1.5269
 8590TIP3    H249966   5.863   7.967  13.184  0.2756 -0.1642 -0.5889
 8591TIP3   OH249967   3.635   0.037  12.651  0.4121  1.0223  0.5657
 8591TIP3    H149968   3.668   0.058  12.738 -1.2115 -1.7783  1.9855
 8591TIP3    H249969   3.541   0.024  12.663  0.1554  0.5106 -1.5877
 8592TIP3   OH249970   3.101   4.829  13.174 -0.2802 -0.1358  0.3907
 8592TIP3    H149971   3.020   4.877  13.156  0.6394  1.3582  0.0481
 8592TIP3    H249972   3.082   4.740  13.147 -2.4169 -0.2813  2.0161
 8593TIP3   OH249973   8.305   1.656  12.105 -0.2213  0.2394  0.4164
 8593TIP3    H149974   8.273   1.736  12.063  0.0127  0.1458  0.0516
 8593TIP3    H249975   8.391   1.680  12.138  0.0691 -0.0023 -0.1472
 8594TIP3   OH249976   0.185   5.197  12.350 -0.1795 -0.0295 -0.6546
 8594TIP3    H149977   0.119   5.160  12.292  0.0941 -1.0421 -0.3438
 8594TIP3    H249978   0.268   5.185  12.303 -0.0613 -0.0067 -0.4544
 8595TIP3   OH249979   0.082   5.337  13.263  0.1172  0.3394  0.8310
 8595TIP3    H149980   0.015   5.402  13.240 -0.7558 -0.8623 -0.1227
 8595TIP3    H249981   0.037   5.253  13.256  1.5884 -0.4603  0.6737
 8596TIP3   OH249982   4.592   3.678  12.083  0.6360  0.2862 -0.2969
 8596TIP3    H149983   4.616   3.744  12.148  0.4127  0.2175 -0.1444
 8596TIP3    H249984   4.676   3.643  12.052  0.8085  1.3947 -1.1635
 8597TIP3   OH249985   4.415   7.682  12.925  0.4431 -0.1957 -0.3532
 8597TIP3    H149986   4.335   7.630  12.913  0.0325  0.1891  0.5961
 8597TIP3    H249987   4.484   7.631  12.884 -0.0116 -1.3259  0.2602
 8598TIP3   OH249988   8.022   3.773  13.058 -0.5390  0.1752  0.1275
 8598TIP3    H149989   8.054   3.834  13.124  0.7946 -1.6504  1.2627
 8598TIP3    H249990   7.993   3.697  13.108  0.1655 -1.1244 -1.3528
 8599TIP3   OH249991   6.988   5.375  11.590  0.6363 -0.2836 -0.3536
 8599TIP3    H149992   7.025   5.451  11.634 -0.3492  1.0651 -1.7473
 8599TIP3    H249993   7.050   5.354  11.521 -0.6430  1.4367 -2.1341
 8600TIP3   OH249994   3.738   6.162  12.639 -0.1402  0.4890  0.2861
 8600TIP3    H149995   3.762   6.104  12.567 -2.1096  1.4985 -1.2807
 8600TIP3    H249996   3.808   6.228  12.641  0.2244  0.1329 -0.3550
 8601TIP3   OH249997   5.156   0.349  11.539  0.1178 -0.4298 -0.4411
 8601TIP3    H149998   5.074   0.398  11.528  0.2455 -0.2292 -0.5074
 8601TIP3    H249999   5.129   0.267  11.581 -0.0098 -0.0035  0.3329
 8602TIP3   OH250000   2.151   6.974  12.854 -0.1927  0.2676 -0.0483
 8602TIP3    H150001   2.196   7.041  12.906 -0.1268  0.9359 -0.9364
 8602TIP3    H250002   2.130   7.018  12.772  0.8589 -1.1221 -1.1126
 8603TIP3   OH250003   4.671   5.422  13.114  0.2744 -0.2264  0.1225
 8603TIP3    H150004   4.668   5.341  13.164  1.3062 -0.9417 -0.9219
 8603TIP3    H250005   4.682   5.394  13.023  0.0840  1.0729 -0.3282
 8604TIP3   OH250006   2.598   6.625  11.989 -0.4145  0.2234  0.0813
 8604TIP3    H150007   2.660   6.573  11.939  0.3562  0.2394  0.9915
 8604TIP3    H250008   2.644   6.707  12.007 -0.3096 -0.1303  1.5675
 8605TIP3   OH250009   2.328   5.835  12.491  0.0839 -0.0802  0.7872
 8605TIP3    H150010   2.285   5.921  12.494  0.1494 -0.0205  0.1209
 8605TIP3    H250011   2.294   5.794  12.411  0.4735 -0.4497  0.8079
 8606TIP3   OH250012   6.725   5.659  12.522 -0.2929  0.3212  0.5546
 8606TIP3    H150013   6.719   5.594  12.452 -0.5362 -0.0726  0.9420
 8606TIP3    H250014   6.744   5.608  12.601 -0.5462  0.7108  0.8711
 8607TIP3   OH250015   3.927   1.280  13.422 -0.5217 -0.6404 -0.0134
 8607TIP3    H150016   3.999   1.254  13.364 -0.3261 -1.7334  0.6924
 8607TIP3    H250017   3.916   1.206  13.482 -3.3833 -1.2454 -1.1459
 8608TIP3   OH250018   0.848   2.017  13.416  0.1835 -0.2594  0.0876
 8608TIP3    H150019   0.933   1.975  13.399 -0.8691 -2.9618  1.0169
 8608TIP3    H250020   0.788   1.977  13.353 -0.9307 -0.3871  1.1924
 8609TIP3   OH250021   5.076   1.177  12.233  0.4690  0.1133  0.4053
 8609TIP3    H150022   5.091   1.126  12.313  0.5012  0.1114  0.3978
 8609TIP3    H250023   5.133   1.254  12.242  0.4227  0.1469  0.4153
 8610TIP3   OH250024   3.666   3.811  12.336 -0.2545 -0.1535  0.1433
 8610TIP3    H150025   3.627   3.865  12.268 -1.6605  1.9897  2.4922
 8610TIP3    H250026   3.748   3.855  12.357  0.3465 -1.0056 -0.3421
 8611TIP3   OH250027   7.293   7.062  13.384  0.5491  0.3339  0.1954
 8611TIP3    H150028   7.244   7.143  13.401  0.5124  0.1446  1.0588
 8611TIP3    H250029   7.371   7.069  13.440 -0.0837 -0.7826  1.2634
 8612TIP3   OH250030   2.669   7.114  11.565 -0.0505  0.4059  0.1228
 8612TIP3    H150031   2.578   7.091  11.584 -0.2745  0.3389 -0.9683
 8612TIP3    H250032   2.702   7.150  11.647 -0.4161 -1.5238  1.1756
 8613TIP3   OH250033   2.379   1.772  13.729  0.8407 -0.1614 -0.4775
 8613TIP3    H150034   2.429   1.786  13.810 -1.7290 -1.2523  1.4321
 8613TIP3    H250035   2.363   1.861  13.695  1.0993  0.3901  0.7854
 8614TIP3   OH250036   3.113   1.799  12.773 -0.2306 -0.0739  0.4937
 8614TIP3    H150037   3.171   1.725  12.787 -1.0484 -0.5375  1.5528
 8614TIP3    H250038   3.127   1.855  12.850 -1.9428 -0.7240  1.3184
 8615TIP3   OH250039   2.792   7.814  12.789  0.5331  0.0034 -0.0485
 8615TIP3    H150040   2.884   7.844  12.787  0.1686  1.1788 -0.1212
 8615TIP3    H250041   2.783   7.759  12.712  0.4188  2.3342 -1.8153
 8616TIP3   OH250042   7.630   0.748  13.538 -0.4651 -0.1496 -0.1681
 8616TIP3    H150043   7.535   0.753  13.544 -0.3553  0.6723  2.0152
 8616TIP3    H250044   7.661   0.818  13.596  1.4666 -0.2225 -1.0521
 8617TIP3   OH250045   1.925   0.559  12.210 -0.5893 -0.0663 -0.0811
 8617TIP3    H150046   1.942   0.478  12.259 -1.6481  0.8079  1.8382
 8617TIP3    H250047   1.839   0.588  12.241  0.2099  2.3293  0.0490
 8618TIP3   OH250048   4.322   2.296  12.870 -0.3137  0.2149  0.1230
 8618TIP3    H150049   4.280   2.278  12.954 -0.0039 -0.5173  0.1284
 8618TIP3    H250050   4.250   2.322  12.812 -0.6670 -0.2463  0.3502
 8619TIP3   OH250051   0.531   4.646  12.404  0.3462 -0.8088  0.1406
 8619TIP3    H150052   0.486   4.730  12.411  0.9875 -0.5410  1.2893
 8619TIP3    H250053   0.471   4.590  12.354  0.0287  0.3978 -0.8617
 8620TIP3   OH250054   3.475   0.867  13.883 -0.4404 -0.0200 -0.1063
 8620TIP3    H150055   3.452   0.818  13.961 -0.1650  0.6050  0.3723
 8620TIP3    H250056   3.567   0.890  13.895  0.3662 -1.9928 -1.7261
 8621TIP3   OH250057   1.400   1.951  12.387 -0.4893  0.7335  0.4320
 8621TIP3    H150058   1.446   2.033  12.404 -0.5946  0.7258  0.7767
 8621TIP3    H250059   1.308   1.976  12.377 -0.3752  0.7869 -0.5735
 8622TIP3   OH250060   0.603   1.005  12.381 -0.0431  0.4830 -0.4319
 8622TIP3    H150061   0.637   0.967  12.300 -0.2039 -1.1125  0.2078
 8622TIP3    H250062   0.595   1.099  12.363  1.3839  0.3918 -1.7474
 8623TIP3   OH250063   4.055   8.343  11.669  0.6414 -0.4615  0.2647
 8623TIP3    H150064   3.960   8.356  11.663  0.0697 -3.4321  1.1131
 8623TIP3    H250065   4.074   8.353  11.763  0.9772 -0.8819  0.2424
 8624TIP3   OH250066   5.581   4.492  11.742  0.3217 -0.3248 -0.3460
 8624TIP3    H150067   5.564   4.544  11.821 -0.5454 -1.2046  0.0765
 8624TIP3    H250068   5.654   4.436  11.767 -0.1098 -0.7752 -0.0636
 8625TIP3   OH250069   7.934   6.061  12.745  0.5465  0.9147 -0.3871
 8625TIP3    H150070   7.883   5.995  12.793  1.3875  0.5058 -0.0238
 8625TIP3    H250071   7.873   6.098  12.682 -0.1354  0.2847 -0.1091
 8626TIP3   OH250072   4.413   3.371  13.756  0.4808 -0.0794 -0.3030
 8626TIP3    H150073   4.412   3.322  13.838  2.2814  0.2116 -0.0730
 8626TIP3    H250074   4.500   3.354  13.719 -0.3114 -0.2479 -2.1824
 8627TIP3   OH250075   5.566   3.052  12.194 -0.0769 -0.6490  0.4317
 8627TIP3    H150076   5.470   3.051  12.189 -0.0914 -1.4822  0.7243
 8627TIP3    H250077   5.595   3.005  12.116  0.1415  0.8427 -0.4026
 8628TIP3   OH250078   5.319   5.576  13.814  0.4179 -0.0032 -0.1994
 8628TIP3    H150079   5.296   5.636  13.885  0.6526  0.4409 -0.4952
 8628TIP3    H250080   5.235   5.552  13.775  0.1786 -1.1839  0.9628
 8629TIP3   OH250081   4.894   2.357  13.436 -0.2262  0.2103 -0.2117
 8629TIP3    H150082   4.812   2.312  13.455 -0.0241  0.9926  2.9723
 8629TIP3    H250083   4.910   2.413  13.511  3.2645  0.0574 -0.6410
 8630TIP3   OH250084   5.018   6.842  11.354 -0.1878  0.4043 -0.3276
 8630TIP3    H150085   4.926   6.847  11.379 -0.3466  1.1198 -1.0158
 8630TIP3    H250086   5.042   6.750  11.369 -0.8897  0.3085  0.2452
 8631TIP3   OH250087   2.888   2.390  12.248 -0.4932  0.4499 -0.3497
 8631TIP3    H150088   2.851   2.302  12.255 -1.4615  0.8233 -0.7231
 8631TIP3    H250089   2.901   2.418  12.339  3.2848 -1.4579 -0.0848
 8632TIP3   OH250090   1.203   7.851  12.212  0.7591  0.6809  0.5435
 8632TIP3    H150091   1.219   7.870  12.304  0.0715  2.0110  0.4103
 8632TIP3    H250092   1.133   7.912  12.186  0.5488 -0.0503 -0.7099
 8633TIP3   OH250093   4.764   5.155  13.234  0.2948 -0.2761 -0.7630
 8633TIP3    H150094   4.719   5.152  13.318  1.9521  0.0801  0.1724
 8633TIP3    H250095   4.851   5.188  13.254  1.3606 -1.9110 -2.3316
 8634TIP3   OH250096   7.508   3.314  12.648  0.1341 -0.1998  0.3471
 8634TIP3    H150097   7.530   3.407  12.641 -0.1529 -0.1433  0.2109
 8634TIP3    H250098   7.413   3.312  12.657  0.0181 -0.5439 -0.8460
 8635TIP3   OH250099   3.709   0.565  11.544  0.1703 -0.1115 -0.6188
 8635TIP3    H150100   3.691   0.658  11.527 -0.1968 -0.1938 -0.6910
 8635TIP3    H250101   3.778   0.566  11.610  0.3343  0.2144 -0.7908
 8636TIP3   OH250102   3.372   6.380  11.855  0.5400  0.2711  0.5440
 8636TIP3    H150103   3.401   6.454  11.908 -0.0656  0.0880  1.1382
 8636TIP3    H250104   3.452   6.346  11.816  1.2276 -0.5428  2.5585
 8637TIP3   OH250105   0.280   4.539  11.532  0.0351 -0.1176 -0.3393
 8637TIP3    H150106   0.335   4.460  11.527  0.5676  0.2932 -1.0216
 8637TIP3    H250107   0.330   4.599  11.587 -1.5573 -1.1797  2.4722
 8638TIP3   OH250108   5.379   5.791  12.899  0.2698 -0.1956 -0.0284
 8638TIP3    H150109   5.346   5.880  12.893 -0.6154 -0.5232 -0.1042
 8638TIP3    H250110   5.417   5.786  12.987 -1.4201 -0.3077  0.7392
 8639TIP3   OH250111   1.036   6.043  12.708 -0.2571 -0.3574 -0.2602
 8639TIP3    H150112   1.018   5.964  12.760 -0.4255  0.1901  0.5235
 8639TIP3    H250113   1.127   6.064  12.729 -0.8967  0.9816  1.3632
 8640TIP3   OH250114   4.590   0.284  12.102  0.7552 -0.0469 -0.7787
 8640TIP3    H150115   4.685   0.292  12.111  1.0348 -0.8736 -2.5029
 8640TIP3    H250116   4.557   0.280  12.191  2.3558  0.0762 -0.1517
 8641TIP3   OH250117   4.127   0.432  12.902  0.2104  0.0429  0.0001
 8641TIP3    H150118   4.101   0.481  12.981 -0.1497  0.3633 -0.3139
 8641TIP3    H250119   4.200   0.377  12.931 -0.3137 -0.2950  0.7119
 8642TIP3   OH250120   8.056   7.974  11.608 -0.0250 -0.1864  0.4122
 8642TIP3    H150121   8.031   8.066  11.619 -0.8962 -0.6388  2.5806
 8642TIP3    H250122   7.977   7.932  11.573  0.4454 -0.1110 -0.8006
 8643TIP3   OH250123   3.133   4.767  12.836 -0.0528 -0.1814 -0.3447
 8643TIP3    H150124   3.046   4.757  12.873  0.6773  0.2528  1.6344
 8643TIP3    H250125   3.131   4.718  12.754 -2.2978  0.3070 -0.6373
 8644TIP3   OH250126   7.825   4.966  12.397 -0.1250  0.1645 -0.0387
 8644TIP3    H150127   7.866   5.052  12.391 -0.8569  0.6396  1.2052
 8644TIP3    H250128   7.895   4.903  12.379  1.3211  0.9164  2.5559
 8645TIP3   OH250129   8.297   5.148  13.510 -0.0680 -0.0083 -0.1941
 8645TIP3    H150130   8.206   5.175  13.524  0.5464  1.8474  0.5318
 8645TIP3    H250131   8.308   5.150  13.415 -1.2628 -2.1362 -0.4512
 8646TIP3   OH250132   5.865   0.233  13.603 -0.7436 -0.0248  0.3288
 8646TIP3    H150133   5.955   0.265  13.604 -0.6159 -0.2721 -1.0302
 8646TIP3    H250134   5.813   0.307  13.569 -0.8907 -0.2306  0.0995
 8647TIP3   OH250135   2.302   4.291  11.731  0.1525 -0.3897 -0.2178
 8647TIP3    H150136   2.289   4.356  11.661 -1.9730 -1.2209 -0.6622
 8647TIP3    H250137   2.367   4.331  11.789 -0.3059  1.6683 -1.0392
 8648TIP3   OH250138   7.113   3.455  12.731  0.1233 -0.0618  0.4535
 8648TIP3    H150139   7.083   3.450  12.640 -0.5534  0.8792  0.6181
 8648TIP3    H250140   7.035   3.434  12.783  0.3009  0.2344  0.8407
 8649TIP3   OH250141   3.502   2.331  12.145 -0.4489 -0.5903 -0.1591
 8649TIP3    H150142   3.549   2.257  12.183 -0.9740 -0.5877  0.5170
 8649TIP3    H250143   3.409   2.311  12.159 -0.6154 -0.1163 -0.5484
 8650TIP3   OH250144   4.925   1.643  13.085 -0.3654 -0.0673  0.4545
 8650TIP3    H150145   4.905   1.713  13.023 -1.6718 -0.6029  0.2528
 8650TIP3    H250146   4.850   1.640  13.143  0.4360 -0.1962  1.5140
 8651TIP3   OH250147   0.276   2.829  12.204 -0.1242 -0.3533  0.0152
 8651TIP3    H150148   0.208   2.763  12.191 -0.1765 -0.1686 -0.7133
 8651TIP3    H250149   0.348   2.801  12.148 -0.2421  0.3302 -0.4990
 8652TIP3   OH250150   6.395   6.316  11.505 -0.6414 -0.5019  0.1699
 8652TIP3    H150151   6.468   6.351  11.555  0.1214 -1.5054 -0.1830
 8652TIP3    H250152   6.407   6.351  11.417 -0.1550 -1.2409 -0.0653
 8653TIP3   OH250153   1.300   1.032  12.488  0.3510  0.0131 -0.2041
 8653TIP3    H150154   1.253   0.994  12.414  0.7176 -0.9657  0.0488
 8653TIP3    H250155   1.271   0.980  12.563  1.0776  0.0571  0.1119
 8654TIP3   OH250156   7.700   2.285  11.524  0.0769 -0.5308  0.0059
 8654TIP3    H150157   7.613   2.323  11.534  0.2240 -0.6753  2.3126
 8654TIP3    H250158   7.691   2.194  11.554  0.5502 -1.2904 -1.9621
 8655TIP3   OH250159   5.445   2.995  12.510 -0.5210 -0.3899  0.4202
 8655TIP3    H150160   5.371   3.035  12.464 -0.2415 -0.5944 -0.2193
 8655TIP3    H250161   5.517   3.057  12.498 -0.0146 -1.1814 -0.7962
 8656TIP3   OH250162   8.055   3.869  12.275 -0.6134 -0.0883 -0.0322
 8656TIP3    H150163   7.992   3.799  12.256  0.5732 -1.3569  0.5527
 8656TIP3    H250164   8.131   3.824  12.311  0.4340  1.4593 -0.2109
 8657TIP3   OH250165   6.055   3.363  13.009  0.2365  0.5740 -0.2627
 8657TIP3    H150166   6.073   3.345  13.102 -0.1359  3.6886  0.5446
 8657TIP3    H250167   5.974   3.414  13.010 -0.0021  0.3030 -2.3571
 8658TIP3   OH250168   3.814   1.662  12.710 -0.2876 -0.6261  0.6012
 8658TIP3    H150169   3.799   1.750  12.676  1.2188 -0.3172  0.6575
 8658TIP3    H250170   3.907   1.645  12.695 -0.5130 -2.1671  0.7087
 8659TIP3   OH250171   0.772   3.849  13.610  0.3825  0.0886 -0.9017
 8659TIP3    H150172   0.740   3.798  13.535 -0.0715  1.3022 -1.5740
 8659TIP3    H250173   0.751   3.796  13.686 -0.4659 -0.5364 -1.5464
 8660TIP3   OH250174   7.624   1.391  12.214  0.3694 -0.0462  1.0572
 8660TIP3    H150175   7.684   1.455  12.176 -0.2285 -0.1566 -0.1186
 8660TIP3    H250176   7.681   1.324  12.253  1.1072 -1.0502 -1.5230
 8661TIP3   OH250177   2.620   2.921  13.133 -0.6443 -0.3349 -0.1838
 8661TIP3    H150178   2.528   2.939  13.151 -0.6690 -0.1081 -0.5296
 8661TIP3    H250179   2.661   3.008  13.128 -0.4539 -0.4267 -0.2503
 8662TIP3   OH250180   0.894   4.367  13.328  0.2060  0.0972  0.2538
 8662TIP3    H150181   0.941   4.319  13.396 -0.4747 -0.1274  0.5739
 8662TIP3    H250182   0.864   4.299  13.268 -0.6777  0.1247  0.6566
 8663TIP3   OH250183   5.112   3.796  11.624  0.2296 -0.1577 -0.0427
 8663TIP3    H150184   5.038   3.845  11.586 -1.7191 -1.2265  2.0903
 8663TIP3    H250185   5.155   3.859  11.681 -1.8332 -0.5517  2.1312
 8664TIP3   OH250186   1.988   6.984  11.669 -0.8549 -0.4973 -0.0565
 8664TIP3    H150187   2.043   6.972  11.592 -0.0815 -0.6324  0.5082
 8664TIP3    H250188   2.040   7.041  11.726 -1.0765 -1.0549  0.7086
 8665TIP3   OH250189   0.677   8.415  11.753 -0.2362  0.5437  0.2509
 8665TIP3    H150190   0.707   8.350  11.816  1.5976  2.3081  1.2946
 8665TIP3    H250191   0.694   8.374  11.668 -1.9684 -1.5255  0.8096
 8666TIP3   OH250192   1.070   8.350  12.405 -0.8853  0.3072  0.0991
 8666TIP3    H150193   1.020   8.366  12.485 -0.9660 -1.3683  0.4290
 8666TIP3    H250194   1.141   8.292  12.433 -0.1172  0.7898 -0.8049
 8667TIP3   OH250195   0.717   0.620  13.049  0.3415  0.4617  0.2897
 8667TIP3    H150196   0.712   0.634  13.144 -1.8222  1.0570  0.1183
 8667TIP3    H250197   0.695   0.527  13.037  0.2945  0.4685  0.3264
 8668TIP3   OH250198   2.905   2.194  11.894  0.2841  0.0157 -0.2816
 8668TIP3    H150199   2.856   2.271  11.865  0.2354  0.1843  0.2402
 8668TIP3    H250200   2.959   2.170  11.818  0.1204  0.4150 -0.5276
 8669TIP3   OH250201   1.396   3.401  11.807 -0.4643 -0.1144  0.0498
 8669TIP3    H150202   1.343   3.383  11.730  0.2037  0.3143 -0.5262
 8669TIP3    H250203   1.387   3.496  11.821  1.0295  0.1775 -0.7541
 8670TIP3   OH250204   2.278   6.590  13.382 -0.1214 -0.4056  0.5551
 8670TIP3    H150205   2.271   6.589  13.478 -0.4147 -0.4263  0.5343
 8670TIP3    H250206   2.304   6.501  13.359  0.4358 -0.2704  0.6498
 8671TIP3   OH250207   1.713   0.828  12.881  0.0183  0.8393 -0.2012
 8671TIP3    H150208   1.669   0.897  12.931  0.2847 -0.5652  2.1220
 8671TIP3    H250209   1.794   0.812  12.929 -1.1992 -2.8408  0.9777
 8672TIP3   OH250210   7.140   0.455  12.849  0.5461  0.4993 -0.0532
 8672TIP3    H150211   7.101   0.459  12.761 -0.4591  1.0944  0.3897
 8672TIP3    H250212   7.195   0.533  12.854  1.9982 -0.4479 -0.7531
 8673TIP3   OH250213   8.027   5.520  12.530  0.1531  0.3837 -0.5417
 8673TIP3    H150214   7.954   5.486  12.478 -0.8051 -0.7978  1.4681
 8673TIP3    H250215   7.998   5.606  12.558 -0.2341  0.1548 -0.2287
 8674TIP3   OH250216   3.173   8.076  13.259 -0.3796 -0.0244 -0.4406
 8674TIP3    H150217   3.152   8.136  13.330 -0.0901  0.6304 -0.8934
 8674TIP3    H250218   3.197   7.994  13.303  0.8523  0.6855  0.2813
 8675TIP3   OH250219   1.268   7.658  12.531  0.2853  0.4212 -0.6864
 8675TIP3    H150220   1.229   7.745  12.533  0.1763  0.3839 -1.0259
 8675TIP3    H250221   1.312   7.653  12.446  1.2028  0.5328 -0.2247
 8676TIP3   OH250222   3.073   0.313  12.822  0.5887  0.0549  0.3530
 8676TIP3    H150223   3.000   0.362  12.785 -0.7418 -1.6737  0.5649
 8676TIP3    H250224   3.126   0.289  12.746 -0.8181 -1.3983 -0.2155
 8677TIP3   OH250225   1.268   4.439  13.362 -0.7959 -0.7617 -0.2888
 8677TIP3    H150226   1.261   4.345  13.346  0.5536 -1.1104  0.9383
 8677TIP3    H250227   1.255   4.448  13.457  0.5612  0.1028 -0.1559
 8678TIP3   OH250228   0.151   6.253  12.394  0.5085  0.2982 -0.0644
 8678TIP3    H150229   0.123   6.182  12.451 -0.3863  0.5779 -0.1440
 8678TIP3    H250230   0.095   6.327  12.417  0.9278  0.7630 -0.4909
 8679TIP3   OH250231   4.757   2.302  12.658 -0.4301 -0.3854 -0.1440
 8679TIP3    H150232   4.817   2.356  12.710 -0.8822  0.7217 -0.7314
 8679TIP3    H250233   4.680   2.357  12.646 -1.1920 -1.4335 -0.1977
 8680TIP3   OH250234   4.771   0.107  12.364 -0.5612 -0.1572  0.9099
 8680TIP3    H150235   4.840   0.063  12.414  0.5252  1.2094  0.6730
 8680TIP3    H250236   4.697   0.047  12.368 -0.1788 -0.5746  3.2569
 8681TIP3   OH250237   2.355   3.384  12.428 -0.0516  0.2979  0.0095
 8681TIP3    H150238   2.412   3.404  12.353  2.0704 -0.0274  1.4386
 8681TIP3    H250239   2.411   3.397  12.504 -1.6610 -0.9816  1.4821
 8682TIP3   OH250240   4.517   3.461  12.849 -0.1200  0.2538 -0.9039
 8682TIP3    H150241   4.459   3.429  12.918 -0.2405  0.0269 -1.1038
 8682TIP3    H250242   4.604   3.457  12.886 -0.3444  1.8223 -0.1442
 8683TIP3   OH250243   5.153   4.372  12.564 -0.4984 -0.2218  0.6157
 8683TIP3    H150244   5.190   4.451  12.604  1.3093 -0.0408 -1.2425
 8683TIP3    H250245   5.092   4.339  12.630 -1.6734  2.9373  1.2850
 8684TIP3   OH250246   2.896   0.002  13.189  0.2991 -0.1631  0.6308
 8684TIP3    H150247   2.922   0.058  13.262  2.3095 -0.5336  0.2402
 8684TIP3    H250248   2.912   0.055  13.111 -0.9500 -0.1099  0.3923
 8685TIP3   OH250249   2.477   5.943  13.205 -0.4307 -0.1214 -0.1663
 8685TIP3    H150250   2.465   5.848  13.215 -0.5014 -0.0800  0.1478
 8685TIP3    H250251   2.502   5.954  13.113 -0.1213 -0.4756 -0.1304
 8686TIP3   OH250252   7.369   8.248  11.999 -0.0030  0.0383  0.2750
 8686TIP3    H150253   7.391   8.215  11.912 -3.0485 -0.2430 -0.5085
 8686TIP3    H250254   7.405   8.183  12.059  1.2752 -0.2955 -0.8037
 8687TIP3   OH250255   0.071   2.361  13.388  0.4508  0.4092  0.4764
 8687TIP3    H150256   0.023   2.282  13.365  0.6488 -0.0848  1.6642
 8687TIP3    H250257   0.157   2.329  13.418  1.0560  1.1796 -0.3815
 8688TIP3   OH250258   3.819   1.724  11.401 -0.3467 -0.0868 -0.8567
 8688TIP3    H150259   3.807   1.667  11.477  0.5119 -0.6473 -1.1350
 8688TIP3    H250260   3.734   1.720  11.356 -1.2294  1.0593  0.5779
 8689TIP3   OH250261   7.073   2.738  11.761  0.8558  0.5093  0.6047
 8689TIP3    H150262   6.982   2.719  11.738  0.8111  3.0506 -1.8186
 8689TIP3    H250263   7.125   2.693  11.695  1.1939  1.3568  0.2859
 8690TIP3   OH250264   7.685   3.058  11.292  0.1055  0.2913 -0.1455
 8690TIP3    H150265   7.718   3.066  11.203  0.8212  1.1204  0.1776
 8690TIP3    H250266   7.652   2.969  11.298 -0.7830  0.5198 -1.5110
 8691TIP3   OH250267   8.242   5.361  11.943  0.0227 -0.4275 -0.6417
 8691TIP3    H150268   8.260   5.450  11.913 -1.3520 -0.3563 -1.2972
 8691TIP3    H250269   8.314   5.342  12.004 -0.7241  1.8844  1.1174
 8692TIP3   OH250270   2.611   5.469  11.933  0.0108  0.2339  0.4105
 8692TIP3    H150271   2.647   5.463  11.844 -1.3574  1.8023 -0.3015
 8692TIP3    H250272   2.684   5.498  11.987  1.2041 -1.9248  0.1020
 8693TIP3   OH250273   0.184   3.788  11.682 -0.3442  0.3587 -0.2898
 8693TIP3    H150274   0.121   3.803  11.752  0.5014  0.2911  0.5108
 8693TIP3    H250275   0.248   3.728  11.720 -1.5767 -2.3347 -2.1526
 8694TIP3   OH250276   5.867   7.191  12.161 -0.0314 -0.3270  0.4773
 8694TIP3    H150277   5.833   7.150  12.082  0.5515  0.5392 -0.2366
 8694TIP3    H250278   5.932   7.129  12.195 -1.2739 -1.3392  1.0723
 8695TIP3   OH250279   4.704   0.363  12.602 -0.3061 -0.6271  0.1050
 8695TIP3    H150280   4.737   0.290  12.655 -0.4997 -0.6617  0.1775
 8695TIP3    H250281   4.686   0.433  12.665 -0.1932 -0.5417  0.0439
 8696TIP3   OH250282   3.269   1.764  14.215  0.2751 -0.5735  0.7005
 8696TIP3    H150283   3.320   1.741  14.137  0.3495  0.2094  0.5031
 8696TIP3    H250284   3.178   1.759  14.186  0.2131 -2.1415  1.1018
 8697TIP3   OH250285   7.506   8.422  13.237  0.3581 -0.4546  0.1949
 8697TIP3    H150286   7.532   8.411  13.329  2.2370 -1.7782 -0.4331
 8697TIP3    H250287   7.547   8.504  13.211  1.1507 -0.8629  0.1285
 8698TIP3   OH250288   7.010   0.564  13.335 -0.0898 -0.3205  0.1799
 8698TIP3    H150289   7.077   0.506  13.371 -0.3297  0.1946  1.5170
 8698TIP3    H250290   6.956   0.589  13.411 -2.0640 -1.0335 -0.9057
 8699TIP3   OH250291   3.462   7.181  12.285 -0.0035 -0.1940 -0.2787
 8699TIP3    H150292   3.414   7.241  12.343 -0.2727 -0.2322 -0.4609
 8699TIP3    H250293   3.510   7.124  12.345  0.6147  0.4903 -0.1083
 8700TIP3   OH250294   0.124   7.816  13.055  0.0505  0.0293  0.0151
 8700TIP3    H150295   0.165   7.902  13.066  0.7956 -0.3581  0.3170
 8700TIP3    H250296   0.118   7.781  13.144  0.8003 -0.7057 -0.2109
 8701TIP3   OH250297   2.458   3.379  12.934 -0.7239 -0.5149 -0.2809
 8701TIP3    H150298   2.435   3.456  12.987 -0.4194 -0.1598 -0.6616
 8701TIP3    H250299   2.505   3.415  12.859 -0.8593 -1.0460 -0.6245
 8702TIP3   OH250300   7.709   4.484  11.349  0.2633  0.0446 -0.5033
 8702TIP3    H150301   7.727   4.433  11.270 -1.1961  0.1339 -0.9207
 8702TIP3    H250302   7.706   4.420  11.420  3.5432  0.1596 -0.1067
 8703TIP3   OH250303   0.690   3.384  13.660  0.2160 -0.2288  0.3131
 8703TIP3    H150304   0.753   3.443  13.619 -0.4938 -0.2342 -0.8136
 8703TIP3    H250305   0.718   3.379  13.751  1.9143 -0.3322 -0.1892
 8704TIP3   OH250306   5.615   7.266  11.608 -0.4720  0.2660 -0.5732
 8704TIP3    H150307   5.563   7.250  11.687  1.1279 -1.1109  0.2787
 8704TIP3    H250308   5.625   7.361  11.605 -2.0160  0.4804 -0.1316
 8705TIP3   OH250309   3.408   7.315  12.015  0.3660 -0.3970 -0.2179
 8705TIP3    H150310   3.409   7.267  12.098  0.1490  2.3726  1.5032
 8705TIP3    H250311   3.346   7.387  12.029 -0.4694 -0.4098 -3.1804
 8706TIP3   OH250312   4.983   2.758  12.753 -0.4857  0.0244 -0.3929
 8706TIP3    H150313   4.891   2.780  12.768 -0.9723 -0.3428 -2.4878
 8706TIP3    H250314   4.981   2.677  12.702  0.9592  0.5095 -1.2895
 8707TIP3   OH250315   6.968   4.563  12.669 -0.1176  0.0790 -0.1816
 8707TIP3    H150316   7.039   4.606  12.621  0.1829  0.8954  0.9454
 8707TIP3    H250317   6.898   4.553  12.605  0.1925  1.3262 -0.7426
 8708TIP3   OH250318   4.051   6.489  13.794 -0.1687  0.1840 -0.1162
 8708TIP3    H150319   3.981   6.439  13.835  0.3715 -0.9826 -0.5742
 8708TIP3    H250320   4.016   6.515  13.709  0.0680 -0.7099 -0.4962
 8709TIP3   OH250321   4.651   5.019  14.023  0.0731  0.8684 -0.2368
 8709TIP3    H150322   4.563   5.054  14.015 -0.2073 -0.1397 -2.1510
 8709TIP3    H250323   4.639   4.924  14.021  1.0146  0.6218  2.2596
 8710TIP3   OH250324   1.032   4.005  11.582 -0.7199 -0.1593 -0.2059
 8710TIP3    H150325   1.123   3.975  11.582 -0.6938 -0.0832 -0.4549
 8710TIP3    H250326   1.000   3.986  11.671  0.0536  1.3514  0.4426
 8711TIP3   OH250327   4.145   1.898  12.452  0.0478  0.4132 -0.3129
 8711TIP3    H150328   4.183   1.953  12.520 -0.4564 -0.8488  1.0330
 8711TIP3    H250329   4.198   1.917  12.374  2.6948 -0.3770  1.1647
 8712TIP3   OH250330   7.451   6.882  12.769 -0.3767  0.0155 -0.1645
 8712TIP3    H150331   7.459   6.878  12.864 -0.1086 -0.1824 -0.1956
 8712TIP3    H250332   7.423   6.794  12.743 -1.6899  0.4086 -0.1559
 8713TIP3   OH250333   6.420   5.612  11.918 -0.4278  0.0131 -0.2244
 8713TIP3    H150334   6.371   5.603  11.836 -2.0112  0.0486  0.6991
 8713TIP3    H250335   6.418   5.524  11.956 -2.9500  0.7472  1.5476
 8714TIP3   OH250336   5.338   0.535  12.861  0.0909  0.5111 -0.5384
 8714TIP3    H150337   5.433   0.534  12.866  0.1864  0.9438 -1.9366
 8714TIP3    H250338   5.314   0.444  12.843  0.2378  0.4288 -0.3284
 8715TIP3   OH250339   4.903   1.192  13.151 -0.0333  0.4634 -0.3368
 8715TIP3    H150340   4.998   1.202  13.156 -0.0089  0.5314 -0.8641
 8715TIP3    H250341   4.885   1.181  13.057 -0.4897 -0.1023 -0.1910
 8716TIP3   OH250342   5.337   0.863  12.353  0.6150  0.2904  0.0268
 8716TIP3    H150343   5.371   0.951  12.365 -2.2274  1.5877 -0.6420
 8716TIP3    H250344   5.278   0.850  12.428  3.0963 -2.2944  1.7640
 8717TIP3   OH250345   8.058   2.921  12.807 -0.5196  0.3787 -0.5267
 8717TIP3    H150346   8.024   2.923  12.897  0.2288  0.2775 -0.2373
 8717TIP3    H250347   7.990   2.964  12.755  0.1664  2.8120  0.4718
 8718TIP3   OH250348   2.725   2.482  13.661 -0.4695  0.2550  0.3071
 8718TIP3    H150349   2.802   2.456  13.711  0.1577  3.0493  0.9652
 8718TIP3    H250350   2.665   2.518  13.727 -2.0200 -1.1009 -0.3032
 8719TIP3   OH250351   5.491   7.704  12.715 -0.2318 -0.1312  0.2036
 8719TIP3    H150352   5.545   7.748  12.781 -0.6145  0.8968 -0.1467
 8719TIP3    H250353   5.430   7.650  12.765  0.7525 -0.8757  0.6186
 8720TIP3   OH250354   3.021   3.465  12.491 -0.4254 -0.5088 -0.3897
 8720TIP3    H150355   3.048   3.426  12.408 -0.9364 -1.8189  0.0397
 8720TIP3    H250356   2.950   3.524  12.468  2.1114  2.4075 -1.4385
 8721TIP3   OH250357   1.131   0.295  12.449  0.6647 -0.0611  0.2967
 8721TIP3    H150358   1.112   0.218  12.395  1.0076 -0.0407  0.1444
 8721TIP3    H250359   1.103   0.370  12.395 -0.8934 -0.1240  0.9633
 8722TIP3   OH250360   1.647   3.247  13.426  0.3961  0.1320  0.2139
 8722TIP3    H150361   1.586   3.182  13.461  1.3852 -0.4676  0.8995
 8722TIP3    H250362   1.719   3.195  13.390  1.0798  0.8278  0.5273
 8723TIP3   OH250363   3.831   0.851  11.609  0.0322  0.0999 -0.5371
 8723TIP3    H150364   3.913   0.888  11.577  1.0047 -1.8613 -0.4129
 8723TIP3    H250365   3.788   0.924  11.654  1.9125  1.0398 -0.1930
 8724TIP3   OH250366   5.116   4.403  12.105  0.0344 -0.1044  0.3564
 8724TIP3    H150367   5.131   4.345  12.180 -3.1081  1.9120  2.8823
 8724TIP3    H250368   5.126   4.347  12.028  3.1094 -2.4120  2.2029
 8725TIP3   OH250369   1.614   5.662  12.836  0.3485 -0.5560 -0.1207
 8725TIP3    H150370   1.590   5.748  12.801  1.1370  0.6511  2.0524
 8725TIP3    H250371   1.707   5.653  12.814  0.7673  0.0709  1.2361
 8726TIP3   OH250372   3.113   1.835  11.827  0.2858  0.0016 -0.4286
 8726TIP3    H150373   3.192   1.815  11.778  0.3371 -0.2419 -0.2462
 8726TIP3    H250374   3.143   1.857  11.915  0.1155 -0.5136 -0.2419
 8727TIP3   OH250375   3.135   7.029  13.086  0.5247  0.0907  0.1106
 8727TIP3    H150376   3.091   7.113  13.072 -0.5851 -0.4642  0.2438
 8727TIP3    H250377   3.134   6.987  13.001  1.2552  0.2791 -0.0002
 8728TIP3   OH250378   6.474   8.440  11.280  0.4335  0.5315 -0.3764
 8728TIP3    H150379   6.422   8.460  11.358  2.1695 -1.8955  1.5573
 8728TIP3    H250380   6.475   8.344  11.276  1.8997  0.5715 -2.3621
 8729TIP3   OH250381   8.434   8.095  12.445 -0.3094 -0.0623 -0.6010
 8729TIP3    H150382   8.415   8.173  12.498  1.8770  1.3645 -1.7924
 8729TIP3    H250383   8.446   8.025  12.510  0.6541  1.2696  0.7440
 8730TIP3   OH250384   2.628   5.535  12.891  0.5231 -0.3576  0.2103
 8730TIP3    H150385   2.637   5.496  12.978  2.2993 -0.5738 -0.0329
 8730TIP3    H250386   2.664   5.470  12.831  0.7803  0.4244 -0.5115
 8731TIP3   OH250387   0.121   7.022  13.096 -0.0012 -0.5579  0.2730
 8731TIP3    H150388   0.074   7.089  13.046 -0.1158  0.0708  1.1946
 8731TIP3    H250389   0.200   7.005  13.045 -0.8269 -1.0473 -0.8935
 8732TIP3   OH250390   0.068   5.240  11.642 -0.0719  0.3993  0.3030
 8732TIP3    H150391   0.010   5.197  11.579  0.6220  1.1411 -0.8791
 8732TIP3    H250392   0.020   5.237  11.724 -0.1997 -2.3167  0.2277
 8733TIP3   OH250393   6.863   5.238  11.242  0.5435  0.8994  0.0831
 8733TIP3    H150394   6.958   5.228  11.244  0.4219 -0.6820 -0.8319
 8733TIP3    H250395   6.848   5.314  11.185  1.2416  0.7583 -0.3026
 8734TIP3   OH250396   1.808   0.215  12.706  0.2000  0.8605  0.5705
 8734TIP3    H150397   1.897   0.216  12.743  0.3335 -1.3676  0.4427
 8734TIP3    H250398   1.756   0.265  12.768  1.0551 -0.0776  2.1092
 8735TIP3   OH250399   7.432   6.507  12.193 -0.0931 -0.3386  0.7013
 8735TIP3    H150400   7.451   6.598  12.213  1.3641 -0.8901  2.0077
 8735TIP3    H250401   7.472   6.492  12.108 -1.1418  0.4512  0.0403
 8736TIP3   OH250402   4.495   7.764  11.799  0.7303 -0.0345  0.7156
 8736TIP3    H150403   4.413   7.754  11.846  1.8556 -0.8588  2.5896
 8736TIP3    H250404   4.469   7.802  11.714 -1.6651 -1.2908  0.8058
 8737TIP3   OH250405   1.315   8.167  12.048 -0.4559 -0.0567  0.1755
 8737TIP3    H150406   1.343   8.159  11.956  0.5586  0.0205  0.4607
 8737TIP3    H250407   1.220   8.155  12.045 -0.5577  0.8038 -0.9898
 8738TIP3   OH250408   7.737   6.655  12.315 -0.0266  0.3803 -0.3066
 8738TIP3    H150409   7.814   6.698  12.353  0.6847 -0.6889 -0.4839
 8738TIP3    H250410   7.686   6.726  12.277 -0.0742  1.3358  1.4355
 8739TIP3   OH250411   1.912   7.650  11.882 -0.2313  0.1766  0.0373
 8739TIP3    H150412   1.981   7.693  11.831 -1.5974  1.2437 -0.9723
 8739TIP3    H250413   1.923   7.684  11.971 -0.6716  1.8744 -0.5409
 8740TIP3   OH250414   5.685   1.939  11.759  0.3027 -0.0088 -0.1571
 8740TIP3    H150415   5.616   1.912  11.820 -0.0704 -0.1180 -0.6244
 8740TIP3    H250416   5.655   2.024  11.727 -0.3157 -0.6678 -1.4053
 8741TIP3   OH250417   1.982   7.717  13.684 -0.3151  0.3322 -0.0164
 8741TIP3    H150418   2.007   7.803  13.650  0.3582  0.2588  0.2773
 8741TIP3    H250419   1.890   7.707  13.659 -0.0301  0.5675 -1.2142
 8742TIP3   OH250420   4.226   1.999  14.142 -0.1938 -0.2430 -0.1917
 8742TIP3    H150421   4.221   2.031  14.052 -0.8243  0.2960  0.0228
 8742TIP3    H250422   4.224   2.078  14.196  0.5730 -0.5410  0.2931
 8743TIP3   OH250423   0.438   7.837  12.330  0.3259  0.6044 -0.2660
 8743TIP3    H150424   0.419   7.773  12.261 -0.3404 -0.9790  1.3145
 8743TIP3    H250425   0.365   7.899  12.325  1.0468  1.3817 -1.9043
 8744TIP3   OH250426   1.491   7.920  12.385  0.2243 -0.1110  0.1027
 8744TIP3    H150427   1.525   7.883  12.304  0.6271 -0.9725  0.6421
 8744TIP3    H250428   1.569   7.942  12.436 -0.0140 -0.9639  0.8558
 8745TIP3   OH250429   0.285   8.316  11.611 -0.1774 -0.4069  0.1827
 8745TIP3    H150430   0.292   8.340  11.519 -2.0727  1.2262  0.3841
 8745TIP3    H250431   0.195   8.287  11.622 -0.2031  0.0994  1.6336
 8746TIP3   OH250432   3.038   3.282  11.976 -0.1853  0.4992 -0.0787
 8746TIP3    H150433   3.107   3.216  11.975 -0.4907  0.1796 -0.4261
 8746TIP3    H250434   3.040   3.317  12.065 -0.5719 -0.5721  0.3706
 8747TIP3   OH250435   1.023   6.030  13.545 -0.2839  0.6546 -0.2999
 8747TIP3    H150436   1.035   6.099  13.480 -2.0713  1.0723 -0.2375
 8747TIP3    H250437   1.027   5.949  13.494  2.2609  0.7212 -0.3056
 8748TIP3   OH250438   0.913   5.370  13.318 -0.5535  0.0008 -0.2199
 8748TIP3    H150439   0.955   5.333  13.241 -0.6616 -1.8872  0.5815
 8748TIP3    H250440   0.949   5.459  13.324 -1.5015  0.7085 -3.1228
 8749TIP3   OH250441   6.692   0.887  13.496  0.0117 -0.5566 -0.7713
 8749TIP3    H150442   6.768   0.942  13.515  0.5142 -1.5015  0.0484
 8749TIP3    H250443   6.714   0.801  13.533 -1.1266 -1.0665 -1.2199
 8750TIP3   OH250444   6.616   2.585  13.098  0.1079  0.6569 -0.2960
 8750TIP3    H150445   6.660   2.575  13.182 -2.0355  0.2721  0.8491
 8750TIP3    H250446   6.599   2.678  13.091  0.9540  0.7935 -0.6951
 8751TIP3   OH250447   5.012   5.966  13.944  0.6796  0.2766 -0.1170
 8751TIP3    H150448   4.985   6.057  13.928 -1.2193 -0.3848 -0.9524
 8751TIP3    H250449   4.930   5.919  13.956  1.5996 -1.4471 -0.3302
 8752TIP3   OH250450   2.566   7.496  11.812  0.5478 -0.3039 -0.6292
 8752TIP3    H150451   2.539   7.535  11.729 -0.7526 -0.0445 -0.1233
 8752TIP3    H250452   2.498   7.430  11.830  0.6100 -0.1089  0.3826
 8753TIP3   OH250453   7.492   2.069  11.435 -0.1021 -0.4478  0.1102
 8753TIP3    H150454   7.434   2.063  11.511  1.0605  0.1364  1.0893
 8753TIP3    H250455   7.579   2.052  11.471  0.3496 -1.3486 -1.3242
 8754TIP3   OH250456   4.876   0.300  12.179 -0.2349  0.3050 -0.3906
 8754TIP3    H150457   4.909   0.340  12.259 -1.1122  0.0037  0.1303
 8754TIP3    H250458   4.856   0.210  12.203 -0.4730  0.2012 -0.9575
 8755TIP3   OH250459   0.277   1.056  12.423 -0.1981 -0.2370 -0.4771
 8755TIP3    H150460   0.338   1.057  12.497 -0.0652  1.5092 -0.5802
 8755TIP3    H250461   0.312   0.989  12.365  0.1423 -1.0835  0.6590
 8756TIP3   OH250462   3.093   0.334  13.196 -0.4334  0.5874 -0.0942
 8756TIP3    H150463   3.032   0.406  13.181 -0.1478  0.7213 -0.6379
 8756TIP3    H250464   3.057   0.288  13.271 -1.5503  0.3143 -0.7625
 8757TIP3   OH250465   0.591   6.897  13.514 -0.1320 -0.6918  0.0026
 8757TIP3    H150466   0.623   6.807  13.525 -2.6764 -1.8136 -0.9653
 8757TIP3    H250467   0.665   6.952  13.538  1.9041 -3.0440 -0.5206
 8758TIP3   OH250468   5.087   8.004  13.430 -0.1053 -0.2548  0.4064
 8758TIP3    H150469   5.089   8.010  13.525 -1.6308  1.6970  0.3848
 8758TIP3    H250470   5.168   8.047  13.402 -0.9358  1.6718  0.8168
 8759TIP3   OH250471   6.824   3.792  11.462  0.7403 -0.4629  0.1163
 8759TIP3    H150472   6.731   3.808  11.446  0.7652  0.7718  1.0349
 8759TIP3    H250473   6.829   3.769  11.555  1.2444 -1.6278 -0.1757
 8760TIP3   OH250474   8.365   1.672  12.937 -0.1515 -0.3635 -0.0452
 8760TIP3    H150475   8.453   1.682  12.899 -0.8131 -0.9388 -1.8793
 8760TIP3    H250476   8.356   1.577  12.950 -0.4994 -0.3068  0.1305
 8761TIP3   OH250477   1.968   3.310  12.645 -0.0923  0.9410 -0.0216
 8761TIP3    H150478   1.981   3.346  12.733  1.1037 -0.3981  0.3796
 8761TIP3    H250479   2.017   3.228  12.645 -0.6415  0.5783 -1.7299
 8762TIP3   OH250480   3.381   6.132  13.258 -0.0595  0.2607 -0.4269
 8762TIP3    H150481   3.361   6.041  13.281 -0.3608  0.8476  1.8630
 8762TIP3    H250482   3.312   6.183  13.300  1.6095  1.7362  0.6821
 8763TIP3   OH250483   4.209   0.263  12.282  0.0305 -0.3099 -0.1200
 8763TIP3    H150484   4.262   0.334  12.319 -0.1470 -0.0650 -0.3290
 8763TIP3    H250485   4.188   0.207  12.357  0.6224 -0.4316 -0.0460
 8764TIP3   OH250486   5.973   6.928  17.596  0.7336  0.7163 -0.4913
 8764TIP3    H150487   5.878   6.934  17.594  0.4844 -1.1173  1.5037
 8764TIP3    H250488   6.004   7.018  17.587 -1.0173  1.1259 -3.8483
 8765TIP3   OH250489   2.182   6.883  13.208 -0.0864  0.0141  0.1279
 8765TIP3    H150490   2.206   6.969  13.175 -1.2702  0.1149 -0.5305
 8765TIP3    H250491   2.242   6.823  13.164  0.6610  0.4804  0.4955
 8766TIP3   OH250492   3.088   5.504  11.865 -0.1613  0.0324  0.8293
 8766TIP3    H150493   3.061   5.563  11.935 -0.5820  1.5643 -0.5545
 8766TIP3    H250494   3.182   5.519  11.856 -0.4305  1.3129 -0.1868
 8767TIP3   OH250495   4.693   8.306  13.377  0.4836  0.0961 -0.0078
 8767TIP3    H150496   4.774   8.356  13.379  0.8093 -0.4294  0.2913
 8767TIP3    H250497   4.720   8.215  13.391 -0.0367 -0.2486 -1.0977
 8768TIP3   OH250498   6.742   4.500  13.694  0.0591  0.2938  0.2233
 8768TIP3    H150499   6.732   4.420  13.746 -0.2329  0.6181  0.6770
 8768TIP3    H250500   6.788   4.472  13.615  0.0295 -0.3077  0.4135
 8769TIP3   OH250501   3.854   3.247  11.972 -0.3317 -0.3489  0.0890
 8769TIP3    H150502   3.826   3.265  12.062 -0.9819 -0.2658 -0.1325
 8769TIP3    H250503   3.884   3.156  11.974 -1.3743 -0.6972  0.1403
 8770TIP3   OH250504   3.524   4.078  11.771  0.3208  0.3959  0.4703
 8770TIP3    H150505   3.514   3.994  11.727  0.4143  0.4095  0.4206
 8770TIP3    H250506   3.438   4.098  11.806  0.4472 -0.0240  1.0379
 8771TIP3   OH250507   5.863   7.546  12.306  0.3504  0.2500  0.6057
 8771TIP3    H150508   5.782   7.516  12.265  0.8860 -0.9911  0.3961
 8771TIP3    H250509   5.836   7.616  12.365 -0.8392  0.0028  0.3776
 8772TIP3   OH250510   2.966   7.261  13.046  0.0288  0.3823 -1.0537
 8772TIP3    H150511   2.936   7.241  13.134 -1.5249 -1.2064 -1.8769
 8772TIP3    H250512   2.926   7.345  13.025  0.4493  0.7927 -0.2458
 8773TIP3   OH250513   1.591   5.508  13.061  0.6877  0.8209  0.2363
 8773TIP3    H150514   1.578   5.555  12.979 -0.8174 -2.3117 -1.5358
 8773TIP3    H250515   1.675   5.464  13.050  0.1011 -0.2776 -0.0877
 8774TIP3   OH250516   5.486   6.333  12.146 -0.0218 -0.5307 -0.2867
 8774TIP3    H150517   5.453   6.243  12.145 -0.6030 -0.3185 -0.8110
 8774TIP3    H250518   5.428   6.380  12.086 -0.3871  0.4183  0.7724
 8775TIP3   OH250519   5.983   2.744  12.768  0.2188 -0.2586 -0.1632
 8775TIP3    H150520   5.917   2.770  12.704 -0.9104 -1.0254  0.6531
 8775TIP3    H250521   5.991   2.649  12.756 -0.7626 -0.5743  1.5095
 8776TIP3   OH250522   4.722   4.140  18.308  0.4005  0.0820  0.0792
 8776TIP3    H150523   4.732   4.138  18.213  3.0886  0.7991  0.2717
 8776TIP3    H250524   4.684   4.226  18.327  0.3646  0.1499 -0.3086
 8777TIP3   OH250525   7.260   5.482  12.167  0.1072  0.3140 -0.0126
 8777TIP3    H150526   7.279   5.557  12.223  0.1572  0.5431 -0.3383
 8777TIP3    H250527   7.288   5.406  12.219 -0.4593  0.4765  0.5490
 8778TIP3   OH250528   8.218   3.372  12.698 -0.3645 -0.0624 -0.6986
 8778TIP3    H150529   8.284   3.441  12.686 -1.1690  0.5068 -2.1283
 8778TIP3    H250530   8.233   3.312  12.625  1.1636 -2.2066  1.2151
 8779TIP3   OH250531   7.482   3.102  12.491 -0.0416  0.6239  0.5811
 8779TIP3    H150532   7.423   3.046  12.542 -0.6187  0.9843  0.3292
 8779TIP3    H250533   7.488   3.183  12.541  0.4937  0.4737  0.7606
 8780TIP3   OH250534   0.333   1.727  11.987 -0.1582 -0.3962  0.3834
 8780TIP3    H150535   0.412   1.728  12.040 -0.9611 -1.1144  1.6648
 8780TIP3    H250536   0.310   1.634  11.980 -1.4865 -0.1360  0.9983
 8781TIP3   OH250537   8.187   4.607  12.791 -0.1835  0.2909 -0.3231
 8781TIP3    H150538   8.261   4.666  12.779  0.3918  0.3896  2.9089
 8781TIP3    H250539   8.111   4.666  12.799  0.1031  0.5188  0.9165
 8782TIP3   OH250540   7.945   4.052  13.224  0.0077 -0.5234 -0.3546
 8782TIP3    H150541   7.890   3.974  13.228 -1.7764  0.7019  0.5476
 8782TIP3    H250542   8.031   4.022  13.251 -1.0609 -1.8490  1.8613
 8783TIP3   OH250543   7.852   4.313  13.379 -0.0917  0.0906 -0.0221
 8783TIP3    H150544   7.928   4.292  13.433  1.1636 -0.4763 -1.9032
 8783TIP3    H250545   7.848   4.243  13.314 -0.5596  1.5256 -1.6377
 8784TIP3   OH250546   6.928   4.659  11.588  0.2864 -0.8372 -0.0618
 8784TIP3    H150547   6.985   4.592  11.550  1.6652 -0.1091  0.6488
 8784TIP3    H250548   6.876   4.691  11.514  2.5946  0.2461 -1.3411
 8785TIP3   OH250549   7.713   0.010  11.900 -0.5903  0.0112  0.0228
 8785TIP3    H150550   7.769  -0.035  11.836  1.7456  1.3655  0.9951
 8785TIP3    H250551   7.700  -0.054  11.970  0.1335 -0.1682 -0.0046
 8786TIP3   OH250552   6.840   6.141  11.759 -0.3115  0.3570  0.0268
 8786TIP3    H150553   6.761   6.171  11.804 -0.1661 -0.1135  0.6193
 8786TIP3    H250554   6.837   6.046  11.768 -1.0716  0.1038 -2.3190
 8787TIP3   OH250555   8.222   2.263  12.861 -0.1830 -0.8876 -0.5069
 8787TIP3    H150556   8.133   2.298  12.870  0.0526 -0.0551 -1.3742
 8787TIP3    H250557   8.229   2.238  12.769  0.3097 -1.4600 -0.3232
 8788TIP3   OH250558   1.505   1.257  12.930  0.3072  0.0869 -0.5085
 8788TIP3    H150559   1.525   1.270  12.837 -1.6424 -2.5130 -1.4039
 8788TIP3    H250560   1.561   1.183  12.956 -0.3338 -0.2637 -0.0997
 8789TIP3   OH250561   3.036   5.104  12.614 -0.6858 -0.3289 -0.0111
 8789TIP3    H150562   2.979   5.038  12.575  1.3057 -1.5455 -1.0721
 8789TIP3    H250563   3.030   5.179  12.554 -3.5779  0.9293  1.6227
 8790TIP3   OH250564   4.475   1.008  12.961  0.0282  1.1231  0.5654
 8790TIP3    H150565   4.474   1.074  13.030 -2.1141  0.2573  1.4272
 8790TIP3    H250566   4.387   1.009  12.925  0.4527 -0.0935 -0.5926
 8791TIP3   OH250567   5.119   5.488  13.613 -0.0073  0.1289  1.0774
 8791TIP3    H150568   5.165   5.565  13.580 -1.2805  0.6685  0.5089
 8791TIP3    H250569   5.077   5.518  13.694 -3.1576  1.0538 -0.7348
 8792TIP3   OH250570   7.154   3.888  11.546  0.1309 -0.2200 -0.4950
 8792TIP3    H150571   7.168   3.916  11.636  0.6177  0.2123 -0.7026
 8792TIP3    H250572   7.058   3.883  11.537  0.0463  0.7688 -0.2656
 8793TIP3   OH250573   5.473   3.395  12.275  0.2661  0.1461  0.5760
 8793TIP3    H150574   5.444   3.485  12.292  1.2304  0.6569 -0.3384
 8793TIP3    H250575   5.394   3.349  12.247  0.2539  1.5033 -1.9189
 8794TIP3   OH250576   0.126   0.744  12.245 -0.2723 -0.1370 -0.2402
 8794TIP3    H150577   0.059   0.701  12.299  0.1955  0.1318  0.5788
 8794TIP3    H250578   0.076   0.787  12.176 -0.9803  0.3056  0.5188
 8795TIP3   OH250579   7.369   3.558  11.731  0.0318 -0.0726  0.0965
 8795TIP3    H150580   7.280   3.540  11.763  0.0214  1.6729  1.1648
 8795TIP3    H250581   7.362   3.553  11.636 -0.9442 -1.0801  0.2061
 8796TIP3   OH250582   0.915   5.069  12.298 -0.2626  0.4982  0.5185
 8796TIP3    H150583   0.979   5.001  12.319 -1.5331 -1.3703 -1.2699
 8796TIP3    H250584   0.840   5.048  12.352  0.2540  2.1770  1.9749
 8797TIP3   OH250585   3.889   7.169  12.527  0.2664 -0.0812  0.2513
 8797TIP3    H150586   3.870   7.236  12.461 -0.0629 -0.7170 -0.3212
 8797TIP3    H250587   3.968   7.125  12.495  1.0616  0.6605  1.1347
 8798TIP3   OH250588   4.792   6.230  11.937 -0.3916 -0.0669  0.2823
 8798TIP3    H150589   4.843   6.148  11.938 -1.3110 -0.6522  0.2321
 8798TIP3    H250590   4.780   6.250  12.030  0.7147  0.5889  0.3028
 8799TIP3   OH250591   1.518   1.455  13.114  0.5311 -0.4561  0.5258
 8799TIP3    H150592   1.612   1.474  13.114  1.1225 -2.9160 -0.6963
 8799TIP3    H250593   1.511   1.370  13.070 -2.4259  0.3247 -0.7569
 8800TIP3   OH250594   4.152   4.511  13.083 -0.3202  0.5256 -0.5592
 8800TIP3    H150595   4.211   4.438  13.066 -0.8356 -0.6066  1.9129
 8800TIP3    H250596   4.208   4.589  13.080  0.7911 -0.2517 -0.6717
 8801TIP3   OH250597   6.228   3.384  11.847  0.0775  0.0899  0.4997
 8801TIP3    H150598   6.290   3.442  11.891  0.0408  0.8716 -0.4523
 8801TIP3    H250599   6.250   3.391  11.754 -0.6040 -0.6217  0.2760
 8802TIP3   OH250600   5.164   5.085  11.713 -0.5365 -0.0905 -0.7390
 8802TIP3    H150601   5.185   4.993  11.696  0.5356  0.1590 -0.8840
 8802TIP3    H250602   5.155   5.124  11.625 -1.2723 -0.1109 -0.6782
 8803TIP3   OH250603   6.202   2.147  11.773  0.7035  0.2930 -0.2482
 8803TIP3    H150604   6.142   2.088  11.820 -0.3324  1.1943 -0.4072
 8803TIP3    H250605   6.261   2.088  11.727 -0.0023 -0.6285 -0.0128
 8804TIP3   OH250606   3.845   7.823  13.325 -0.3956 -0.8282  0.2331
 8804TIP3    H150607   3.931   7.840  13.287 -1.4142  2.5096 -0.9080
 8804TIP3    H250608   3.836   7.890  13.393 -2.1755 -1.0265  0.2235
 8805TIP3   OH250609   5.926   8.160  11.759 -0.7575 -0.8281 -0.0677
 8805TIP3    H150610   5.918   8.113  11.677  0.0502 -1.3246  0.1237
 8805TIP3    H250611   5.961   8.096  11.821 -1.2310 -0.4289  0.6343
 8806TIP3   OH250612   7.637   6.338  11.673 -0.8563 -0.4940 -0.0936
 8806TIP3    H150613   7.721   6.308  11.640 -0.7401  1.0210 -1.3118
 8806TIP3    H250614   7.659   6.398  11.744 -0.9633 -0.9490  0.3279
 8807TIP3   OH250615   0.573   8.123  13.644  0.8407 -0.1769  0.3032
 8807TIP3    H150616   0.626   8.188  13.689  0.6811  0.4755 -0.4149
 8807TIP3    H250617   0.627   8.096  13.569  1.0314 -1.1027  0.7666
 8808TIP3   OH250618   2.089   6.719  12.571  0.2946  0.3798 -0.4838
 8808TIP3    H150619   2.027   6.658  12.610  0.6696  1.5673  2.1884
 8808TIP3    H250620   2.035   6.781  12.522 -0.3625 -0.2072 -0.5153
 8809TIP3   OH250621   6.904   1.055  13.283  0.0697  0.1756  0.1843
 8809TIP3    H150622   6.920   1.078  13.375 -1.1055  1.4643  0.0967
 8809TIP3    H250623   6.970   0.988  13.264  0.7486  0.3304  1.7786
 8810TIP3   OH250624   2.494   4.529  12.550  0.6050  0.1029  0.0332
 8810TIP3    H150625   2.415   4.577  12.526  0.3351 -0.3784 -0.0517
 8810TIP3    H250626   2.486   4.516  12.645  0.0730 -0.8346 -0.1244
 8811TIP3   OH250627   5.188   6.564  12.274 -0.3783  0.3346 -0.1221
 8811TIP3    H150628   5.231   6.520  12.348 -1.6980  0.0333  0.4882
 8811TIP3    H250629   5.251   6.556  12.202  0.7034  0.1541  0.8117
 8812TIP3   OH250630   4.639   0.717  11.722 -0.2730  0.0665 -0.0015
 8812TIP3    H150631   4.599   0.798  11.689  0.5154 -0.1732 -1.6243
 8812TIP3    H250632   4.567   0.671  11.765 -0.8583  1.3631  0.4664
 8813TIP3   OH250633   5.595   2.272  13.007 -0.6286  0.3252  0.0243
 8813TIP3    H150634   5.556   2.195  13.048 -1.3868  0.2873 -0.7339
 8813TIP3    H250635   5.596   2.338  13.077 -1.0707 -0.0102  0.3572
 8814TIP3   OH250636   4.049   6.789  11.388 -0.3336 -0.4634 -0.3166
 8814TIP3    H150637   4.116   6.856  11.401  0.3219 -0.8098 -1.7394
 8814TIP3    H250638   3.968   6.831  11.416 -0.0867  1.2678 -2.0115
 8815TIP3   OH250639   5.284   5.316  12.638 -0.2043 -0.0072  0.3817
 8815TIP3    H150640   5.345   5.251  12.673  0.4348  0.4919  0.2200
 8815TIP3    H250641   5.248   5.360  12.715  0.2753  0.2615  0.4547
 8816TIP3   OH250642   2.099   5.701  12.603  0.6802 -0.1692 -0.3723
 8816TIP3    H150643   2.170   5.752  12.564  0.0042 -0.7231 -2.4482
 8816TIP3    H250644   2.085   5.629  12.542 -1.8486  0.0761 -0.1636
 8817TIP3   OH250645   0.162   4.152  12.523  0.4475 -0.2127 -0.2240
 8817TIP3    H150646   0.113   4.114  12.451 -0.7901  1.5465 -0.3708
 8817TIP3    H250647   0.164   4.246  12.504  0.0180  0.3190  2.0470
 8818TIP3   OH250648   1.210   4.546  11.785 -0.2526  0.0085 -0.1018
 8818TIP3    H150649   1.296   4.581  11.762  1.0391 -3.6892 -1.7964
 8818TIP3    H250650   1.205   4.555  11.880  0.1610  3.8026 -0.2823
 8819TIP3   OH250651   2.120   4.046  13.340  0.2587 -0.0681 -0.2902
 8819TIP3    H150652   2.071   4.122  13.370 -0.0825 -0.6216  0.5858
 8819TIP3    H250653   2.197   4.083  13.296  0.6894  0.7874  1.1158
 8820TIP3   OH250654   0.964   6.569  13.094  0.6472  0.3549  0.7164
 8820TIP3    H150655   1.007   6.523  13.167  1.1959  1.5329  1.1618
 8820TIP3    H250656   0.991   6.520  13.016  1.5186  0.1229  1.1494
 8821TIP3   OH250657   4.126   3.574  13.606 -0.1215  0.9174 -0.2451
 8821TIP3    H150658   4.200   3.623  13.571  0.9466 -0.4914 -0.0411
 8821TIP3    H250659   4.059   3.579  13.538  0.1787  2.1028 -0.4820
 8822TIP3   OH250660   0.450   7.523  11.626 -0.4896  0.1196  0.5208
 8822TIP3    H150661   0.356   7.527  11.612 -0.3783  2.4368  0.0072
 8822TIP3    H250662   0.476   7.614  11.639  1.5086 -0.5954  1.9542
 8823TIP3   OH250663   8.092   5.192  13.252 -0.3265  0.4674  0.1795
 8823TIP3    H150664   8.051   5.210  13.167  0.5076  0.0996 -0.3135
 8823TIP3    H250665   8.022   5.207  13.316 -0.4634  2.6557 -0.3997
 8824TIP3   OH250666   6.363   2.680  11.943 -0.1419 -0.3232  0.1575
 8824TIP3    H150667   6.323   2.765  11.959  1.1489  0.5005 -0.8293
 8824TIP3    H250668   6.342   2.660  11.852  2.6678  0.7502 -0.8258
 8825TIP3   OH250669   2.068   7.845  11.764  0.2165  0.2505 -0.2883
 8825TIP3    H150670   2.037   7.926  11.723  0.1316  1.5823  2.2592
 8825TIP3    H250671   2.158   7.836  11.733  0.4304  1.6501 -0.1426
 8826TIP3   OH250672   3.205   1.996  12.964 -0.0228 -0.2824  0.4797
 8826TIP3    H150673   3.246   2.051  13.031 -0.1123 -0.3730  0.6066
 8826TIP3    H250674   3.274   1.983  12.899 -0.3767  1.0966 -0.2228
 8827TIP3   OH250675   4.337   7.739  13.192  0.4165  0.1748 -0.7019
 8827TIP3    H150676   4.364   7.650  13.214  0.8073  0.3859 -0.3082
 8827TIP3    H250677   4.343   7.743  13.096  0.4781 -0.1960 -0.7140
 8828TIP3   OH250678   5.228   3.128  13.682 -0.4940 -0.5357  0.2257
 8828TIP3    H150679   5.202   3.195  13.619 -0.4985  0.2004  0.9905
 8828TIP3    H250680   5.323   3.122  13.673 -0.7121 -2.2541 -1.6130
 8829TIP3   OH250681   2.039   2.925  13.128 -0.1162 -0.2051 -0.2459
 8829TIP3    H150682   2.072   2.993  13.186 -1.1074  1.3577 -1.4193
 8829TIP3    H250683   2.117   2.877  13.100  0.6788  0.8466  0.1236
 8830TIP3   OH250684   5.362   4.202  13.742  0.2799  0.4797 -0.0885
 8830TIP3    H150685   5.374   4.297  13.735 -0.5064  0.5617 -0.3697
 8830TIP3    H250686   5.275   4.192  13.781 -0.5658 -0.1387 -2.0405
 8831TIP3   OH250687   0.019   0.731  13.289  0.2025 -0.2837  0.2096
 8831TIP3    H150688   0.011   0.826  13.285  2.2452 -0.0600  0.0180
 8831TIP3    H250689  -0.065   0.698  13.259 -0.0726  1.4676 -1.1187
 8832TIP3   OH250690   3.064   6.651  13.003 -0.6582 -0.0497 -0.5176
 8832TIP3    H150691   3.047   6.669  13.095 -0.9013 -0.4355 -0.4859
 8832TIP3    H250692   3.155   6.622  13.000 -0.8883 -0.8137 -0.2871
 8833TIP3   OH250693   2.510   5.712  11.617  0.2094  0.3662  0.2228
 8833TIP3    H150694   2.559   5.750  11.544 -0.2742 -1.3328 -1.0397
 8833TIP3    H250695   2.420   5.709  11.586 -0.7290  3.0195  2.3370
 8834TIP3   OH250696   4.291   2.570  13.633 -0.1829 -0.2136 -0.0072
 8834TIP3    H150697   4.228   2.638  13.653  1.1435  1.0648 -0.0371
 8834TIP3    H250698   4.353   2.571  13.706  0.6122 -0.4517 -0.6600
 8835TIP3   OH250699   5.146   2.752  12.167 -0.1573 -0.1745 -0.3765
 8835TIP3    H150700   5.179   2.669  12.133  1.3192  0.2370 -0.0060
 8835TIP3    H250701   5.115   2.731  12.255  0.9486 -0.2051  0.0243
 8836TIP3   OH250702   6.690   5.213  12.024 -0.1597  0.0777 -0.2655
 8836TIP3    H150703   6.620   5.240  12.083  0.7840  1.0867  0.4267
 8836TIP3    H250704   6.768   5.209  12.079  0.0706 -2.6519 -0.6648
 8837TIP3   OH250705   1.094   6.133  12.293  0.7640 -0.4120  0.1536
 8837TIP3    H150706   1.079   6.223  12.264  1.5019 -0.7965 -1.5331
 8837TIP3    H250707   1.163   6.101  12.235  0.1891 -2.2203  0.4285
 8838TIP3   OH250708   3.747   6.589  13.716 -0.4038 -0.5010  0.5870
 8838TIP3    H150709   3.804   6.666  13.709 -1.6306  0.3708 -0.1662
 8838TIP3    H250710   3.772   6.548  13.798  1.7028 -0.4840  0.0077
 8839TIP3   OH250711   0.185   1.681  12.860  0.1711 -0.8945 -0.6560
 8839TIP3    H150712   0.230   1.609  12.904  1.8418  0.5914  0.1799
 8839TIP3    H250713   0.221   1.760  12.899 -3.2383  0.4641  0.1211
 8840TIP3   OH250714   0.773   8.316  12.938  0.3113  0.4236 -0.6361
 8840TIP3    H150715   0.816   8.232  12.918 -0.0511 -0.5342  2.1697
 8840TIP3    H250716   0.845   8.378  12.946  0.8562 -0.2840  0.1333
 8841TIP3   OH250717   5.396   3.973  12.387  0.0606  0.2164 -0.4397
 8841TIP3    H150718   5.429   3.891  12.423  0.5248  0.2392 -0.8020
 8841TIP3    H250719   5.338   4.007  12.455  0.7845  0.1752  0.2264
 8842TIP3   OH250720   3.303   1.335  13.012  0.8565  0.0420 -0.2644
 8842TIP3    H150721   3.350   1.366  13.090 -0.1141 -0.0421  0.3698
 8842TIP3    H250722   3.356   1.261  12.981  0.2804 -1.1690  1.4599
 8843TIP3   OH250723   2.621   4.269  12.540  0.0426  0.0371  0.0447
 8843TIP3    H150724   2.553   4.210  12.570  0.2026  0.1145  0.5904
 8843TIP3    H250725   2.580   4.355  12.539 -0.1163 -0.0446 -0.4931
 8844TIP3   OH250726   8.070   7.065  12.221 -0.0062 -0.4783  0.4811
 8844TIP3    H150727   7.984   7.087  12.259  0.1472  1.6117 -0.2993
 8844TIP3    H250728   8.088   6.977  12.256 -2.1256 -0.6957  1.2358
 8845TIP3   OH250729   0.639   0.388  12.560 -0.6014 -0.5717 -0.4714
 8845TIP3    H150730   0.599   0.312  12.602 -0.5325 -0.5653 -0.3948
 8845TIP3    H250731   0.643   0.364  12.467  1.1594 -1.4592 -0.2177
 8846TIP3   OH250732   1.735   3.392  12.088 -0.1799 -0.0270  0.3925
 8846TIP3    H150733   1.649   3.416  12.124 -0.5424  0.8409 -0.9843
 8846TIP3    H250734   1.784   3.474  12.087  0.0563 -0.1712 -0.4457
 8847TIP3   OH250735   2.326   3.880  12.063  0.6170 -0.1658  0.1801
 8847TIP3    H150736   2.245   3.918  12.028  0.7728 -0.4551 -0.5083
 8847TIP3    H250737   2.317   3.786  12.047  1.6796 -0.0729 -1.1779
 8848TIP3   OH250738   4.111   2.848  13.764 -0.7858 -0.6036  0.5132
 8848TIP3    H150739   4.131   2.774  13.822 -0.4424 -1.5255 -0.7304
 8848TIP3    H250740   4.188   2.904  13.770  0.8064 -2.3606 -1.5084
 8849TIP3   OH250741   3.682   3.903  12.956 -0.5856  0.3206 -0.4775
 8849TIP3    H150742   3.694   3.809  12.943  0.4312  0.2010  1.0612
 8849TIP3    H250743   3.613   3.909  13.023 -2.3498  0.7798 -2.2296
 8850TIP3   OH250744   4.676   6.481  12.381  0.0076  0.1352 -0.5646
 8850TIP3    H150745   4.703   6.520  12.464  1.2170 -0.0387 -0.8500
 8850TIP3    H250746   4.755   6.487  12.326 -0.3641 -0.9851 -1.2417
 8851TIP3   OH250747   5.263   6.049  12.828 -0.3655 -0.5908  0.0512
 8851TIP3    H150748   5.187   6.060  12.771 -0.3220  0.2709  0.1407
 8851TIP3    H250749   5.338   6.049  12.769 -0.1263  2.5792  0.1933
 8852TIP3   OH250750   3.609   7.058  12.511 -0.3417 -0.0078 -0.2964
 8852TIP3    H150751   3.698   7.075  12.479 -1.0293 -1.1155 -3.0567
 8852TIP3    H250752   3.622   7.014  12.595  1.7224 -0.0394 -0.5771
 8853TIP3   OH250753   0.640   2.134  12.179  0.0035  0.3582 -0.0770
 8853TIP3    H150754   0.606   2.120  12.090 -1.2747 -0.7846  0.5500
 8853TIP3    H250755   0.714   2.073  12.185  1.3245  1.8087 -0.9614
 8854TIP3   OH250756   0.569   2.351  13.169  0.1696  0.0461 -0.0318
 8854TIP3    H150757   0.654   2.319  13.199  1.2600 -0.2999 -3.0982
 8854TIP3    H250758   0.538   2.284  13.108 -1.4655  0.9932 -0.3179
 8855TIP3   OH250759   7.057   2.061  11.433 -0.5362  0.0380 -0.1139
 8855TIP3    H150760   7.087   2.111  11.357 -0.5930 -0.9660 -0.8173
 8855TIP3    H250761   7.123   2.079  11.500  0.5227 -0.4730 -0.9780
 8856TIP3   OH250762   5.483   4.773  11.886  0.5987 -0.0336  0.7310
 8856TIP3    H150763   5.435   4.815  11.814  2.2108 -0.4562 -0.6686
 8856TIP3    H250764   5.541   4.841  11.920  1.6230 -0.4610 -0.0756
 8857TIP3   OH250765   1.535   7.607  11.641  0.3348  0.5436  0.5033
 8857TIP3    H150766   1.629   7.592  11.634 -0.0957 -2.0410 -0.8700
 8857TIP3    H250767   1.502   7.534  11.692 -1.0055  1.1733  0.5964
 8858TIP3   OH250768   3.008   5.319  12.959  0.4864  0.4001  0.0384
 8858TIP3    H150769   2.985   5.355  12.874 -0.4672  0.9099  0.4890
 8858TIP3    H250770   2.972   5.230  12.958 -1.7044  1.1953  0.7425
 8859TIP3   OH250771   0.394   5.990  13.442 -0.3115  0.1659  0.7750
 8859TIP3    H150772   0.408   5.910  13.492  2.2697  0.1998  0.2244
 8859TIP3    H250773   0.356   5.960  13.360 -0.0043 -0.4274  0.8416
 8860TIP3   OH250774   7.126   7.096  12.766 -0.5476 -0.2184  0.0268
 8860TIP3    H150775   7.077   7.136  12.695  1.3634  0.0314 -1.2161
 8860TIP3    H250776   7.216   7.088  12.733  0.1334 -1.2881  1.9334
 8861TIP3   OH250777   4.377   2.190  12.059 -0.2468  0.3014 -0.5539
 8861TIP3    H150778   4.370   2.111  12.113 -0.3690  0.5071 -0.2655
 8861TIP3    H250779   4.357   2.160  11.970  2.0320 -0.4772 -0.8772
 8862TIP3   OH250780   3.414   4.909  13.517  0.0373  0.2346  0.1590
 8862TIP3    H150781   3.406   4.916  13.613  1.4241 -2.2564  0.5443
 8862TIP3    H250782   3.495   4.956  13.497 -0.7213  1.5388  0.0444
 8863TIP3   OH250783   7.772   2.007  12.849  0.1608 -0.8002 -0.3355
 8863TIP3    H150784   7.709   1.979  12.915  1.6045  1.8399  2.4073
 8863TIP3    H250785   7.858   1.982  12.886  0.9853  0.3414 -1.4029
 8864TIP3   OH250786   2.759   6.940  11.855 -0.1052  0.8261 -0.1660
 8864TIP3    H150787   2.827   7.001  11.882  0.8880 -1.0382  1.8810
 8864TIP3    H250788   2.807   6.865  11.818 -0.9742 -0.4351  1.1338
 8865TIP3   OH250789   0.252   3.424  12.611 -0.3139  0.2012 -0.2292
 8865TIP3    H150790   0.303   3.447  12.533 -0.0862 -2.8162 -1.1015
 8865TIP3    H250791   0.317   3.415  12.680 -0.1798  0.3591 -0.3348
 8866TIP3   OH250792   2.226   6.889  12.088 -0.2940  0.6093  0.4821
 8866TIP3    H150793   2.256   6.851  12.170  1.1383  2.6468  0.9933
 8866TIP3    H250794   2.185   6.817  12.041  0.3980 -1.0112  2.2456
 8867TIP3   OH250795   1.495   4.565  12.469  0.2106 -0.1564 -0.1374
 8867TIP3    H150796   1.456   4.627  12.408  0.4869  0.7071  0.5540
 8867TIP3    H250797   1.420   4.522  12.509 -0.0425  0.9877  0.6582
 8868TIP3   OH250798   3.060   6.912  13.330  0.4848  0.4734 -0.0019
 8868TIP3    H150799   3.085   6.948  13.245  0.8445  0.3874  0.0648
 8868TIP3    H250800   3.134   6.932  13.387  0.1698  0.6793  0.3326
 8869TIP3   OH250801   6.084   6.965  13.173  0.0407 -0.2532  0.0888
 8869TIP3    H150802   6.131   6.882  13.184 -0.3782 -0.3859  1.0293
 8869TIP3    H250803   6.085   7.004  13.261 -1.5654 -0.2553  0.1282
 8870TIP3   OH250804   5.745   7.031  11.987  0.1072 -0.3341 -0.6228
 8870TIP3    H150805   5.704   7.051  11.903 -0.0965  2.3021  0.0229
 8870TIP3    H250806   5.798   6.953  11.970 -1.7999 -1.3019 -2.5550
 8871TIP3   OH250807   1.317   4.273  12.168  0.2010  0.0761 -0.2953
 8871TIP3    H150808   1.404   4.276  12.208  0.3420  1.1075 -0.6697
 8871TIP3    H250809   1.296   4.364  12.148 -0.9044 -0.1754 -0.3490
 8872TIP3   OH250810   2.166   0.232  13.793 -0.0613 -0.2868  0.2117
 8872TIP3    H150811   2.260   0.215  13.796  0.4672  1.6708 -2.1663
 8872TIP3    H250812   2.129   0.152  13.756  0.8198 -0.6231  0.0270
 8873TIP3   OH250813   0.508   3.376  13.248  0.2974  0.1360  0.4442
 8873TIP3    H150814   0.440   3.383  13.181  0.5220 -1.3341  0.0194
 8873TIP3    H250815   0.493   3.290  13.288  1.3359  0.1742  0.9547
 8874TIP3   OH250816   5.865   7.793  12.454  0.5654  0.7605  0.3068
 8874TIP3    H150817   5.875   7.789  12.549 -0.0259 -1.7764  0.3201
 8874TIP3    H250818   5.777   7.828  12.440 -1.0857 -2.7622  0.9017
 8875TIP3   OH250819   6.178   4.608  11.589  0.1985 -0.1147 -0.2735
 8875TIP3    H150820   6.163   4.701  11.570  0.8430  0.9947  3.6793
 8875TIP3    H250821   6.272   4.602  11.604  0.3032 -1.6723 -1.3079
 8876TIP3   OH250822   6.679   0.810  12.079 -0.3242 -0.1696  0.2812
 8876TIP3    H150823   6.611   0.743  12.075  0.7267 -1.2621  0.0508
 8876TIP3    H250824   6.686   0.832  12.172  0.4674 -1.6236  0.5905
 8877TIP3   OH250825   5.359   3.634  12.393  0.3037 -0.3046  0.0978
 8877TIP3    H150826   5.264   3.648  12.395  0.3251 -0.2876  1.7466
 8877TIP3    H250827   5.389   3.661  12.480  1.9579  0.5917 -0.7067
 8878TIP3   OH250828   2.721   2.715  12.769  1.0480 -0.2884 -0.2217
 8878TIP3    H150829   2.641   2.738  12.720  1.3154  1.1208 -0.0315
 8878TIP3    H250830   2.729   2.621  12.757 -3.2972 -1.5415  3.6330
 8879TIP3   OH250831   7.948   0.076  11.726  0.0294 -0.3140  0.8205
 8879TIP3    H150832   8.037   0.111  11.733 -0.4924  1.1834  0.3633
 8879TIP3    H250833   7.960  -0.012  11.689  1.2802  0.1767 -0.0280
 8880TIP3   OH250834   5.596   0.046  12.878  0.2663 -0.0749 -0.2077
 8880TIP3    H150835   5.643   0.113  12.829  1.0408 -0.3125  0.2073
 8880TIP3    H250836   5.622  -0.037  12.838 -3.2429 -0.0847 -3.0155
 8881TIP3   OH250837   7.616   1.389  12.487  0.2734 -0.0455 -0.6069
 8881TIP3    H150838   7.598   1.465  12.543  0.8644 -0.3174 -0.0409
 8881TIP3    H250839   7.596   1.420  12.398  0.6856  0.8327 -0.4066
 8882TIP3   OH250840   2.545   3.246  12.611 -0.2065  0.5071  0.3115
 8882TIP3    H150841   2.618   3.293  12.651  0.6621  0.8772 -1.5851
 8882TIP3    H250842   2.550   3.158  12.648  0.7547  0.7326  0.7529
 8883TIP3   OH250843   5.594   4.913  13.173  0.1509  0.0275 -0.4073
 8883TIP3    H150844   5.500   4.931  13.168 -0.4035 -2.7334 -1.6372
 8883TIP3    H250845   5.622   4.956  13.254 -2.8105 -1.5860  1.6812
 8884TIP3   OH250846   6.207   1.579  12.132  0.4581 -0.0314 -0.7908
 8884TIP3    H150847   6.292   1.602  12.094  0.4591 -0.5387 -1.1001
 8884TIP3    H250848   6.145   1.637  12.089  0.8079  1.2912  0.4038
 8885TIP3   OH250849   8.025   7.116  13.945  0.0308 -0.1875 -0.0023
 8885TIP3    H150850   7.995   7.030  13.917  0.8649 -1.1033  1.7129
 8885TIP3    H250851   8.118   7.118  13.920  0.3851 -0.4088  1.2113
 8886TIP3   OH250852   3.971   7.428  11.717  0.3791 -0.0461 -0.2090
 8886TIP3    H150853   3.959   7.333  11.727  0.3078 -0.1422 -1.1249
 8886TIP3    H250854   3.884   7.461  11.697  0.0723  0.4684  1.7247
 8887TIP3   OH250855   5.715   2.685  12.896  0.1670 -0.6599  0.0417
 8887TIP3    H150856   5.809   2.696  12.886  0.2715 -1.5325 -0.0456
 8887TIP3    H250857   5.677   2.731  12.821  0.5349 -0.5219 -0.0632
 8888TIP3   OH250858   4.234   0.481  13.675  0.1094 -0.7437 -0.2163
 8888TIP3    H150859   4.270   0.540  13.609  0.5285 -0.1385  0.5401
 8888TIP3    H250860   4.307   0.423  13.698 -0.4040 -1.8433 -1.2383
 8889TIP3   OH250861   5.313   7.502  11.508  0.2034 -0.7079  0.0539
 8889TIP3    H150862   5.224   7.518  11.478  0.9051  0.8731 -1.3633
 8889TIP3    H250863   5.347   7.435  11.449  0.3285 -0.4555 -0.1613
 8890TIP3   OH250864   4.378   8.394  13.185  0.4401  0.1111  0.8203
 8890TIP3    H150865   4.416   8.306  13.181 -1.0991 -0.5840  0.6071
 8890TIP3    H250866   4.396   8.431  13.098  2.2903  0.5663  1.3620
 8891TIP3   OH250867   5.143   3.363  13.564  0.3385  0.1770 -0.8082
 8891TIP3    H150868   5.144   3.444  13.614 -0.0154  0.6406 -1.5411
 8891TIP3    H250869   5.152   3.390  13.473  0.3600 -0.6155 -1.0543
 8892TIP3   OH250870   0.854   0.825  12.962  0.0581 -0.5285 -0.3319
 8892TIP3    H150871   0.816   0.741  12.990 -0.7970 -0.2668 -0.6579
 8892TIP3    H250872   0.824   0.887  13.028 -0.2969 -0.2753 -0.7236
 8893TIP3   OH250873   7.776   5.405  13.065 -0.1147  0.1167  0.2608
 8893TIP3    H150874   7.745   5.438  13.149  0.3939 -1.6503  1.2203
 8893TIP3    H250875   7.698   5.371  13.021 -0.4287  1.3275 -0.1315
 8894TIP3   OH250876   1.849   4.253  13.037 -0.5054 -0.2244 -0.5899
 8894TIP3    H150877   1.803   4.193  12.978  0.9186 -1.1547 -0.8152
 8894TIP3    H250878   1.800   4.248  13.119 -1.5094 -0.2345 -1.1667
 8895TIP3   OH250879   6.033   0.634  11.619  0.3426 -0.4736  0.3708
 8895TIP3    H150880   6.074   0.684  11.549 -0.5486 -1.5128 -0.9297
 8895TIP3    H250881   5.958   0.687  11.646 -0.2536 -0.8165 -0.5906
 8896TIP3   OH250882   6.971   1.904  12.534 -0.8312  0.2515 -0.2116
 8896TIP3    H150883   7.062   1.920  12.509 -1.2868  0.8378 -1.6036
 8896TIP3    H250884   6.977   1.848  12.612  0.7058 -0.1148 -0.5513
 8897TIP3   OH250885   2.442   0.535  12.870 -0.2401 -0.2616  0.1145
 8897TIP3    H150886   2.362   0.537  12.922  1.0719  1.1250  2.2441
 8897TIP3    H250887   2.464   0.442  12.862 -0.2384 -0.5118  2.5100
 8898TIP3   OH250888   4.120   6.182  11.693  0.6276 -0.0572  0.1409
 8898TIP3    H150889   4.189   6.117  11.704 -0.6992 -1.2853  1.8996
 8898TIP3    H250890   4.039   6.132  11.700 -0.5269  1.2538 -2.2790
 8899TIP3   OH250891   4.273   5.673  13.816 -0.1462 -0.8245 -0.0438
 8899TIP3    H150892   4.284   5.626  13.899 -0.3364 -0.8237 -0.0164
 8899TIP3    H250893   4.336   5.632  13.757 -0.1529 -0.9641  0.0445
 8900TIP3   OH250894   1.944   6.490  13.575 -0.2290  0.4177  0.7478
 8900TIP3    H150895   1.849   6.500  13.581 -0.4026  2.8427 -2.7512
 8900TIP3    H250896   1.978   6.578  13.587  0.6730  1.3720 -5.4352
 8901TIP3   OH250897   7.962   0.646  12.849 -1.1341 -0.1677  0.1862
 8901TIP3    H150898   7.946   0.601  12.931 -1.8402  2.1736  1.4315
 8901TIP3    H250899   7.949   0.739  12.869  0.3630  0.6508 -2.1744
 8902TIP3   OH250900   4.154   3.003  11.848  0.2236 -0.5655  0.0319
 8902TIP3    H150901   4.230   3.058  11.868  0.0619  0.2998 -1.5560
 8902TIP3    H250902   4.127   2.968  11.932 -0.8775  3.3613  1.5361
 8903TIP3   OH250903   1.703   3.601  13.660  0.1624 -0.0783 -0.4555
 8903TIP3    H150904   1.755   3.680  13.674 -0.9215  0.3998  1.2288
 8903TIP3    H250905   1.755   3.531  13.699 -0.1481  0.3040  0.6970
 8904TIP3   OH250906   5.560   8.211  12.423  0.9673 -0.1518 -0.3770
 8904TIP3    H150907   5.495   8.200  12.353 -0.6855  1.6784  0.7517
 8904TIP3    H250908   5.511   8.190  12.503  2.2494 -0.3196  0.3783
 8905TIP3   OH250909   1.411   4.313  12.905 -0.9463 -0.0116  0.1906
 8905TIP3    H150910   1.381   4.259  12.979 -0.6770  0.7623  0.8839
 8905TIP3    H250911   1.377   4.401  12.925 -1.2093  0.1253 -0.8170
 8906TIP3   OH250912   4.512   4.645  11.974 -0.1656  0.0775 -0.3709
 8906TIP3    H150913   4.559   4.725  11.949  1.5364 -1.4691 -2.4499
 8906TIP3    H250914   4.423   4.660  11.942  0.1076  1.1451 -0.6946
 8907TIP3   OH250915   6.144   5.926  12.777  0.3121  0.0672 -0.0932
 8907TIP3    H150916   6.220   5.919  12.835 -0.2011 -1.7499  0.4156
 8907TIP3    H250917   6.178   5.905  12.690  0.5426  0.0260  0.0057
 8908TIP3   OH250918   1.756   7.519  12.645  0.2418  0.0654 -0.2504
 8908TIP3    H150919   1.687   7.585  12.647 -1.3338 -1.5028 -0.6285
 8908TIP3    H250920   1.733   7.461  12.573  0.4755 -2.0065  1.2395
 8909TIP3   OH250921   5.308   6.430  12.471  0.3134  0.0125 -0.3041
 8909TIP3    H150922   5.385   6.426  12.528 -0.6861  1.6931  1.3007
 8909TIP3    H250923   5.233   6.423  12.531 -0.7870  0.9023 -1.4966
 8910TIP3   OH250924   7.130   3.426  11.419 -0.1551  0.1193 -0.3439
 8910TIP3    H150925   7.103   3.335  11.409 -0.6572  0.1620  0.4760
 8910TIP3    H250926   7.070   3.475  11.363 -1.2345  0.1201  0.7512
 8911TIP3   OH250927   5.299   0.140  13.664 -0.3313  0.3682  0.2081
 8911TIP3    H150928   5.218   0.127  13.615  0.4849 -0.3039 -1.0368
 8911TIP3    H250929   5.299   0.070  13.729  0.3834 -1.2840 -1.4425
 8912TIP3   OH250930   4.087   0.259  11.877  0.3483  0.5028  0.2902
 8912TIP3    H150931   4.106   0.290  11.789  1.3189  2.0588  1.0096
 8912TIP3    H250932   4.160   0.201  11.898 -1.4157 -2.4344 -1.0168
 8913TIP3   OH250933   6.017   5.683  12.906  0.1563  0.1087 -0.0591
 8913TIP3    H150934   6.084   5.616  12.915  0.0142 -0.1617 -0.9030
 8913TIP3    H250935   6.056   5.748  12.847 -0.2301  0.0644 -0.3680
 8914TIP3   OH250936   7.877   1.851  11.440 -0.0989  0.4707  0.2358
 8914TIP3    H150937   7.949   1.910  11.459 -0.0771  0.5021  0.0533
 8914TIP3    H250938   7.798   1.902  11.459 -0.0807  0.5688  0.0431
 8915TIP3   OH250939   7.959   2.406  12.446 -0.5336 -0.1282  0.2626
 8915TIP3    H150940   8.039   2.452  12.421  0.2782 -2.2336 -1.2456
 8915TIP3    H250941   7.890   2.471  12.434  0.4312  0.4933 -2.7269
 8916TIP3   OH250942   8.408   2.408  12.154  0.3306 -0.2484 -0.2030
 8916TIP3    H150943   8.436   2.433  12.066 -0.0722  0.1457 -0.2231
 8916TIP3    H250944   8.438   2.479  12.210  0.5075 -0.4562 -0.0302
 8917TIP3   OH250945   3.358   3.619  13.743 -0.0668 -0.6311  0.2501
 8917TIP3    H150946   3.339   3.707  13.711 -0.6969 -1.0747 -0.6302
 8917TIP3    H250947   3.307   3.561  13.686  0.1570 -1.5523  0.9667
 8918TIP3   OH250948   6.155   4.862  12.138 -0.0173  0.6178  0.1823
 8918TIP3    H150949   6.113   4.776  12.130  0.2962  0.4653  0.1306
 8918TIP3    H250950   6.198   4.859  12.224  1.8874 -0.1499 -0.7315
 8919TIP3   OH250951   2.807   4.608  12.565 -0.7211  0.1545  0.1492
 8919TIP3    H150952   2.835   4.569  12.648 -1.0149  0.0334  0.1902
 8919TIP3    H250953   2.721   4.570  12.548 -0.6560  0.1655 -0.2193
 8920TIP3   OH250954   1.694   1.663  12.280 -0.2113 -0.4193 -0.5885
 8920TIP3    H150955   1.668   1.587  12.332  1.4032 -1.8113 -1.6878
 8920TIP3    H250956   1.672   1.639  12.190  1.7700 -0.3456 -1.1521
 8921TIP3   OH250957   0.625   7.683  12.810 -0.0006  0.5769  0.2823
 8921TIP3    H150958   0.620   7.588  12.805  1.3646  0.4658  0.7117
 8921TIP3    H250959   0.595   7.714  12.725 -0.4017 -0.2279  0.1237
 8922TIP3   OH250960   2.292   2.401  12.551 -0.4008 -0.3787 -0.4160
 8922TIP3    H150961   2.287   2.426  12.458  2.2738  0.2174 -0.4786
 8922TIP3    H250962   2.217   2.343  12.564  0.0859 -1.9226 -3.4214
 8923TIP3   OH250963   7.323   4.936  13.703 -0.5105  0.2708 -0.0197
 8923TIP3    H150964   7.389   4.953  13.636 -0.7162  3.1820  0.3953
 8923TIP3    H250965   7.363   4.871  13.761  1.7429  1.4883 -0.1237
 8924TIP3   OH250966   5.127   0.389  12.043  0.1191  0.6608  0.0071
 8924TIP3    H150967   5.055   0.385  12.106  0.2815  1.1994  0.2306
 8924TIP3    H250968   5.084   0.398  11.958 -0.0901  0.3948  0.0835
 8925TIP3   OH250969   4.798   6.399  11.654  0.5582 -0.2182  0.4399
 8925TIP3    H150970   4.842   6.316  11.674  4.3661  1.5203  0.2638
 8925TIP3    H250971   4.792   6.443  11.738  0.3542  0.0900  0.2632
 8926TIP3   OH250972   0.913   4.847  12.712  0.1625 -0.2959  0.0274
 8926TIP3    H150973   0.837   4.893  12.749 -0.5224 -0.0545 -1.6156
 8926TIP3    H250974   0.882   4.757  12.699  1.1426 -1.0072  2.1523
 8927TIP3   OH250975   4.311   0.107  11.972  0.1959 -0.6817  0.4553
 8927TIP3    H150976   4.358   0.107  12.055  0.8818 -0.8618  0.0725
 8927TIP3    H250977   4.373   0.070  11.909 -0.2295 -0.3282 -0.1834
 8928TIP3   OH250978   7.966   0.910  11.630 -0.0204 -0.1336  0.2622
 8928TIP3    H150979   7.980   0.951  11.545  0.5731  1.3920  1.0625
 8928TIP3    H250980   7.888   0.953  11.664  0.7233  0.5016  1.2011
 8929TIP3   OH250981   6.877   3.726  11.740  0.0682 -0.1529 -0.2986
 8929TIP3    H150982   6.917   3.805  11.776 -0.2414  0.3101 -0.9611
 8929TIP3    H250983   6.839   3.682  11.817 -0.6656  0.8691 -0.0598
 8930TIP3   OH250984   0.486   5.117  13.642 -0.0593  0.0135  0.4379
 8930TIP3    H150985   0.429   5.055  13.598  0.1440  0.4146 -0.4005
 8930TIP3    H250986   0.574   5.081  13.633 -0.0510 -0.0770  0.8318
 8931TIP3   OH250987   2.647   7.199  12.818 -0.3244  0.1096 -0.0977
 8931TIP3    H150988   2.622   7.116  12.777 -0.7973  0.4121 -0.4282
 8931TIP3    H250989   2.743   7.203  12.807  0.2563 -2.0469  3.0047
 8932TIP3   OH250990   1.842   5.125  13.335  0.5317 -0.1161 -0.2681
 8932TIP3    H150991   1.936   5.144  13.341  0.4317 -0.0153  1.7239
 8932TIP3    H250992   1.810   5.138  13.424 -1.1970 -1.1063 -0.7135
 8933TIP3   OH250993   5.113   0.821  12.971 -0.0549 -0.5467  0.1639
 8933TIP3    H150994   5.075   0.740  13.006 -2.5863  0.7484  0.6548
 8933TIP3    H250995   5.136   0.872  13.049 -2.9276  1.1069  0.0585
 8934TIP3   OH250996   7.861   7.099  12.467 -0.2354 -0.0076 -0.4743
 8934TIP3    H150997   7.787   7.054  12.509 -0.2931  0.1013 -0.4590
 8934TIP3    H250998   7.873   7.179  12.519 -0.3766  0.1792 -0.7256
 8935TIP3   OH250999   7.992   7.502  11.534 -0.3537  0.5078  0.5000
 8935TIP3    H151000   7.977   7.593  11.507 -0.5501  0.6923  1.2166
 8935TIP3    H251001   8.039   7.509  11.616 -1.4071 -0.0237  1.1688
 8936TIP3   OH251002   1.835   5.082  12.961 -0.3498 -0.3242  0.6502
 8936TIP3    H151003   1.798   5.003  12.921 -0.4509  0.3603 -0.6649
 8936TIP3    H251004   1.813   5.074  13.054 -0.4525 -1.7829  0.5225
 8937TIP3   OH251005   6.677   6.882  13.150  0.0701 -0.1186  0.1433
 8937TIP3    H151006   6.588   6.852  13.134  0.0253  0.2642 -0.3578
 8937TIP3    H251007   6.669   6.977  13.157  0.4374 -0.0870  0.1394
 8938TIP3   OH251008   0.533   7.084  12.147  0.1982  0.3048 -0.3993
 8938TIP3    H151009   0.462   7.028  12.117  0.7474  0.4034 -1.9647
 8938TIP3    H251010   0.490   7.164  12.177 -0.3998  0.0642 -0.5983
 8939TIP3   OH251011   5.460   1.158  13.078  0.3053 -0.3461  0.4356
 8939TIP3    H151012   5.486   1.168  12.987  1.3824 -0.1950  0.7444
 8939TIP3    H251013   5.494   1.236  13.122  2.0724 -1.5925  1.4341
 8940TIP3   OH251014   4.530   0.936  13.613 -0.4127 -0.3584  0.2394
 8940TIP3    H151015   4.539   1.031  13.624  1.9660 -0.4133 -0.6001
 8940TIP3    H251016   4.451   0.913  13.662 -1.2572  2.0954  0.1547
 8941TIP3   OH251017   2.330   6.580  12.028 -0.1349  0.3075 -0.0671
 8941TIP3    H151018   2.425   6.590  12.041 -0.2195 -0.0165  0.9449
 8941TIP3    H251019   2.322   6.514  11.960  0.3656  0.3868 -0.2124
 8942TIP3   OH251020   1.317   7.777  13.427 -0.1253 -0.2212  0.1055
 8942TIP3    H151021   1.300   7.760  13.519 -0.0343 -1.8537 -0.1451
 8942TIP3    H251022   1.268   7.857  13.408 -1.8998 -1.0201  1.0665
 8943TIP3   OH251023   3.415   6.585  13.415  0.2403  0.1887  0.4158
 8943TIP3    H151024   3.422   6.555  13.506 -0.4069  0.5531  0.5932
 8943TIP3    H251025   3.325   6.616  13.407  0.1989 -0.1452 -0.4509
 8944TIP3   OH251026   4.443   4.391  12.666  0.1826 -0.2740  0.1054
 8944TIP3    H151027   4.417   4.423  12.580  1.5554 -1.3610 -0.7542
 8944TIP3    H251028   4.492   4.464  12.705 -0.3223  0.1674 -0.0694
 8945TIP3   OH251029   6.368   6.832  12.259 -0.2234 -0.4420  0.1815
 8945TIP3    H151030   6.430   6.815  12.188  1.1697 -1.5839  1.6033
 8945TIP3    H251031   6.357   6.748  12.303 -2.7403 -0.2653  0.0822
 8946TIP3   OH251032   3.098   2.002  14.178  0.1074 -0.5529 -0.0800
 8946TIP3    H151033   3.031   1.946  14.216  0.7727 -1.4326 -0.1452
 8946TIP3    H251034   3.068   2.019  14.089 -1.1371  0.9771  0.6066
 8947TIP3   OH251035   0.971   0.517  13.313 -0.6313 -0.3932  0.5481
 8947TIP3    H151036   0.978   0.431  13.355  1.2708  0.0781  1.3169
 8947TIP3    H251037   0.877   0.531  13.302 -0.9876 -2.9655 -0.4875
 8948TIP3   OH251038   6.061   5.400  11.402 -0.0447  0.0394 -0.0494
 8948TIP3    H151039   6.073   5.475  11.460 -0.2001 -0.6440  0.8966
 8948TIP3    H251040   6.129   5.339  11.428  0.0377 -0.1754 -0.7634
 8949TIP3   OH251041   7.425   6.068  12.081  0.2216 -0.1394 -0.1114
 8949TIP3    H151042   7.515   6.038  12.096  0.3547  0.2978 -0.0274
 8949TIP3    H251043   7.434   6.152  12.036 -0.0737  1.1470  2.0773
 8950TIP3   OH251044   6.832   5.041  12.878  0.0069  0.1277 -0.8544
 8950TIP3    H151045   6.758   5.063  12.935  0.2188  1.1995 -0.9715
 8950TIP3    H251046   6.836   4.946  12.880 -1.4542  0.0422 -0.9485
 8951TIP3   OH251047   3.151   3.638  12.787 -0.6632  0.1724  0.1723
 8951TIP3    H151048   3.094   3.562  12.774  0.8923 -0.8515 -1.0659
 8951TIP3    H251049   3.205   3.641  12.708  0.0978  1.8840  0.7271
 8952TIP3   OH251050   7.782   2.484  11.125  0.0858 -0.2392 -0.1961
 8952TIP3    H151051   7.707   2.424  11.129 -0.8484  0.6405 -2.6310
 8952TIP3    H251052   7.854   2.430  11.093  0.4391 -0.9880  1.7258
 8953TIP3   OH251053   7.183   4.912  12.495 -0.9713 -0.0163  0.5054
 8953TIP3    H151054   7.186   4.903  12.400  2.3293 -1.3140  0.6058
 8953TIP3    H251055   7.184   4.822  12.528  0.3094  0.4131  1.7392
 8954TIP3   OH251056   2.505   1.067  12.137  0.9396  0.2685  0.1018
 8954TIP3    H151057   2.560   1.072  12.215 -1.2253 -0.8532  1.8505
 8954TIP3    H251058   2.457   1.150  12.136 -2.3424 -1.3351  2.8144
 8955TIP3   OH251059   3.669   1.017  14.357 -0.4858 -0.0000 -0.6360
 8955TIP3    H151060   3.625   0.934  14.336 -0.0638  0.2039 -2.4741
 8955TIP3    H251061   3.609   1.084  14.324  0.2195  0.3454 -1.2284
 8956TIP3   OH251062   0.898   1.473  12.526 -0.4564 -0.6060  0.0327
 8956TIP3    H151063   0.911   1.390  12.481  0.6166 -0.8507  0.7507
 8956TIP3    H251064   0.957   1.469  12.602 -0.2782  0.8641  0.0089
 8957TIP3   OH251065   7.077   1.537  12.813 -0.3534  0.4744  0.4588
 8957TIP3    H151066   7.013   1.497  12.754 -0.3201  1.1105 -0.0266
 8957TIP3    H251067   7.137   1.583  12.754  1.0963 -0.8620  0.8382
 8958TIP3   OH251068   5.147   4.665  12.203 -0.0339 -0.7561 -0.4165
 8958TIP3    H151069   5.129   4.583  12.156  0.7118 -2.3903  1.9710
 8958TIP3    H251070   5.208   4.639  12.272 -0.7786  1.5880  1.2115
 8959TIP3   OH251071   3.838   1.064  13.580 -0.6499  0.4257 -0.2613
 8959TIP3    H151072   3.906   1.052  13.647  0.9185  1.2111 -1.6400
 8959TIP3    H251073   3.759   1.026  13.619  0.3596  0.2464  1.7475
 8960TIP3   OH251074   5.094   6.543  11.676  0.7898  0.1180 -0.4088
 8960TIP3    H151075   5.022   6.570  11.733  0.7270  1.8253 -1.2401
 8960TIP3    H251076   5.065   6.567  11.588  2.0050 -0.0216 -0.8618
 8961TIP3   OH251077   7.268   7.888  11.986 -0.2293  0.3548 -0.0428
 8961TIP3    H151078   7.219   7.843  12.055 -0.3294  1.6565  0.7757
 8961TIP3    H251079   7.358   7.854  11.995 -0.3802  0.0316  0.2901
 8962TIP3   OH251080   6.286   8.286  12.759  0.0311 -0.0364 -0.3026
 8962TIP3    H151081   6.241   8.314  12.680  1.0745 -0.5090 -1.1010
 8962TIP3    H251082   6.353   8.224  12.728 -0.0402 -0.8358  1.0300
 8963TIP3   OH251083   6.979   4.363  12.876 -0.6624  0.4471  0.1947
 8963TIP3    H151084   6.998   4.431  12.811 -0.9268 -1.1541 -1.6462
 8963TIP3    H251085   7.059   4.355  12.927 -0.0665  1.0156 -0.6216
 8964TIP3   OH251086   7.991   1.746  13.484 -0.0740  0.0210 -0.3681
 8964TIP3    H151087   7.904   1.781  13.505 -0.8734 -1.8386 -0.3775
 8964TIP3    H251088   7.977   1.652  13.473  2.0317 -0.3855  0.0034
 8965TIP3   OH251089   0.275   1.791  13.298 -0.2579 -0.4585  0.1684
 8965TIP3    H151090   0.208   1.728  13.323 -1.5293  0.9628  0.4994
 8965TIP3    H251091   0.228   1.873  13.284  1.2028  0.1936 -1.2713
 8966TIP3   OH251092   7.376   5.392  13.513 -0.2468  0.7524  0.0287
 8966TIP3    H151093   7.444   5.458  13.522 -0.8334  1.0659  3.1261
 8966TIP3    H251094   7.319   5.405  13.588 -1.0905 -2.4652  0.1084
 8967TIP3   OH251095   7.479   0.345  12.124  0.1833 -0.0337 -0.3558
 8967TIP3    H151096   7.549   0.384  12.175 -0.1062  0.6006 -0.4354
 8967TIP3    H251097   7.436   0.284  12.185  1.1501 -0.8567 -0.4812
 8968TIP3   OH251098   4.313   1.749  12.730  0.2808  0.4532 -0.7828
 8968TIP3    H151099   4.358   1.729  12.812 -1.2792 -1.2130 -0.2778
 8968TIP3    H251100   4.321   1.844  12.721  0.0926  0.7334  1.5328
 8969TIP3   OH251101   6.439   7.548  11.885  0.4453 -0.0788 -0.0204
 8969TIP3    H151102   6.390   7.626  11.912  0.4193 -0.0634 -0.1090
 8969TIP3    H251103   6.430   7.547  11.789 -0.1438 -0.5826  0.0336
 8970TIP3   OH251104   6.848   0.033  12.269  0.5408  0.5369  0.7226
 8970TIP3    H151105   6.776   0.064  12.214  0.7460  0.6558  0.5186
 8970TIP3    H251106   6.900  -0.023  12.211 -0.0585 -0.5291  1.2011
 8971TIP3   OH251107   4.362   3.871  11.733  0.0640  0.4392  0.1785
 8971TIP3    H151108   4.350   3.855  11.639  0.6376  2.2323 -0.2547
 8971TIP3    H251109   4.436   3.817  11.758 -1.4136 -1.7203  0.1447
 8972TIP3   OH251110   0.993   5.222  13.547 -0.0876  0.0821 -0.1416
 8972TIP3    H151111   0.969   5.261  13.462 -2.0969 -1.0954 -0.1724
 8972TIP3    H251112   1.058   5.154  13.524  0.8129  1.0263 -0.4808
 8973TIP3   OH251113   0.824   6.806  12.461  0.0929  0.5845  0.0493
 8973TIP3    H151114   0.741   6.853  12.466 -0.8251 -1.0739  1.1901
 8973TIP3    H251115   0.891   6.875  12.465 -1.1911  1.9348 -0.7071
 8974TIP3   OH251116   8.382   7.311  13.340 -0.6039 -0.1668 -0.4248
 8974TIP3    H151117   8.359   7.218  13.328 -1.6612 -0.0697  0.6379
 8974TIP3    H251118   8.460   7.309  13.396 -1.8097 -0.4092  1.3136
 8975TIP3   OH251119   0.237   0.029  13.546  0.0630  0.0346  0.2104
 8975TIP3    H151120   0.330   0.048  13.538 -0.0618  0.4797 -0.2603
 8975TIP3    H251121   0.218   0.039  13.639  0.6080 -0.6682  0.4079
 8976TIP3   OH251122   2.826   5.572  12.396 -0.0082  0.3748  0.4349
 8976TIP3    H151123   2.858   5.605  12.480  0.3308  1.0780  0.0402
 8976TIP3    H251124   2.825   5.649  12.339 -0.8726  0.0399 -0.0211
 8977TIP3   OH251125   4.851   1.227  12.443 -0.0480 -0.2358 -0.1431
 8977TIP3    H151126   4.775   1.278  12.416 -2.3106 -3.8110 -1.2092
 8977TIP3    H251127   4.874   1.176  12.365  1.7868 -1.1825  0.9540
 8978TIP3   OH251128   6.837   7.458  12.577 -0.1675  0.0267 -0.0121
 8978TIP3    H151129   6.835   7.398  12.651 -0.2044 -1.9788 -1.5454
 8978TIP3    H251130   6.752   7.446  12.534  1.3237 -2.1684 -2.7419
 8979TIP3   OH251131   1.660   3.386  12.669 -0.0237  0.2372  0.2981
 8979TIP3    H151132   1.682   3.405  12.760 -0.4083  0.9475  0.2521
 8979TIP3    H251133   1.741   3.351  12.631  0.4306  0.8924  0.6469
 8980TIP3   OH251134   4.869   5.628  13.150 -0.3382  0.1301 -0.1894
 8980TIP3    H151135   4.848   5.670  13.066  0.5438  1.2057  0.1063
 8980TIP3    H251136   4.813   5.550  13.152  0.1612 -0.3380 -2.1149
 8981TIP3   OH251137   8.425   2.447  12.769 -0.3056  0.3503  0.4992
 8981TIP3    H151138   8.360   2.508  12.805 -1.5379 -0.4627 -0.2405
 8981TIP3    H251139   8.392   2.360  12.794  0.7141 -0.0745  0.4156
 8982TIP3   OH251140   6.260   5.163  13.354 -0.3130  0.1610 -0.4500
 8982TIP3    H151141   6.166   5.148  13.348 -0.8786  2.7089  0.5523
 8982TIP3    H251142   6.279   5.155  13.448  0.4663 -0.2694 -0.6372
 8983TIP3   OH251143   7.415   1.284  12.038 -0.0405  0.3620  0.8832
 8983TIP3    H151144   7.388   1.367  11.999  0.8119  0.8756  1.3587
 8983TIP3    H251145   7.481   1.308  12.103  1.3885 -0.8102 -0.0728
 8984TIP3   OH251146   6.103   3.113  12.898 -0.4866 -0.0356  0.6476
 8984TIP3    H151147   6.086   3.207  12.894  1.3541  0.3237  0.2920
 8984TIP3    H251148   6.138   3.092  12.811 -0.3895 -0.9390  0.8966
 8985TIP3   OH251149   2.501   2.249  13.599  0.1286  0.0944 -0.0974
 8985TIP3    H151150   2.529   2.211  13.682  1.6301 -1.6169 -1.3146
 8985TIP3    H251151   2.475   2.338  13.621  0.3496 -0.3562  2.2161
 8986TIP3   OH251152   6.765   0.312  13.221 -0.3510 -0.7131 -0.0159
 8986TIP3    H151153   6.809   0.299  13.305 -1.6960  1.1752  1.0633
 8986TIP3    H251154   6.833   0.347  13.164  0.5114 -1.7212  0.3626
 8987TIP3   OH251155   1.862   1.442  11.710  0.2149  0.2588  0.6780
 8987TIP3    H151156   1.780   1.480  11.741 -0.1105  0.1164  0.0258
 8987TIP3    H251157   1.873   1.362  11.762  0.0417  0.3801  0.9011
 8988TIP3   OH251158   7.506   6.297  11.960  0.2237  0.4037  0.3720
 8988TIP3    H151159   7.587   6.342  11.936  0.1458  1.1810  1.4756
 8988TIP3    H251160   7.437   6.361  11.942 -0.0116  0.2628  0.7599
 8989TIP3   OH251161   4.878   0.633  11.799  0.2745  0.1765  0.4858
 8989TIP3    H151162   4.920   0.692  11.861 -0.2125  1.0126  0.0345
 8989TIP3    H251163   4.795   0.676  11.777  0.2879 -0.2745 -0.4859
 8990TIP3   OH251164   1.152   3.674  13.757  0.0427  0.5645 -0.1846
 8990TIP3    H151165   1.239   3.650  13.723  0.0248  1.0591 -0.5972
 8990TIP3    H251166   1.171   3.728  13.834  0.1377  2.0728 -1.2379
 8991TIP3   OH251167   6.669   5.619  11.705  0.2498 -0.0577  0.0069
 8991TIP3    H151168   6.712   5.549  11.754  0.3872  0.0935  0.0992
 8991TIP3    H251169   6.608   5.573  11.647 -0.9151 -0.1707  1.2872
 8992TIP3   OH251170   5.535   0.093  12.517 -0.7438 -0.8327  0.4844
 8992TIP3    H151171   5.537   0.120  12.425  2.4156  1.6970  1.1021
 8992TIP3    H251172   5.599   0.022  12.522  0.0613 -0.0943  0.8961
 8993TIP3   OH251173   4.595   4.864  13.660  0.0780  0.2645 -0.6033
 8993TIP3    H151174   4.682   4.904  13.670 -0.3748  1.3917 -1.0123
 8993TIP3    H251175   4.579   4.821  13.744  0.8698  0.3769 -0.3833
 8994TIP3   OH251176   3.960   3.471  13.110 -0.2645  0.0429  0.1927
 8994TIP3    H151177   3.873   3.496  13.081 -0.0979 -0.4778 -0.7891
 8994TIP3    H251178   3.949   3.383  13.146 -0.3534  0.4426  1.1894
 8995TIP3   OH251179   4.892   5.190  14.073  0.4790 -0.3802  0.2545
 8995TIP3    H151180   4.872   5.282  14.089  0.4940  0.4733 -3.6652
 8995TIP3    H251181   4.807   5.147  14.074  0.1035  0.2922 -0.8408
 8996TIP3   OH251182   6.353   3.331  13.042  0.1515  0.0287  0.6218
 8996TIP3    H151183   6.317   3.387  12.974 -0.6058 -1.2602 -0.0786
 8996TIP3    H251184   6.293   3.341  13.116  0.2085  0.3802  0.6228
 8997TIP3   OH251185   0.680   0.056  12.302 -0.2300  0.0552 -0.1131
 8997TIP3    H151186   0.605   0.032  12.248 -1.6293  0.0489  1.7405
 8997TIP3    H251187   0.680  -0.008  12.373 -0.0811  1.6138  1.3618
 8998TIP3   OH251188   1.922   0.764  12.549  0.1892 -0.1067  0.2413
 8998TIP3    H151189   1.979   0.691  12.526  0.8864  0.7131 -0.7074
 8998TIP3    H251190   1.947   0.787  12.639 -0.7335 -1.6448  0.9269
 8999TIP3   OH251191   1.268   7.342  13.491 -0.0761  0.0054  0.3429
 8999TIP3    H151192   1.197   7.279  13.484  0.1885 -0.3909  1.0356
 8999TIP3    H251193   1.258   7.400  13.416 -0.1128 -1.0782 -0.5088
 9000TIP3   OH251194   2.127   4.093  11.856 -0.0438 -0.5846  0.0656
 9000TIP3    H151195   2.142   4.009  11.813 -0.1235 -0.2414 -0.6457
 9000TIP3    H251196   2.170   4.157  11.799 -4.4923  0.5649 -2.4493
 9001TIP3   OH251197   6.838   6.297  12.138 -0.3397  0.1889 -0.0420
 9001TIP3    H151198   6.816   6.285  12.231  0.3629 -0.1887  0.0814
 9001TIP3    H251199   6.835   6.392  12.125  1.1721  0.3862  0.7878
 9002TIP3   OH251200   4.310   0.819  13.261 -0.2218  0.7517 -0.2167
 9002TIP3    H151201   4.383   0.876  13.284  1.3065 -0.7753 -1.0762
 9002TIP3    H251202   4.319   0.744  13.319 -1.2912  0.6690 -0.1387
 9003TIP3   OH251203   4.320   1.307  12.803 -0.4308  1.0011 -0.3234
 9003TIP3    H151204   4.238   1.355  12.818 -2.1488 -1.5607 -0.7644
 9003TIP3    H251205   4.365   1.310  12.887 -0.9638  2.4459 -0.0522
 9004TIP3   OH251206   5.852   2.379  13.222 -0.2114 -0.3398  0.3058
 9004TIP3    H151207   5.765   2.393  13.185  0.2763  0.9415 -0.4111
 9004TIP3    H251208   5.836   2.355  13.313 -1.3836 -2.1091 -0.3048
 9005TIP3   OH251209   8.099   1.416  12.268 -0.9606 -0.0932 -0.1476
 9005TIP3    H151210   8.146   1.375  12.195  1.2533 -1.2171  1.7558
 9005TIP3    H251211   8.015   1.370  12.272 -1.8717  1.1512 -2.9320
 9006TIP3   OH251212   0.804   2.034  11.914  0.1103 -0.0484 -0.2824
 9006TIP3    H151213   0.785   2.127  11.928 -0.3177 -0.0188 -1.0326
 9006TIP3    H251214   0.806   2.024  11.819  0.4643 -0.7482 -0.2054
 9007TIP3   OH251215   2.407   0.017  11.632 -0.0443  0.3217 -0.2914
 9007TIP3    H151216   2.488   0.040  11.587 -0.1173 -1.1060 -1.2067
 9007TIP3    H251217   2.375   0.100  11.666  2.1169  0.8476  0.6598
 9008TIP3   OH251218   1.443   2.479  12.967  0.2960  0.0009  0.1600
 9008TIP3    H151219   1.503   2.495  12.895  0.1256  0.0579  0.0308
 9008TIP3    H251220   1.399   2.563  12.981 -1.3201 -0.5612 -1.1756
 9009TIP3   OH251221   3.082   1.286  12.168  0.2229  0.2224  0.0715
 9009TIP3    H151222   3.025   1.255  12.097 -1.3441 -1.0873  1.8283
 9009TIP3    H251223   3.059   1.233  12.243  3.5032 -0.0725  1.0407
 9010TIP3   OH251224   4.806   6.558  11.880 -0.9066 -0.0237 -0.2317
 9010TIP3    H151225   4.776   6.650  11.882  0.9354  0.7017 -2.4294
 9010TIP3    H251226   4.883   6.557  11.937  0.7496  0.5402 -2.3411
 9011TIP3   OH251227   2.098   2.111  12.862  0.2209 -0.5431  0.2288
 9011TIP3    H151228   2.090   2.206  12.852  0.4425 -0.7176 -1.9096
 9011TIP3    H251229   2.149   2.100  12.942  0.5589  1.1499  0.2858
 9012TIP3   OH251230   3.154   2.501  12.283  0.3393 -0.0278 -0.3107
 9012TIP3    H151231   3.180   2.435  12.218 -2.4216 -1.1992 -0.3717
 9012TIP3    H251232   3.079   2.462  12.328  0.0304  2.1655  1.2377
 9013TIP3   OH251233   8.161   6.595  12.825 -0.5415 -0.1932  0.1626
 9013TIP3    H151234   8.089   6.634  12.874 -0.2510  1.0677 -0.3698
 9013TIP3    H251235   8.193   6.665  12.768  1.5577 -0.4892  0.8544
 9014TIP3   OH251236   3.712   0.089  12.907  0.1392 -0.0943 -0.1465
 9014TIP3    H151237   3.789   0.068  12.959  1.4508 -0.7829 -2.2428
 9014TIP3    H251238   3.640   0.043  12.951  1.4867 -2.1032  0.1013
 9015TIP3   OH251239   7.408   6.742  13.345  0.3388 -0.2048 -0.7150
 9015TIP3    H151240   7.466   6.721  13.272 -1.8524 -1.4378 -2.2155
 9015TIP3    H251241   7.416   6.666  13.404  0.6119 -0.1368 -0.6629
 9016TIP3   OH251242   5.706   3.283  12.216  0.2390 -0.2366 -0.0540
 9016TIP3    H151243   5.634   3.344  12.233  0.9776  0.9229 -0.9600
 9016TIP3    H251244   5.664   3.197  12.216 -1.3809  0.4803 -1.6782
 9017TIP3   OH251245   0.400   6.013  12.498 -0.2895  0.0387 -0.1999
 9017TIP3    H151246   0.388   6.001  12.592  0.9653 -0.7123 -0.1163
 9017TIP3    H251247   0.483   6.059  12.489 -0.3967  0.1057 -0.9538
 9018TIP3   OH251248   8.321   3.084  12.149  0.2346 -0.0081  0.4010
 9018TIP3    H151249   8.414   3.088  12.129 -0.0914  1.8662 -1.0637
 9018TIP3    H251250   8.292   3.175  12.148 -1.6305 -0.5450  0.8149
 9019TIP3   OH251251   5.003   4.713  12.982 -0.0043  0.5696 -0.4639
 9019TIP3    H151252   4.918   4.754  12.963 -0.2102  0.5022  0.2911
 9019TIP3    H251253   5.063   4.754  12.921 -0.7907 -0.1853 -1.8035
 9020TIP3   OH251254   6.552   3.828  11.488 -0.2812 -0.4810  0.1353
 9020TIP3    H151255   6.571   3.903  11.544  1.0321 -0.1177 -0.7492
 9020TIP3    H251256   6.463   3.843  11.457  0.3902  1.4282 -1.0527
 9021TIP3   OH251257   3.874   2.197  13.390 -0.1569 -0.1904  0.0483
 9021TIP3    H151258   3.924   2.205  13.471 -0.3760 -1.7325  0.3644
 9021TIP3    H251259   3.842   2.286  13.373  1.8515  0.6325  0.3493
 9022TIP3   OH251260   1.555   3.227  11.962 -0.6189 -0.2614 -0.1702
 9022TIP3    H151261   1.504   3.283  11.903 -0.6258 -0.1071 -0.0202
 9022TIP3    H251262   1.627   3.282  11.992 -2.3485  0.7960  2.4714
 9023TIP3   OH251263   1.073   3.475  12.967  0.2721  0.3186 -0.0895
 9023TIP3    H151264   1.057   3.439  13.055  1.4096 -0.8140 -0.3344
 9023TIP3    H251265   0.985   3.482  12.928 -0.2711  1.0278  1.1833
 9024TIP3   OH251266   0.277   3.153  12.609 -0.0424 -0.2243  0.2682
 9024TIP3    H151267   0.254   3.246  12.612 -1.4899 -0.5148 -0.6660
 9024TIP3    H251268   0.200   3.108  12.642  0.7511 -1.1069  0.9816
 9025TIP3   OH251269   3.102   7.640  12.348  0.0290 -0.5320 -0.3130
 9025TIP3    H151270   3.159   7.625  12.424 -0.7697 -0.7456  0.2644
 9025TIP3    H251271   3.122   7.730  12.320 -1.4692  0.5641  1.7925
 9026TIP3   OH251272   5.261   8.167  12.333 -0.1345  0.5249  0.3429
 9026TIP3    H151273   5.241   8.242  12.277 -1.1224  0.4053  0.5232
 9026TIP3    H251274   5.300   8.103  12.274  0.4835  1.0820  0.1391
 9027TIP3   OH251275   6.490   6.716  11.430  0.4931  0.2856 -0.0971
 9027TIP3    H151276   6.434   6.643  11.403 -0.6932  0.5065  1.5536
 9027TIP3    H251277   6.574   6.700  11.388 -0.3339 -0.9549 -1.3558
 9028TIP3   OH251278   7.605   7.562  12.453  0.1824 -0.2895 -0.1095
 9028TIP3    H151279   7.567   7.478  12.481 -1.7659 -0.7096 -3.5255
 9028TIP3    H251280   7.532   7.624  12.460  0.6626  0.3565 -0.7729
 9029TIP3   OH251281   1.259   5.568  12.683  0.2298  0.2414 -0.0674
 9029TIP3    H151282   1.237   5.574  12.776 -0.2649 -2.2968  0.0524
 9029TIP3    H251283   1.336   5.512  12.681 -1.3287 -2.0444 -1.2502
 9030TIP3   OH251284   2.548   5.769  12.784 -0.1292  0.8360 -0.3388
 9030TIP3    H151285   2.571   5.836  12.849  2.9412 -0.1127 -0.2713
 9030TIP3    H251286   2.576   5.687  12.824 -1.8808 -0.2660 -1.2853
 9031TIP3   OH251287   0.857   7.643  11.914 -0.3845  0.0094 -0.1706
 9031TIP3    H151288   0.944   7.632  11.951  0.1523 -1.5481 -1.7641
 9031TIP3    H251289   0.803   7.581  11.963 -0.6658  1.0285  0.8686
 9032TIP3   OH251290   1.448   4.591  13.031  0.1502  0.1023 -0.5037
 9032TIP3    H151291   1.411   4.604  13.118  0.8152 -2.2516  0.2092
 9032TIP3    H251292   1.527   4.646  13.030  0.7523 -0.6815  0.8480
 9033TIP3   OH251293   3.679   5.223  11.760 -0.2519  0.0900 -0.2288
 9033TIP3    H151294   3.687   5.303  11.708  1.2709 -1.2568 -2.1746
 9033TIP3    H251295   3.734   5.239  11.837 -0.4336  1.1093 -0.2971
 9034TIP3   OH251296   8.131   8.345  13.143 -0.4975 -0.0335  0.3228
 9034TIP3    H151297   8.050   8.308  13.180 -0.2672  1.1802  2.1861
 9034TIP3    H251298   8.164   8.402  13.212  1.5327  0.1317 -0.7316
 9035TIP3   OH251299   1.523   0.557  12.095  0.6708 -0.0123  0.3979
 9035TIP3    H151300   1.440   0.575  12.051  0.3495  1.2429  1.4576
 9035TIP3    H251301   1.545   0.467  12.069  0.6047  0.6775 -2.4205
 9036TIP3   OH251302   5.074   5.050  11.965 -0.2932  1.0858  0.1700
 9036TIP3    H151303   5.049   5.138  11.991  0.7066  0.9149  1.8473
 9036TIP3    H251304   5.118   5.061  11.881 -0.4579  2.1282  0.2081
 9037TIP3   OH251305   5.258   5.804  13.957  0.0434 -0.1878  0.0869
 9037TIP3    H151306   5.185   5.865  13.966  0.0574 -0.3475  1.6981
 9037TIP3    H251307   5.336   5.859  13.965  0.0606 -0.2961  0.7666
 9038TIP3   OH251308   6.303   0.893  11.751 -0.4110  0.0101  1.1789
 9038TIP3    H151309   6.245   0.840  11.696 -0.6799  1.4798 -0.0104
 9038TIP3    H251310   6.339   0.831  11.815  2.2107 -2.5109 -2.3503
 9039TIP3   OH251311   4.046   5.541  13.485 -0.3944  0.1820 -0.1498
 9039TIP3    H151312   4.031   5.495  13.567  1.3619  0.5154  0.4178
 9039TIP3    H251313   4.024   5.632  13.503  0.3900  0.3328  0.1154
 9040TIP3   OH251314   4.251   8.389  12.743 -0.4446 -0.5024 -0.1336
 9040TIP3    H151315   4.217   8.331  12.811  0.7950 -0.5671  0.4646
 9040TIP3    H251316   4.241   8.340  12.662  0.2594 -1.4274  0.3211
 9041TIP3   OH251317   4.454   6.344  13.017  0.0075 -0.3379  0.5262
 9041TIP3    H151318   4.393   6.344  12.943  0.8648  0.1190 -0.1955
 9041TIP3    H251319   4.524   6.404  12.991  0.3345 -0.1746  1.7074
 9042TIP3   OH251320   6.763   6.700  11.348  0.7744 -0.2583  0.1828
 9042TIP3    H151321   6.818   6.731  11.275  0.7081  1.4309  0.8051
 9042TIP3    H251322   6.825   6.685  11.419  0.8300 -1.8536 -0.1712
 9043TIP3   OH251323   4.839   6.127  13.232  0.2775 -0.0009  0.3657
 9043TIP3    H151324   4.925   6.104  13.266  0.4361  0.2419  0.1253
 9043TIP3    H251325   4.786   6.049  13.246 -0.1649  0.6514  2.8488
 9044TIP3   OH251326   3.920   8.353  12.963 -0.5316 -0.3310  0.2739
 9044TIP3    H151327   4.011   8.334  12.939 -0.5008 -2.1521  1.6502
 9044TIP3    H251328   3.902   8.296  13.037 -2.0216  1.8278  1.7014
 9045TIP3   OH251329   3.422   0.670  11.514  0.1526  0.6627  0.4979
 9045TIP3    H151330   3.337   0.666  11.470  0.8893  2.1215 -1.1674
 9045TIP3    H251331   3.448   0.578  11.523  0.1563  0.2528 -2.6448
 9046TIP3   OH251332   0.632   2.702  12.891 -0.3355 -0.3916  0.1388
 9046TIP3    H151333   0.659   2.787  12.926  0.1064 -0.7040  0.5737
 9046TIP3    H251334   0.558   2.676  12.945 -1.4714  0.4111 -0.9770
 9047TIP3   OH251335   3.916   4.925  12.760 -0.0202  0.0926 -0.0705
 9047TIP3    H151336   3.944   4.855  12.819 -0.4754 -1.5364 -1.6667
 9047TIP3    H251337   3.935   4.891  12.673 -1.4849  1.4115 -0.9520
 9048TIP3   OH251338   6.221   2.904  11.947 -0.5632 -0.1048  0.2046
 9048TIP3    H151339   6.128   2.913  11.929 -0.5226 -2.4787 -1.8316
 9048TIP3    H251340   6.262   2.971  11.893 -0.9586 -1.8516 -2.4709
 9049TIP3   OH251341   6.576   6.184  13.371  0.3927 -0.9338  0.8145
 9049TIP3    H151342   6.530   6.262  13.400  0.7490 -0.1265 -0.6808
 9049TIP3    H251343   6.510   6.114  13.376 -0.6838 -0.0384 -0.1629
 9050TIP3   OH251344   7.735   1.078  12.199  0.3508 -0.0992  0.7643
 9050TIP3    H151345   7.681   1.077  12.120  1.0312  0.9528  0.2577
 9050TIP3    H251346   7.823   1.060  12.167  0.9693  2.3176  0.9569
 9051TIP3   OH251347   1.246   1.756  12.563  0.1644  0.4122  0.0880
 9051TIP3    H151348   1.298   1.822  12.517 -1.1702  0.3106 -1.6863
 9051TIP3    H251349   1.157   1.768  12.529 -0.6053 -0.6773  1.5878
 9052TIP3   OH251350   0.599   1.027  13.463 -0.3235  0.4499  0.0046
 9052TIP3    H151351   0.665   1.056  13.526 -1.0238  2.4322 -0.0878
 9052TIP3    H251352   0.594   0.932  13.475  3.5987 -0.0741 -1.0202
 9053TIP3   OH251353   1.872   6.069  11.634  0.5263 -0.0874 -0.3721
 9053TIP3    H151354   1.787   6.025  11.646  1.2165 -1.2897  0.2680
 9053TIP3    H251355   1.849   6.153  11.596 -1.0054 -0.1850  0.2398
 9054TIP3   OH251356   8.361   7.937  11.833  0.1660  0.0700  0.6107
 9054TIP3    H151357   8.333   7.867  11.774 -0.2785  1.6147 -1.1200
 9054TIP3    H251358   8.293   7.941  11.900 -0.7108 -0.0817 -0.2363
 9055TIP3   OH251359   7.594   3.946  12.599  0.6927  0.0776  0.1379
 9055TIP3    H151360   7.678   3.945  12.645  0.6613 -1.7011  0.2272
 9055TIP3    H251361   7.611   3.997  12.520  1.7290  0.1236  0.3710
 9056TIP3   OH251362   2.826   3.736  12.581  0.2140  0.0725 -0.0735
 9056TIP3    H151363   2.777   3.817  12.566 -2.1100 -1.3809 -0.8793
 9056TIP3    H251364   2.775   3.689  12.647  0.7511 -1.3276 -0.6221
 9057TIP3   OH251365   7.137   4.034  12.207 -0.4725 -0.2921  0.2299
 9057TIP3    H151366   7.231   4.016  12.203 -0.1148  1.3441  0.2738
 9057TIP3    H251367   7.119   4.086  12.129 -1.7529 -2.1348 -0.7550
 9058TIP3   OH251368   3.303   5.443  13.655  0.1764 -0.4265 -0.1547
 9058TIP3    H151369   3.253   5.519  13.683  0.0232 -0.4545 -0.3456
 9058TIP3    H251370   3.349   5.472  13.576  0.3565 -0.4382 -0.0524
 9059TIP3   OH251371   7.532   1.793  12.300  0.0438 -0.1555  0.1261
 9059TIP3    H151372   7.578   1.744  12.368  0.1173 -1.8835 -1.0981
 9059TIP3    H251373   7.549   1.885  12.320 -0.2331 -0.5852  2.6225
 9060TIP3   OH251374   0.838   7.859  12.938  0.1186 -0.5908  0.2532
 9060TIP3    H151375   0.743   7.865  12.949  0.0960  0.3765 -0.3584
 9060TIP3    H251376   0.851   7.785  12.880 -0.1737 -1.4798  1.2845
 9061TIP3   OH251377   0.944   1.782  13.090  0.1099 -0.2699  0.3543
 9061TIP3    H151378   0.999   1.756  13.017  0.0153 -0.1088  0.2257
 9061TIP3    H251379   1.005   1.813  13.157  0.3189 -1.9166  0.9705
 9062TIP3   OH251380   6.697   6.983  12.756 -0.1443 -0.6614  0.4198
 9062TIP3    H151381   6.641   6.943  12.822  0.6685 -0.8898  0.9892
 9062TIP3    H251382   6.785   6.977  12.793  0.0993  0.9331  0.1540
 9063TIP3   OH251383   6.334   7.143  12.872 -0.3673  0.0906 -0.0473
 9063TIP3    H151384   6.395   7.194  12.818 -0.9149  0.0724 -0.7003
 9063TIP3    H251385   6.289   7.087  12.810 -1.6205  0.6753  0.2971
 9064TIP3   OH251386   0.572   1.571  12.142 -0.1156  0.2887 -0.2856
 9064TIP3    H151387   0.639   1.624  12.098  1.4235  0.0430  1.6281
 9064TIP3    H251388   0.548   1.621  12.220 -0.5301 -0.6425  0.2086
 9065TIP3   OH251389   4.486   8.155  11.715 -0.0126 -0.1845 -0.0361
 9065TIP3    H151390   4.578   8.162  11.742  0.3185 -0.9712 -0.8855
 9065TIP3    H251391   4.443   8.110  11.787  0.7040 -1.6290 -0.4821
 9066TIP3   OH251392   3.871   5.198  12.403  0.1118 -0.6646 -0.3763
 9066TIP3    H151393   3.847   5.289  12.386  1.0726 -0.0900  1.1173
 9066TIP3    H251394   3.788   5.155  12.425 -0.0382  0.6061  1.9271
 9067TIP3   OH251395   0.032   5.400  12.663  0.3247  0.5630  0.2355
 9067TIP3    H151396   0.119   5.375  12.632 -0.0680 -1.5415  0.6700
 9067TIP3    H251397  -0.022   5.323  12.648 -1.1478  1.3446  1.2441
 9068TIP3   OH251398   0.338   3.914  12.947  0.7011  0.3362  0.3768
 9068TIP3    H151399   0.305   3.980  12.886 -1.0854 -1.0240 -0.1801
 9068TIP3    H251400   0.387   3.853  12.892 -0.5550 -0.6598  0.3395
 9069TIP3   OH251401   1.546   6.773  12.865 -0.5762  0.1955  0.0102
 9069TIP3    H151402   1.623   6.829  12.880 -1.2777  1.1306  0.2863
 9069TIP3    H251403   1.511   6.802  12.781 -2.1463  1.6913  1.1055
 9070TIP3   OH251404   1.583   3.358  12.350  0.2982  0.1517 -0.4288
 9070TIP3    H151405   1.545   3.416  12.285  1.0824  0.3008 -0.7677
 9070TIP3    H251406   1.665   3.400  12.374 -0.6649  0.9087  1.8065
 9071TIP3   OH251407   1.286   1.373  11.961  0.1307 -0.2970  0.2263
 9071TIP3    H151408   1.197   1.350  11.989  0.1731 -0.3531  0.3151
 9071TIP3    H251409   1.296   1.329  11.876 -0.8743  1.8258 -1.0902
 9072TIP3   OH251410   3.532   1.895  12.032 -0.3976  0.1612  0.3352
 9072TIP3    H151411   3.611   1.841  12.021  0.0022  0.9314 -0.7890
 9072TIP3    H251412   3.566   1.983  12.051 -1.0359  0.1166  1.8488
 9073TIP3   OH251413   6.893   1.120  13.547  0.1778  0.1555  0.0525
 9073TIP3    H151414   6.923   1.053  13.609 -0.8195 -0.5760 -0.2164
 9073TIP3    H251415   6.818   1.160  13.591 -0.2218 -0.0189 -0.4623
 9074TIP3   OH251416   1.460   4.906  12.143 -0.2077  0.2850  0.6023
 9074TIP3    H151417   1.394   4.859  12.092 -0.8883  0.1735  1.5462
 9074TIP3    H251418   1.461   4.995  12.106 -0.0065 -0.0379 -0.1961
 9075TIP3   OH251419   7.231   7.880  13.243  0.4565 -0.3817 -0.2413
 9075TIP3    H151420   7.262   7.879  13.153 -0.5552 -1.0725 -0.5902
 9075TIP3    H251421   7.169   7.808  13.249  0.4682 -0.3249  1.0010
 9076TIP3   OH251422   6.349   8.098  11.844  0.2794  0.0127  0.0042
 9076TIP3    H151423   6.354   8.175  11.901  0.9275  0.0094 -0.0455
 9076TIP3    H251424   6.425   8.045  11.867  1.3741  0.6796 -1.8041
 9077TIP3   OH251425   8.126   2.077  13.575  0.4800  0.5112 -0.2363
 9077TIP3    H151426   8.198   2.057  13.634 -0.2324  0.9564  0.8147
 9077TIP3    H251427   8.129   2.008  13.508 -0.0647 -1.3192  1.5560
 9078TIP3   OH251428   0.902   5.032  13.262 -0.2151  0.0218 -0.5819
 9078TIP3    H151429   0.927   4.983  13.183 -0.9847 -2.1138  0.4087
 9078TIP3    H251430   0.985   5.044  13.310 -0.1213 -1.1883 -0.4103
 9079TIP3   OH251431   3.847   5.519  12.415  0.1605  0.0719 -0.2793
 9079TIP3    H151432   3.757   5.550  12.402 -0.2503 -0.5524  0.9121
 9079TIP3    H251433   3.894   5.548  12.337 -0.7364  1.6857 -0.2665
 9080TIP3   OH251434   5.320   4.858  12.506  0.1718  0.0240 -0.2907
 9080TIP3    H151435   5.226   4.851  12.522  0.2525  1.3180  1.0610
 9080TIP3    H251436   5.326   4.892  12.416 -0.7736  1.9547  0.3123
 9081TIP3   OH251437   5.571   2.250  13.288 -0.1942 -0.4515 -0.0844
 9081TIP3    H151438   5.523   2.173  13.318 -0.2220 -0.0094  1.1009
 9081TIP3    H251439   5.622   2.277  13.365  0.4606  0.2132 -0.7396
 9082TIP3   OH251440   6.705   4.461  12.237 -0.9354 -0.4764  0.0897
 9082TIP3    H151441   6.743   4.543  12.205 -2.5655 -0.8667 -3.3405
 9082TIP3    H251442   6.641   4.488  12.302  2.1140  0.4399  3.0024
 9083TIP3   OH251443   0.061   2.510  13.063  0.9577 -0.3888 -0.4133
 9083TIP3    H151444   0.089   2.561  13.139  0.5557 -0.2924 -0.3295
 9083TIP3    H251445   0.005   2.570  13.013 -1.1820 -1.3528  0.7146
 9084TIP3   OH251446   8.007   5.158  12.852  0.3335  0.3724  0.1265
 9084TIP3    H151447   8.067   5.087  12.827  0.4758  0.9573 -1.2584
 9084TIP3    H251448   7.946   5.116  12.913 -0.1327 -1.1998 -1.3395
 9085TIP3   OH251449   1.212   2.451  12.014  0.1780  0.2200 -0.1140
 9085TIP3    H151450   1.302   2.473  11.989  0.6117 -0.1520  1.0321
 9085TIP3    H251451   1.189   2.376  11.959  0.3454  0.6749 -0.8215
 9086TIP3   OH251452   5.350   4.556  11.596 -0.0240 -0.3032  0.4090
 9086TIP3    H151453   5.322   4.473  11.557  0.4261 -0.3753  0.2320
 9086TIP3    H251454   5.434   4.537  11.636 -0.8969 -0.4685  2.2774
 9087TIP3   OH251455   8.267   0.934  12.718  0.2999 -0.1914  0.0425
 9087TIP3    H151456   8.348   0.905  12.676  0.1176 -2.9458  1.3490
 9087TIP3    H251457   8.296   0.991  12.790  0.8559  1.1183 -1.1842
 9088TIP3   OH251458   5.788   6.364  11.596 -0.2666  0.3618  0.3955
 9088TIP3    H151459   5.715   6.414  11.632 -0.6138 -0.3759  0.7388
 9088TIP3    H251460   5.757   6.273  11.595  0.7586 -0.0099  0.8522
 9089TIP3   OH251461   7.378   5.992  11.433  0.3319 -0.6889 -0.3275
 9089TIP3    H151462   7.455   6.039  11.401  0.6578 -1.5623 -0.8546
 9089TIP3    H251463   7.312   6.060  11.447 -0.2207 -0.3298 -3.8878
 9090TIP3   OH251464   1.289   2.684  13.054 -0.1995  0.0563 -0.5189
 9090TIP3    H151465   1.227   2.755  13.074 -2.0507 -1.3712 -0.9148
 9090TIP3    H251466   1.356   2.690  13.122 -0.6948  1.7207 -0.1324
 9091TIP3   OH251467   4.012   5.766  13.115 -0.2657  0.1640  0.0735
 9091TIP3    H151468   4.043   5.813  13.191  0.4759 -1.3004  0.7215
 9091TIP3    H251469   4.089   5.720  13.081 -0.8269 -0.1408 -0.8557
 9092TIP3   OH251470   2.462   5.191  11.805  0.1076  0.1411 -0.5061
 9092TIP3    H151471   2.551   5.213  11.833 -0.5380  3.3724 -0.6874
 9092TIP3    H251472   2.451   5.236  11.722 -2.6826  2.5572  0.9915
 9093TIP3   OH251473   1.060   7.857  13.224 -0.0093 -0.1651  0.0705
 9093TIP3    H151474   0.988   7.917  13.204 -0.2361 -0.5696 -0.3618
 9093TIP3    H251475   1.025   7.770  13.201  1.0166 -0.2530 -1.2727
 9094TIP3   OH251476   0.648   4.955  13.080  0.1517  0.9343 -0.1377
 9094TIP3    H151477   0.662   4.953  13.174  3.0992 -1.3216 -0.4868
 9094TIP3    H251478   0.694   5.034  13.051  0.0186  1.1403  0.2020
 9095TIP3   OH251479   8.211   4.969  13.120  0.6165  0.5082 -0.0973
 9095TIP3    H151480   8.173   5.033  13.180 -0.8602 -0.9013  0.5557
 9095TIP3    H251481   8.174   4.991  13.034  1.6799  1.7098 -0.2690
 9096TIP3   OH251482   0.686   1.634  13.133 -0.5430  0.3953 -0.7656
 9096TIP3    H151483   0.753   1.657  13.069 -0.2858 -0.6439 -0.8982
 9096TIP3    H251484   0.736   1.602  13.209 -0.8719  0.5169 -0.4961
 9097TIP3   OH251485   5.894   5.083  11.908  0.6298  0.0880  0.8001
 9097TIP3    H151486   5.972   5.139  11.913  1.9115 -1.4063 -1.0004
 9097TIP3    H251487   5.855   5.105  11.824 -0.9290  0.7826  1.6663
 9098TIP3   OH251488   1.930   3.633  13.051 -0.0215  0.1387 -0.0477
 9098TIP3    H151489   1.992   3.645  12.979  0.7289 -0.6550  0.4453
 9098TIP3    H251490   1.856   3.688  13.028  0.0994 -0.2781 -1.5568
 9099TIP3   OH251491   2.711   5.813  11.890  0.6211 -0.1594 -0.9330
 9099TIP3    H151492   2.661   5.889  11.920  0.0406  0.4773 -3.2440
 9099TIP3    H251493   2.663   5.782  11.813  2.1816 -1.3607 -1.4779
 9100TIP3   OH251494   5.987   3.720  12.854  0.0825 -0.4914 -0.3591
 9100TIP3    H151495   5.977   3.791  12.791  0.4379 -1.1195 -1.1285
 9100TIP3    H251496   6.073   3.735  12.894 -1.1711  1.4193  1.9179
 9101TIP3   OH251497   0.543   7.961  12.885  0.4502 -0.2298 -0.3169
 9101TIP3    H151498   0.535   7.867  12.870 -3.3258 -0.3316  1.2773
 9101TIP3    H251499   0.567   7.968  12.977  0.4971  0.4109 -0.3743
 9102TIP3   OH251500   7.968   6.241  13.119  0.0898  0.2052  0.6775
 9102TIP3    H151501   7.963   6.148  13.141  1.1503 -0.4794 -1.5748
 9102TIP3    H251502   7.887   6.259  13.072  0.4736  0.0222 -0.0777
 9103TIP3   OH251503   6.542   4.169  13.045  0.2605 -0.1280  0.1128
 9103TIP3    H151504   6.618   4.198  12.993  0.4261 -1.0746 -0.1936
 9103TIP3    H251505   6.480   4.136  12.979  0.3334 -1.0296  0.4850
 9104TIP3   OH251506   5.246   6.018  11.720 -0.2544 -0.6371  0.3193
 9104TIP3    H151507   5.322   6.076  11.713 -0.0931 -0.7033  1.3005
 9104TIP3    H251508   5.193   6.056  11.791 -1.1303 -0.6062 -0.3391
 9105TIP3   OH251509   5.692   7.701  13.163 -0.1968 -0.0003  0.0787
 9105TIP3    H151510   5.609   7.724  13.206  0.1932  0.0447  0.8323
 9105TIP3    H251511   5.703   7.608  13.181  0.7916  0.3631  1.5687
 9106TIP3   OH251512   0.731   1.337  12.117 -0.0882  0.7907  0.1181
 9106TIP3    H151513   0.649   1.383  12.139  1.2395  2.4179  2.0102
 9106TIP3    H251514   0.765   1.308  12.202  0.4165 -1.5006 -0.8125
 9107TIP3   OH251515   5.685   3.911  12.626  0.4626 -0.2955  0.0550
 9107TIP3    H151516   5.727   3.919  12.540  0.5887  1.6780  0.2552
 9107TIP3    H251517   5.758   3.903  12.687  0.4396  0.1332  0.1384
 9108TIP3   OH251518   6.490   1.197  13.165 -0.2823  0.2528  0.4466
 9108TIP3    H151519   6.580   1.202  13.132  0.8175  0.3258  3.2377
 9108TIP3    H251520   6.474   1.104  13.178 -1.0134  0.1574 -0.9390
 9109TIP3   OH251521   0.141   1.881  12.295 -0.1818 -0.1839 -0.2476
 9109TIP3    H151522   0.223   1.925  12.320 -0.6648  0.3195  0.5038
 9109TIP3    H251523   0.106   1.934  12.223 -0.9642  0.9430  0.9169
 9110TIP3   OH251524   6.134   8.314  12.997 -0.1633  0.0470 -0.9306
 9110TIP3    H151525   6.216   8.315  13.046 -1.0296  0.0823  0.5953
 9110TIP3    H251526   6.159   8.335  12.908  1.4539  0.3128 -0.4466
 9111TIP3   OH251527   6.471   1.009  13.424  0.0507  0.1207  0.3025
 9111TIP3    H151528   6.551   1.016  13.476  1.3199 -1.7327 -1.2879
 9111TIP3    H251529   6.422   0.937  13.465  0.1028 -0.0002  0.1557
 9112TIP3   OH251530   2.014   4.543  11.951  0.3722 -0.2319 -0.2854
 9112TIP3    H151531   2.071   4.584  11.886  0.9749 -0.0453  0.3467
 9112TIP3    H251532   2.071   4.528  12.026 -0.4972  0.3357  0.5174
 9113TIP3   OH251533   4.278   5.916  11.688 -0.6057  0.1939  0.0031
 9113TIP3    H151534   4.270   5.844  11.626  0.9303  0.8159 -0.9589
 9113TIP3    H251535   4.293   5.873  11.772 -1.7891 -0.6302 -0.1778
 9114TIP3   OH251536   3.323   2.518  13.247  0.1948 -0.0149  0.5248
 9114TIP3    H151537   3.370   2.501  13.328  0.1417 -1.0506  0.3410
 9114TIP3    H251538   3.385   2.567  13.193  0.3790  0.3042  1.0166
 9115TIP3   OH251539   8.048   4.916  11.547  0.1676  0.4985  0.5755
 9115TIP3    H151540   7.989   4.917  11.472 -0.1768  1.5948  0.8508
 9115TIP3    H251541   8.009   4.853  11.608  0.6353 -0.6642 -0.2897
 9116TIP3   OH251542   7.655   4.629  11.718  0.1317  0.0638  0.3010
 9116TIP3    H151543   7.662   4.634  11.622  0.1982  0.9762  0.3469
 9116TIP3    H251544   7.727   4.684  11.750  1.0377 -1.4139  0.8963
 9117TIP3   OH251545   4.697   1.368  13.267  0.3249  0.0773  0.0851
 9117TIP3    H151546   4.773   1.320  13.233  0.5581  0.7012 -0.2941
 9117TIP3    H251547   4.623   1.334  13.218  0.4048 -0.3122  0.2331
 9118TIP3   OH251548   5.960   5.539  14.277 -0.0138 -0.1051  0.3981
 9118TIP3    H151549   5.968   5.444  14.268 -0.9110 -0.1919  0.4650
 9118TIP3    H251550   5.884   5.562  14.224  0.3632  0.6176  0.1535
 9119TIP3   OH251551   1.925   7.439  12.844 -0.2104 -0.5190 -0.6309
 9119TIP3    H151552   1.988   7.511  12.842  0.6640 -1.2667 -0.5206
 9119TIP3    H251553   1.859   7.463  12.778  0.4645  0.0186 -1.1233
 9120TIP3   OH251554   5.580   5.327  11.912 -0.1165  0.0422 -0.6034
 9120TIP3    H151555   5.534   5.410  11.921  0.5854  0.3107  0.7668
 9120TIP3    H251556   5.645   5.343  11.843  0.1582  0.7090 -0.1988
 9121TIP3   OH251557   3.966   4.295  11.787 -0.5748 -0.1514  0.0600
 9121TIP3    H151558   4.020   4.268  11.713 -2.4254  2.5249 -2.4851
 9121TIP3    H251559   4.007   4.375  11.820 -1.1411  0.0640  0.2634
 9122TIP3   OH251560   4.311   6.622  11.382 -0.1798  0.0220 -0.1950
 9122TIP3    H151561   4.242   6.684  11.358  0.5539 -0.5266 -4.6134
 9122TIP3    H251562   4.265   6.542  11.408 -1.2273  0.2641 -1.2324
 9123TIP3   OH251563   2.595   8.115  12.741  0.1149 -0.2612 -0.1070
 9123TIP3    H151564   2.609   8.180  12.672 -0.4818 -0.3398 -0.3065
 9123TIP3    H251565   2.540   8.049  12.700 -0.2588 -0.3003  0.4573
 9124TIP3   OH251566   3.517   2.264  14.313 -0.2021  0.3352  0.3673
 9124TIP3    H151567   3.549   2.203  14.379  1.0337 -0.1951 -0.6752
 9124TIP3    H251568   3.422   2.251  14.312 -0.1638 -0.0860  1.5868
 9125TIP3   OH251569   2.230   0.374  12.561 -0.0707 -0.0975 -0.3112
 9125TIP3    H151570   2.215   0.402  12.651 -0.7702  0.2367 -0.5170
 9125TIP3    H251571   2.142   0.367  12.524  0.1640 -1.1081 -0.7101
 9126TIP3   OH251572   0.074   6.859  12.293  0.0203  0.0638 -0.3747
 9126TIP3    H151573   0.070   6.766  12.315  2.0874  0.2736  1.1758
 9126TIP3    H251574   0.069   6.861  12.198 -2.6694 -1.3946 -0.3689
 9127TIP3   OH251575   4.126   1.670  11.907  0.2425 -0.1086  0.7808
 9127TIP3    H151576   4.079   1.600  11.951 -0.1466 -0.0920  0.4024
 9127TIP3    H251577   4.213   1.670  11.947  0.5105 -1.3285  0.2274
 9128TIP3   OH251578   8.134   1.976  12.534  0.4920  0.0977  0.7352
 9128TIP3    H151579   8.115   1.884  12.552  0.2612 -0.0673 -0.3092
 9128TIP3    H251580   8.068   2.024  12.583  0.8959 -0.2571  1.6695
 9129TIP3   OH251581   7.496   2.527  11.871 -0.0152 -0.0173 -0.4623
 9129TIP3    H151582   7.564   2.593  11.888 -1.3344  0.7480  2.7764
 9129TIP3    H251583   7.529   2.447  11.912 -1.4714  0.7364  2.5111
 9130TIP3   OH251584   6.350   6.741  11.732  0.5749 -0.0667 -0.5041
 9130TIP3    H151585   6.261   6.707  11.728  0.1708  0.5105  1.7033
 9130TIP3    H251586   6.381   6.742  11.642 -1.5961 -0.4401 -1.2958
 9131TIP3   OH251587   4.799   5.351  12.872 -0.0543 -0.1520 -0.1776
 9131TIP3    H151588   4.807   5.272  12.820 -1.0242 -2.4857  2.8878
 9131TIP3    H251589   4.887   5.365  12.909 -0.3010 -0.9687  0.7526
 9132TIP3   OH251590   5.461   6.966  11.561 -0.0902 -0.1720  0.0411
 9132TIP3    H151591   5.483   7.058  11.547  0.2823  0.1598  2.4098
 9132TIP3    H251592   5.372   6.957  11.526 -1.1255  1.7602  1.8998
 9133TIP3   OH251593   0.311   4.278  13.450 -0.0424  0.4631 -0.3975
 9133TIP3    H151594   0.294   4.371  13.467 -3.9348  0.1810 -1.8268
 9133TIP3    H251595   0.374   4.278  13.378  1.0018  1.9076  0.4471
 9134TIP3   OH251596   7.224   3.744  12.477 -0.8586  0.6940  0.2850
 9134TIP3    H151597   7.304   3.692  12.466 -2.3427 -1.3460 -2.0717
 9134TIP3    H251598   7.228   3.809  12.406 -0.8838  1.1736  0.7199
 9135TIP3   OH251599   7.820   2.661  13.376  0.2522  0.2830  0.8669
 9135TIP3    H151600   7.802   2.586  13.433  0.3693  0.3875  1.0407
 9135TIP3    H251601   7.879   2.717  13.427  0.4501  0.3195  0.6005
 9136TIP3   OH251602   1.876   2.056  11.992 -0.1387 -0.2785  0.2027
 9136TIP3    H151603   1.909   1.977  11.950 -1.5811 -0.7993 -0.0117
 9136TIP3    H251604   1.907   2.049  12.083 -0.0333 -0.9756  0.1211
 9137TIP3   OH251605   6.067   3.580  13.761 -0.4614  0.2079  0.1424
 9137TIP3    H151606   6.077   3.675  13.768 -0.6632  0.3312 -1.0888
 9137TIP3    H251607   6.014   3.566  13.683 -1.4549 -0.8777  0.9627
 9138TIP3   OH251608   6.178   0.264  11.724  0.4949 -0.0928 -0.3817
 9138TIP3    H151609   6.153   0.245  11.633  0.3629  0.9220 -0.5781
 9138TIP3    H251610   6.116   0.213  11.776  0.6127 -0.7395 -0.8580
 9139TIP3   OH251611   6.076   8.106  12.814 -0.3501  0.8233 -0.2177
 9139TIP3    H151612   6.121   8.177  12.769  0.2767  0.9789  0.6374
 9139TIP3    H251613   6.067   8.137  12.904  0.4321 -0.4125  0.2958
 9140TIP3   OH251614   4.833   4.446  11.583  0.2125  0.3031 -0.4213
 9140TIP3    H151615   4.883   4.516  11.624  1.6219 -1.7829  1.6768
 9140TIP3    H251616   4.753   4.489  11.552 -0.2719  2.4059  3.1854
 9141TIP3   OH251617   3.551   3.173  12.950  0.0990 -0.2838  0.6328
 9141TIP3    H151618   3.546   3.225  13.030  0.5024  0.2335  0.3298
 9141TIP3    H251619   3.622   3.213  12.900  0.9349 -1.5933  0.7153
 9142TIP3   OH251620   3.738   8.386  13.257  0.3342  0.7257  0.1960
 9142TIP3    H151621   3.787   8.318  13.212 -1.0241 -0.7326  0.8384
 9142TIP3    H251622   3.697   8.341  13.331  0.7945  2.6027  1.6708
 9143TIP3   OH251623   4.510   3.196  13.976  0.1273 -0.3774 -0.1320
 9143TIP3    H151624   4.533   3.146  14.054  0.0730 -1.9436 -1.0754
 9143TIP3    H251625   4.594   3.212  13.932  0.1553  0.4679  0.2162
 9144TIP3   OH251626   2.508   7.499  12.905  0.6816  0.1999  0.3593
 9144TIP3    H151627   2.522   7.594  12.911 -1.3751  0.4664  2.1863
 9144TIP3    H251628   2.588   7.465  12.866  0.8152  2.8536 -1.9700
 9145TIP3   OH251629   3.435   7.106  13.088 -0.1395  0.1557 -0.3002
 9145TIP3    H151630   3.507   7.043  13.083 -1.3921 -1.3146 -0.5036
 9145TIP3    H251631   3.357   7.052  13.099 -1.4284  1.6030 -1.8855
 9146TIP3   OH251632   6.436   4.162  11.986 -0.0911  0.3945  0.0848
 9146TIP3    H151633   6.396   4.163  11.899  2.1152 -0.3401 -1.0128
 9146TIP3    H251634   6.490   4.241  11.988 -0.2386  0.4846  0.8685
 9147TIP3   OH251635   4.082   1.303  14.364  0.9469  0.1481  0.7291
 9147TIP3    H151636   4.047   1.214  14.366 -0.0255  0.4164 -1.5612
 9147TIP3    H251637   4.056   1.341  14.448 -1.2982 -0.8029  0.5290
 9148TIP3   OH251638   4.459   8.441  13.441 -0.1211  0.7437  0.5242
 9148TIP3    H151639   4.424   8.426  13.353 -0.1461 -0.9159  0.7887
 9148TIP3    H251640   4.553   8.431  13.431  0.0782  2.4147  0.3631
 9149TIP3   OH251641   3.231   0.438  12.630  0.2492  0.2454  0.2022
 9149TIP3    H151642   3.212   0.484  12.548 -1.2248 -0.0476  0.3528
 9149TIP3    H251643   3.188   0.489  12.698 -0.4786 -0.7284  0.5054
 9150TIP3   OH251644   5.470   8.002  11.852  0.4303 -0.0914  0.2800
 9150TIP3    H151645   5.488   7.979  11.761  2.8377 -1.3168  1.0028
 9150TIP3    H251646   5.421   8.085  11.846  2.3046  0.9603 -2.0701
 9151TIP3   OH251647   2.201   1.449  12.532 -0.0908  0.3774  0.4535
 9151TIP3    H151648   2.268   1.389  12.500 -0.7866  0.3681 -1.0884
 9151TIP3    H251649   2.234   1.480  12.617  1.1586 -0.7234  0.3935
 9152TIP3   OH251650   6.126   7.839  11.481  0.1474 -0.1185  0.3626
 9152TIP3    H151651   6.132   7.766  11.419 -0.8780  0.7045 -0.7497
 9152TIP3    H251652   6.202   7.828  11.538  0.1318 -1.9396  0.1088
 9153TIP3   OH251653   4.882   2.844  13.318  0.1581  0.4000  0.4129
 9153TIP3    H151654   4.893   2.755  13.285  0.4394  0.8417 -0.7424
 9153TIP3    H251655   4.793   2.846  13.355 -1.0241  0.4054 -2.1987
 9154TIP3   OH251656   1.362   8.149  11.773 -0.4170  0.3688 -0.0633
 9154TIP3    H151657   1.370   8.061  11.739  0.3268  0.5183 -0.2894
 9154TIP3    H251658   1.395   8.206  11.704 -0.2487  0.7734  0.3366
 9155TIP3   OH251659   4.174   1.534  12.176  0.2484  0.6845 -0.1264
 9155TIP3    H151660   4.117   1.611  12.180 -0.2787  0.2832  0.1846
 9155TIP3    H251661   4.134   1.478  12.110 -0.3467 -0.0880  0.8614
 9156TIP3   OH251662   2.340   7.305  11.868  0.0981  0.4274  0.4187
 9156TIP3    H151663   2.253   7.344  11.864 -0.6998 -1.2968  0.0385
 9156TIP3    H251664   2.325   7.211  11.862  1.9972  0.0822  0.3013
 9157TIP3   OH251665   6.074   7.940  12.352 -0.0329  0.4329  0.2483
 9157TIP3    H151666   6.032   8.012  12.306  1.2743  0.6050 -0.7142
 9157TIP3    H251667   6.002   7.888  12.386 -1.0475  0.4811 -1.7109
 9158TIP3   OH251668   7.981   0.513  12.457  0.3564 -0.0432 -0.0164
 9158TIP3    H151669   8.026   0.581  12.506 -0.6388  1.5389 -1.2075
 9158TIP3    H251670   8.012   0.524  12.367 -2.1474  0.9686 -0.8340
 9159TIP3   OH251671   2.680   8.323  12.574 -0.5150 -0.2761 -0.5341
 9159TIP3    H151672   2.607   8.380  12.550  0.3037  0.5645 -1.0801
 9159TIP3    H251673   2.742   8.330  12.501  0.1405 -0.9176 -0.0565
 9160TIP3   OH251674   1.698   7.369  12.422 -1.0511 -0.6077  0.2907
 9160TIP3    H151675   1.651   7.384  12.339  0.3283  0.0511 -0.3940
 9160TIP3    H251676   1.778   7.324  12.396  0.1246  0.9522  1.0681
 9161TIP3   OH251677   5.296   6.133  13.473  0.3830 -0.4582 -0.4070
 9161TIP3    H151678   5.279   6.210  13.526  2.2991 -0.1217 -0.2145
 9161TIP3    H251679   5.333   6.069  13.534  0.8326 -0.7501 -0.9779
 9162TIP3   OH251680   4.724   4.774  13.301  0.4966  0.0733  0.1350
 9162TIP3    H151681   4.633   4.800  13.317  1.0232  0.2841  3.4705
 9162TIP3    H251682   4.721   4.678  13.300  0.2094  0.0810 -0.0117
 9163TIP3   OH251683   5.074   3.529  11.669 -0.0617 -0.0164 -0.2045
 9163TIP3    H151684   5.102   3.619  11.653  2.3318 -0.7833 -0.7940
 9163TIP3    H251685   5.102   3.481  11.591  0.1711 -1.5268  0.7614
 9164TIP3   OH251686   3.621   7.676  13.650  0.1483 -0.2576 -0.3036
 9164TIP3    H151687   3.611   7.637  13.737 -1.2099  0.1930 -0.2389
 9164TIP3    H251688   3.577   7.760  13.656 -0.7326 -0.5872 -1.6601
 9165TIP3   OH251689   3.710   3.590  11.825 -0.1106 -0.2487  0.3944
 9165TIP3    H151690   3.722   3.667  11.769 -0.1699 -1.2736 -1.0870
 9165TIP3    H251691   3.782   3.532  11.801 -1.1983 -1.4897 -0.0103
 9166TIP3   OH251692   0.996   4.271  11.559  0.0626  0.4985 -0.1681
 9166TIP3    H151693   0.908   4.285  11.592  0.2684  2.0176 -0.1713
 9166TIP3    H251694   1.004   4.176  11.549 -1.2416  0.2799  0.6890
 9167TIP3   OH251695   7.849   5.179  13.367  0.4240  0.2918 -0.1049
 9167TIP3    H151696   7.853   5.085  13.383  2.4158  0.0049 -1.9239
 9167TIP3    H251697   7.757   5.196  13.348  0.3755 -1.7435 -2.0322
 9168TIP3   OH251698   2.885   5.341  12.133 -0.2491 -0.0423 -0.0799
 9168TIP3    H151699   2.871   5.424  12.088  1.5051 -0.2529 -1.1218
 9168TIP3    H251700   2.977   5.343  12.160 -0.8740 -0.5214  2.3472
 9169TIP3   OH251701   1.700   3.792  13.047  0.3081  0.2439  0.4722
 9169TIP3    H151702   1.647   3.872  13.046  0.7632  0.5461  0.5225
 9169TIP3    H251703   1.764   3.806  13.116  0.6925  0.0361  0.1624
 9170TIP3   OH251704   5.794   1.467  12.066  0.0676 -0.1544  0.0132
 9170TIP3    H151705   5.783   1.434  11.977  0.2875 -0.2016  0.0042
 9170TIP3    H251706   5.884   1.445  12.090  1.5038  3.4787 -1.2847
 9171TIP3   OH251707   7.410   4.917  11.941 -0.1005 -0.2347 -0.2770
 9171TIP3    H151708   7.443   4.948  11.856  1.2196  0.8095  0.5796
 9171TIP3    H251709   7.483   4.929  12.001 -1.3663  0.1056  1.2652
 9172TIP3   OH251710   1.169   2.432  13.105 -0.1718  0.3023 -0.2218
 9172TIP3    H151711   1.106   2.447  13.175 -1.5269  0.9616 -1.5274
 9172TIP3    H251712   1.190   2.520  13.073  1.4617  0.0923  0.2102
 9173TIP3   OH251713   4.035   4.703  12.909 -0.0837  0.1135  0.3320
 9173TIP3    H151714   4.124   4.706  12.946  0.1297 -1.8974  0.0442
 9173TIP3    H251715   3.978   4.713  12.986  0.3808 -1.0788  0.8481
 9174TIP3   OH251716   0.851   0.355  12.801 -0.1187 -0.7689 -0.9332
 9174TIP3    H151717   0.855   0.281  12.740  1.3958  0.2105 -2.0818
 9174TIP3    H251718   0.815   0.427  12.750 -0.8945 -0.4948 -0.0291
 9175TIP3   OH251719   0.772   4.382  11.667  0.1539 -0.0238  0.9725
 9175TIP3    H151720   0.850   4.388  11.722  0.5554 -0.1953  0.4306
 9175TIP3    H251721   0.756   4.472  11.638  1.2683 -0.2357 -0.4281
 9176TIP3   OH251722   7.470   5.377  13.062 -0.3956  0.1477  0.1447
 9176TIP3    H151723   7.512   5.412  13.140 -1.6265  0.2975  0.7654
 9176TIP3    H251724   7.379   5.362  13.088 -0.1267 -2.8461 -0.2924
 9177TIP3   OH251725   3.501   7.532  12.199  0.2299 -0.3470  0.2509
 9177TIP3    H151726   3.504   7.628  12.200 -1.1483 -0.1003 -3.4883
 9177TIP3    H251727   3.424   7.510  12.252  0.5114  0.5615  1.0771
 9178TIP3   OH251728   3.243   4.565  12.629 -0.0713  0.1075 -0.7685
 9178TIP3    H151729   3.186   4.545  12.555  0.4111  0.5124 -1.2578
 9178TIP3    H251730   3.230   4.493  12.690  1.4378 -1.5904 -2.3601
 9179TIP3   OH251731   2.705   0.305  11.995  0.2127  0.6611  0.2336
 9179TIP3    H151732   2.610   0.320  12.003  0.1909  0.2795  0.7291
 9179TIP3    H251733   2.742   0.392  11.982 -0.0876  0.9608  1.2700
 9180TIP3   OH251734   0.925   5.604  12.389  0.0955  0.1850 -0.5763
 9180TIP3    H151735   0.968   5.642  12.313  1.0776 -1.5384 -0.9434
 9180TIP3    H251736   0.906   5.514  12.363 -1.2864  0.1210  0.5570
 9181TIP3   OH251737   4.774   5.826  13.976  0.2129 -0.7169 -0.6666
 9181TIP3    H151738   4.721   5.879  13.916 -1.7394 -0.1530  1.4176
 9181TIP3    H251739   4.729   5.741  13.980  1.4518 -1.4485 -1.4523
 9182TIP3   OH251740   5.004   7.574  12.895 -0.0295  0.0554 -0.7138
 9182TIP3    H151741   4.936   7.569  12.827 -0.0674  0.5286 -0.7183
 9182TIP3    H251742   5.064   7.642  12.864  0.4862 -0.4097 -0.7425
 9183TIP3   OH251743   5.205   5.785  11.436  0.5287 -0.2967 -0.4855
 9183TIP3    H151744   5.270   5.767  11.503 -0.0471 -1.7911 -0.2953
 9183TIP3    H251745   5.249   5.844  11.375  1.4386  0.1737  0.5861
 9184TIP3   OH251746   7.414   0.617  12.323  0.1499  0.0281  0.1573
 9184TIP3    H151747   7.419   0.711  12.336  1.9712  0.1926 -1.2873
 9184TIP3    H251748   7.485   0.597  12.261 -0.3092 -2.2561  0.2592
 9185TIP3   OH251749   5.514   4.210  12.411  0.4530 -0.4422 -0.1603
 9185TIP3    H151750   5.468   4.126  12.410  0.5764 -0.5148 -1.4436
 9185TIP3    H251751   5.590   4.196  12.355  1.1358  0.1831  0.5867
 9186TIP3   OH251752   4.732   7.806  12.735  0.0640  0.5617  0.3275
 9186TIP3    H151753   4.718   7.732  12.793  1.8031  1.3047  1.7692
 9186TIP3    H251754   4.817   7.842  12.761  0.2843  1.7490 -1.7866
 9187TIP3   OH251755   6.016   7.617  12.098 -0.4992  0.0912 -0.2122
 9187TIP3    H151756   5.978   7.612  12.186  0.1499  1.3798  0.1813
 9187TIP3    H251757   5.953   7.572  12.042 -2.5405  1.9433  0.4344
 9188TIP3   OH251758   7.750   2.645  11.953 -0.3309  0.7373  0.3385
 9188TIP3    H151759   7.827   2.635  12.008  1.3373  1.4514 -1.6986
 9188TIP3    H251760   7.780   2.698  11.879 -2.6465  0.5697 -0.8394
 9189TIP3   OH251761   4.578   2.054  12.365  0.3577  0.5091  0.1313
 9189TIP3    H151762   4.546   1.964  12.363 -2.2897  1.3563  0.3445
 9189TIP3    H251763   4.572   2.080  12.457 -1.2234  1.5766 -0.2200
 9190TIP3   OH251764   5.090   7.051  11.183  0.0252 -0.3853  0.2002
 9190TIP3    H151765   4.996   7.052  11.163 -0.1061 -2.1172  0.5970
 9190TIP3    H251766   5.097   6.994  11.259  1.6053 -1.9003 -1.0188
 9191TIP3   OH251767   7.491   3.027  11.773 -0.3902 -0.0226 -0.0487
 9191TIP3    H151768   7.404   3.066  11.757  0.1170  1.5651  0.8520
 9191TIP3    H251769   7.481   2.936  11.745 -2.4144  0.0542  0.2324
 9192TIP3   OH251770   7.921   8.174  11.957  0.1186 -0.2635  0.0395
 9192TIP3    H151771   7.838   8.210  11.987 -1.4365 -0.9753 -3.0642
 9192TIP3    H251772   7.911   8.079  11.966  0.1576 -0.4135 -1.2630
 9193TIP3   OH251773   6.751   3.790  13.045 -0.5410  0.0740 -0.0065
 9193TIP3    H151774   6.754   3.880  13.077 -0.5479 -0.1612  0.6774
 9193TIP3    H251775   6.729   3.738  13.122  0.0416 -0.5778 -0.2641
 9194TIP3   OH251776   3.679   7.417  13.168 -0.1778  0.2917 -0.0583
 9194TIP3    H151777   3.656   7.461  13.250  0.4378 -0.0586  0.3090
 9194TIP3    H251778   3.767   7.382  13.183  0.1610  0.6669 -1.0466
 9195TIP3   OH251779   6.662   0.154  12.079  0.0347 -0.2615  0.4909
 9195TIP3    H151780   6.687   0.165  11.987 -0.0035 -1.3600  0.3341
 9195TIP3    H251781   6.630   0.241  12.106  1.1277  0.3762 -0.1852
 9196TIP3   OH251782   7.377   5.660  12.343 -0.2253 -0.0624  0.0899
 9196TIP3    H151783   7.337   5.677  12.429  0.3857 -0.4633  0.4606
 9196TIP3    H251784   7.471   5.665  12.359 -0.1145  0.6439 -0.7321
 9197TIP3   OH251785   5.233   3.530  11.914 -0.0233  0.3854  0.2860
 9197TIP3    H151786   5.309   3.582  11.887 -0.2638 -0.0283 -1.2807
 9197TIP3    H251787   5.174   3.533  11.839 -2.3325  2.0331  2.0366
 9198TIP3   OH251788   4.782   6.820  11.480 -0.1262 -0.3728 -0.4134
 9198TIP3    H151789   4.691   6.792  11.472 -0.4841  0.1727  1.3253
 9198TIP3    H251790   4.776   6.913  11.502  0.8813 -0.1823 -0.9128
 9199TIP3   OH251791   7.088   3.371  12.069  0.0435 -0.1784 -0.1072
 9199TIP3    H151792   7.109   3.427  11.995  2.3790  0.4457  0.9328
 9199TIP3    H251793   7.008   3.407  12.106  0.6946  1.5730 -0.3470
 9200TIP3   OH251794   4.936   5.722  13.496  0.5598 -0.7752  0.1236
 9200TIP3    H151795   4.958   5.645  13.548  0.2785 -1.2665 -0.4724
 9200TIP3    H251796   4.875   5.771  13.551 -0.5727 -1.8224 -0.1533
 9201TIP3   OH251797   5.349   1.589  11.843 -0.0787 -0.1255 -0.3707
 9201TIP3    H151798   5.432   1.621  11.808  0.1833 -0.4617 -0.0501
 9201TIP3    H251799   5.311   1.664  11.888  1.4602 -0.7575  2.1268
 9202TIP3   OH251800   5.562   7.831  12.502  0.0785  0.1140  0.3701
 9202TIP3    H151801   5.553   7.783  12.584 -4.4243  0.3571  0.2782
 9202TIP3    H251802   5.565   7.923  12.529  0.6901  0.1175  0.3010
 9203TIP3   OH251803   5.944   5.667  11.857  0.2910 -0.3648 -0.4721
 9203TIP3    H151804   5.851   5.654  11.840  0.7161 -1.6018 -2.0567
 9203TIP3    H251805   5.988   5.635  11.779  2.0492  0.6384  0.0486
 9204TIP3   OH251806   8.389   1.001  11.578  0.1065 -0.1011 -0.1770
 9204TIP3    H151807   8.315   0.964  11.530 -0.4455 -1.1585  1.3981
 9204TIP3    H251808   8.362   0.998  11.670  2.0113 -0.3028  0.4303
 9205TIP3   OH251809   2.248   1.851  12.780 -0.1386  0.1546  0.1683
 9205TIP3    H151810   2.243   1.939  12.818 -0.7819 -0.2474  1.0465
 9205TIP3    H251811   2.224   1.864  12.688 -0.7354  0.8366  0.4073
 9206TIP3   OH251812   5.147   6.856  12.226  0.3342  0.2901 -0.0041
 9206TIP3    H151813   5.051   6.856  12.220  0.1076 -0.3899  2.5058
 9206TIP3    H251814   5.169   6.774  12.269  1.9059  1.1687  0.9737
 9207TIP3   OH251815   5.962   0.402  13.342  0.0679 -0.3181 -0.0833
 9207TIP3    H151816   5.975   0.378  13.434  2.8781  0.9265 -0.0511
 9207TIP3    H251817   5.927   0.491  13.345  1.5676  0.3169 -0.1317
 9208TIP3   OH251818   0.816   2.619  11.925 -0.4096 -0.0275 -0.3713
 9208TIP3    H151819   0.790   2.710  11.929  0.2529  0.1837 -0.6626
 9208TIP3    H251820   0.879   2.609  11.997 -2.1318 -0.8310  1.1007
 9209TIP3   OH251821   6.275   1.323  13.038 -0.6692 -0.3144  0.1674
 9209TIP3    H151822   6.220   1.258  12.995  0.8274 -0.2011 -2.0665
 9209TIP3    H251823   6.351   1.274  13.069 -0.0887  0.1475 -0.4787
 9210TIP3   OH251824   1.462   3.721  12.906  0.1742 -0.6381  0.1862
 9210TIP3    H151825   1.485   3.648  12.849 -0.2899 -0.6646  0.0280
 9210TIP3    H251826   1.509   3.703  12.987  1.2936 -0.2897 -0.3790
 9211TIP3   OH251827   4.026   7.637  11.874  0.5062  0.0170 -0.1266
 9211TIP3    H151828   4.084   7.706  11.843  0.1960  0.9385  1.2775
 9211TIP3    H251829   4.033   7.568  11.808  0.6232  1.4822 -1.6896
 9212TIP3   OH251830   0.924   3.465  12.092  0.1838  0.0655 -0.4859
 9212TIP3    H151831   0.931   3.387  12.036 -0.7120 -0.0287 -0.4708
 9212TIP3    H251832   0.840   3.504  12.068  0.9287  1.4293 -0.9946
 9213TIP3   OH251833   3.052   3.158  12.295  0.6007 -0.0480 -0.0731
 9213TIP3    H151834   3.039   3.156  12.390 -1.6783  0.1007 -0.3328
 9213TIP3    H251835   3.074   3.249  12.275  3.2459 -0.4648  0.4720
 9214TIP3   OH251836   0.252   6.135  13.777  0.0742  0.1051 -0.2416
 9214TIP3    H151837   0.216   6.047  13.766 -0.1105  0.0739  0.5812
 9214TIP3    H251838   0.344   6.127  13.749  0.0928 -0.3786 -0.0532
 9215TIP3   OH251839   6.275   3.639  12.462 -0.5123 -0.1573  0.2252
 9215TIP3    H151840   6.365   3.648  12.431 -1.0382  1.0059 -1.1245
 9215TIP3    H251841   6.261   3.545  12.470  1.5022 -0.3437  2.7553
 9216TIP3   OH251842   7.767   7.948  11.745  0.1361  0.4518 -0.6852
 9216TIP3    H151843   7.730   7.914  11.826  1.7845 -0.4502 -0.2832
 9216TIP3    H251844   7.719   7.902  11.675 -1.3668  1.3185 -0.2847
 9217TIP3   OH251845   6.511   8.039  11.504 -0.4083  0.0231  0.1983
 9217TIP3    H151846   6.598   8.052  11.542 -0.2657 -0.9885  0.2433
 9217TIP3    H251847   6.487   7.949  11.528 -0.4914 -0.5223 -1.7591
 9218TIP3   OH251848   2.093   2.921  12.437 -0.0950  0.2625  0.5756
 9218TIP3    H151849   2.169   2.971  12.467  0.0414  0.0081  0.6545
 9218TIP3    H251850   2.064   2.967  12.358 -1.4774  1.9419  1.9801
 9219TIP3   OH251851   2.075   2.350  11.568  0.3776 -0.1797  0.1155
 9219TIP3    H151852   2.161   2.350  11.524  1.2948 -0.8948  1.8155
 9219TIP3    H251853   2.069   2.436  11.608  1.3777 -0.8805  1.8914
 9220TIP3   OH251854   6.824   5.980  13.088 -0.1006 -0.3803  0.4485
 9220TIP3    H151855   6.877   5.902  13.070  1.7591  0.6692  1.1019
 9220TIP3    H251856   6.878   6.053  13.057 -0.8519  0.8024  1.7998
 9221TIP3   OH251857   1.293   8.255  13.119  0.4489 -0.2789  0.4696
 9221TIP3    H151858   1.286   8.161  13.104 -0.3734 -0.0388 -0.8050
 9221TIP3    H251859   1.204   8.283  13.138  0.3674  0.4949 -0.8968
 9222TIP3   OH251860   0.540   0.292  12.248 -0.1187 -0.0338  0.3946
 9222TIP3    H151861   0.561   0.201  12.267 -3.3064 -0.6620  1.4598
 9222TIP3    H251862   0.453   0.290  12.209  0.0984  2.5209 -0.4629
 9223TIP3   OH251863   3.093   3.423  12.231 -0.1913  0.2454  0.0711
 9223TIP3    H151864   3.185   3.411  12.208 -0.4198 -2.0202  0.1225
 9223TIP3    H251865   3.067   3.503  12.185  0.8007 -1.1175 -3.1888
 9224TIP3   OH251866   2.565   0.335  12.593  0.6916 -0.3486 -0.2327
 9224TIP3    H151867   2.570   0.291  12.508  1.4582  0.5080 -0.6516
 9224TIP3    H251868   2.476   0.318  12.624  0.7649 -1.6066 -0.6850
 9225TIP3   OH251869   1.857   2.203  11.643 -0.9638  0.4955  0.1572
 9225TIP3    H151870   1.936   2.245  11.610 -2.1259  2.7236 -0.0005
 9225TIP3    H251871   1.835   2.138  11.577 -0.9593  2.0269 -1.4418
 9226TIP3   OH251872   7.242   5.705  13.267  0.2175  0.2567  0.8120
 9226TIP3    H151873   7.226   5.706  13.362 -0.7232  1.0210  0.6608
 9226TIP3    H251874   7.295   5.783  13.251 -1.4364  1.3586  0.4457
 9227TIP3   OH251875   7.072   6.655  12.407 -0.5140  0.3615  0.1249
 9227TIP3    H151876   7.165   6.634  12.399 -0.3332  1.0147  0.5250
 9227TIP3    H251877   7.069   6.741  12.449 -1.3074  0.1020  0.6319
 9228TIP3   OH251878   0.216   1.174  12.167 -0.2485  0.1652  0.3717
 9228TIP3    H151879   0.237   1.143  12.255 -0.9900 -1.5356 -0.0212
 9228TIP3    H251880   0.121   1.185  12.167 -0.5332 -1.8353 -0.7817
 9229TIP3   OH251881   4.613   0.211  11.607 -0.0120 -0.3789  0.4374
 9229TIP3    H151882   4.704   0.181  11.607  0.0859 -0.1411 -1.3747
 9229TIP3    H251883   4.620   0.306  11.615 -0.0479 -0.2738 -0.6792
 9230TIP3   OH251884   0.784   1.662  11.548  0.1474 -0.2222 -0.4910
 9230TIP3    H151885   0.815   1.628  11.464 -1.3688 -3.7224  0.1729
 9230TIP3    H251886   0.843   1.624  11.613 -1.1651 -1.0926  0.2517
 9231TIP3   OH251887   4.690   1.690  13.233 -0.5116 -0.4963  0.1093
 9231TIP3    H151888   4.635   1.762  13.263 -0.6582 -0.9896  1.0704
 9231TIP3    H251889   4.634   1.612  13.242 -0.2463 -0.7778 -0.5975
 9232TIP3   OH251890   4.734   4.925  12.165 -0.0531  0.1139  0.2012
 9232TIP3    H151891   4.803   4.963  12.218  0.5632 -0.9858  0.2206
 9232TIP3    H251892   4.657   4.980  12.181  0.7899  1.3203  0.2203
 9233TIP3   OH251893   7.473   2.792  12.508 -0.1372  0.1884  0.4197
 9233TIP3    H151894   7.391   2.819  12.466  0.4144  1.4998  0.1448
 9233TIP3    H251895   7.465   2.697  12.517 -1.1494  0.1443 -0.7478
 9234TIP3   OH251896   5.139   6.981  11.905 -0.2842  0.6165 -0.0401
 9234TIP3    H151897   5.173   7.043  11.841 -1.9417 -0.0789 -1.6865
 9234TIP3    H251898   5.044   6.994  11.903 -0.4040  0.5965  2.3565
 9235TIP3   OH251899   3.351   5.951  12.942  0.2003 -0.4005  0.0539
 9235TIP3    H151900   3.430   5.995  12.909  0.1284  0.0051  0.4160
 9235TIP3    H251901   3.384   5.882  13.000  0.3315 -1.1680 -0.9061
 9236TIP3   OH251902   4.501   5.665  12.830 -0.3786  0.9223  0.3444
 9236TIP3    H151903   4.574   5.714  12.869 -0.5563  1.3723  0.1157
 9236TIP3    H251904   4.543   5.595  12.779 -0.0857  1.5530 -0.2874
 9237TIP3   OH251905   8.404   0.818  11.956 -0.2194  0.0428 -0.2359
 9237TIP3    H151906   8.390   0.871  12.034 -0.5919  0.8309 -0.8264
 9237TIP3    H251907   8.343   0.854  11.891 -1.6832 -2.1508 -0.1750
 9238TIP3   OH251908   8.359   0.311  12.456 -0.7902 -0.6520  0.1059
 9238TIP3    H151909   8.348   0.217  12.447  0.4430 -0.8432  0.3821
 9238TIP3    H251910   8.452   0.326  12.438 -0.4115  0.1928  2.4748
 9239TIP3   OH251911   7.620   6.792  11.872 -0.0114 -0.2122  0.6448
 9239TIP3    H151912   7.610   6.793  11.967 -0.0350 -0.4067  0.6450
 9239TIP3    H251913   7.617   6.699  11.848  2.4053 -0.3638  0.6972
 9240TIP3   OH251914   5.964   2.416  12.247 -0.1760 -0.2604 -0.3492
 9240TIP3    H151915   6.011   2.497  12.230  1.2709 -0.4949  2.1207
 9240TIP3    H251916   5.874   2.445  12.265  0.0661  0.6746 -0.5645
 9241TIP3   OH251917   4.994   3.011  13.112 -0.1861 -0.5758 -0.6057
 9241TIP3    H151918   4.947   3.094  13.112 -1.1334 -1.0869 -0.8264
 9241TIP3    H251919   4.967   2.968  13.194  0.0613 -0.7845 -0.6325
 9242TIP3   OH251920   0.288   1.604  11.618  0.5777 -0.0770 -0.1889
 9242TIP3    H151921   0.224   1.629  11.685  0.0014  2.5275 -1.5392
 9242TIP3    H251922   0.367   1.582  11.666  0.2343  1.8796  1.4066
 9243TIP3   OH251923   6.796   3.167  12.562  0.0279 -0.2912  0.2437
 9243TIP3    H151924   6.820   3.076  12.580 -0.2835 -0.2401  0.9508
 9243TIP3    H251925   6.749   3.195  12.641 -0.6728  0.2030 -0.3471
 9244TIP3   OH251926   2.519   3.620  12.509  0.1177  0.2150  0.0895
 9244TIP3    H151927   2.603   3.619  12.462  0.0010 -0.8603 -0.1410
 9244TIP3    H251928   2.538   3.574  12.592  0.0059  0.9174  0.5094
 9245TIP3   OH251929   7.300   7.203  11.899  0.2269 -0.3393 -0.1657
 9245TIP3    H151930   7.388   7.171  11.918 -0.0110 -0.0229  1.6582
 9245TIP3    H251931   7.305   7.236  11.810  1.7989 -0.8570 -0.2973
 9246TIP3   OH251932   0.518   3.800  12.361  0.4382 -0.4937  0.2173
 9246TIP3    H151933   0.561   3.877  12.398 -0.1708  0.1067 -0.3096
 9246TIP3    H251934   0.441   3.834  12.317 -0.5280 -1.5427  1.0366
 9247TIP3   OH251935   7.532   5.341  11.002 -0.4076 -0.1885 -0.3406
 9247TIP3    H151936   7.452   5.292  11.023 -0.7566  0.3013 -0.5180
 9247TIP3    H251937   7.520   5.368  10.911 -0.2883  0.3683 -0.1914
 9248TIP3   OH251938   7.407   5.661  13.911 -0.0542  0.4165 -0.5352
 9248TIP3    H151939   7.428   5.736  13.856  2.3393  1.4254  1.5511
 9248TIP3    H251940   7.321   5.682  13.947  0.5427  2.1851 -0.0408
 9249TIP3   OH251941   6.592   3.372  12.170  0.1277 -0.4303  0.0644
 9249TIP3    H151942   6.586   3.340  12.080 -3.6026 -2.1311  0.7351
 9249TIP3    H251943   6.568   3.297  12.224  0.2084  1.0943  2.3579
 9250TIP3   OH251944   1.828   2.475  11.758  0.3513  0.0832 -0.0551
 9250TIP3    H151945   1.748   2.480  11.809  0.5651  1.0830  0.1966
 9250TIP3    H251946   1.816   2.398  11.702 -1.0460  0.5708 -0.4601
 9251TIP3   OH251947   4.685   5.898  12.151  0.0164 -0.7469 -0.4515
 9251TIP3    H151948   4.663   5.881  12.059 -0.1776 -0.9490 -0.3718
 9251TIP3    H251949   4.642   5.981  12.172 -1.5064 -1.6025 -0.0295
 9252TIP3   OH251950   5.035   4.902  12.546  0.0906 -0.3901  0.2288
 9252TIP3    H151951   5.049   4.928  12.455  1.9664 -1.1833  0.2497
 9252TIP3    H251952   4.946   4.866  12.547  0.0666 -0.4358 -1.2992
 9253TIP3   OH251953   3.963   1.912  14.174  0.3069 -0.7896  0.4700
 9253TIP3    H151954   4.052   1.928  14.141  0.6947 -3.0387  0.2328
 9253TIP3    H251955   3.929   1.843  14.117 -1.7375  0.2383  0.3768
 9254TIP3   OH251956   6.993   5.779  13.503 -0.2164 -0.3903  0.4990
 9254TIP3    H151957   6.941   5.757  13.581  0.5370  0.4666  1.2537
 9254TIP3    H251958   7.083   5.760  13.528 -0.0814 -1.4259 -0.6505
 9255TIP3   OH251959   2.173   7.506  13.719  0.2290 -0.1956 -0.0230
 9255TIP3    H151960   2.153   7.477  13.808 -2.1709  0.5467 -0.2316
 9255TIP3    H251961   2.120   7.585  13.708  0.7560 -0.0658 -1.9888
 9256TIP3   OH251962   3.549   4.169  12.313 -0.3230 -0.2517  0.3874
 9256TIP3    H151963   3.612   4.132  12.375  1.2887 -0.9820 -1.5509
 9256TIP3    H251964   3.604   4.211  12.246 -2.0020  1.4552  0.0023
 9257TIP3   OH251965   2.617   3.216  13.101 -0.1569  0.0733  0.5241
 9257TIP3    H151966   2.692   3.273  13.118 -1.2571  1.2590  1.5539
 9257TIP3    H251967   2.562   3.266  13.040 -0.9910  0.0144  1.2066
 9258TIP3   OH251968   1.121   7.757  11.707  0.0350  0.2131 -0.3423
 9258TIP3    H151969   1.117   7.673  11.662  1.1192  1.1095 -2.1995
 9258TIP3    H251970   1.105   7.735  11.799 -2.8031 -1.6254 -1.1158
 9259TIP3   OH251971   1.759   7.654  12.991 -0.1580  0.0974  0.1310
 9259TIP3    H151972   1.671   7.644  12.957 -0.0745  0.0216 -0.0617
 9259TIP3    H251973   1.816   7.611  12.927  0.0308  0.2516  0.1911
 9260TIP3   OH251974   3.951   5.212  13.522  0.5831 -0.2278 -0.1211
 9260TIP3    H151975   4.012   5.285  13.514  1.8258 -1.1529  0.5607
 9260TIP3    H251976   3.868   5.252  13.547  0.4058  1.2455 -2.7040
 9261TIP3   OH251977   0.463   4.032  13.568  0.8950 -0.2219  0.4903
 9261TIP3    H151978   0.527   3.993  13.508 -0.1978 -1.0507 -0.1646
 9261TIP3    H251979   0.461   4.125  13.544 -0.5578 -0.7708 -1.7710
 9262TIP3   OH251980   3.822   6.516  12.578  0.1629  0.0783 -0.1265
 9262TIP3    H151981   3.797   6.490  12.489 -0.6364 -0.2646  0.1882
 9262TIP3    H251982   3.798   6.609  12.583  0.3048  0.1253 -0.3006
 9263TIP3   OH251983   5.868   6.599  11.806 -0.6605 -0.8900 -0.2478
 9263TIP3    H151984   5.922   6.527  11.837  0.3855 -0.1858 -0.3859
 9263TIP3    H251985   5.809   6.559  11.742  0.7648 -1.4250 -1.2954
 9264TIP3   OH251986   6.853   3.435  13.161 -0.0765  0.0726  0.0331
 9264TIP3    H151987   6.769   3.478  13.175  0.5196  1.0690  0.5995
 9264TIP3    H251988   6.896   3.437  13.247  0.6968 -0.0685 -0.3444
 9265TIP3   OH251989   1.091   6.702  13.422  0.0994 -0.4725 -0.4099
 9265TIP3    H151990   1.040   6.758  13.363  0.9649 -0.6682 -1.3700
 9265TIP3    H251991   1.158   6.759  13.458 -0.4360 -0.3497  0.4260
 9266TIP3   OH251992   2.749   4.441  12.137 -0.2176  0.2297  0.0220
 9266TIP3    H151993   2.789   4.402  12.059  1.8522  1.4259  0.4056
 9266TIP3    H251994   2.744   4.368  12.199  0.6564 -0.1498 -0.3247
 9267TIP3   OH251995   7.376   0.815  13.555 -0.0746  0.0890  0.6200
 9267TIP3    H151996   7.409   0.895  13.596 -1.4277  0.8043  0.3687
 9267TIP3    H251997   7.307   0.784  13.614 -0.0307 -0.5142  0.3641
 9268TIP3   OH251998   0.437   4.650  11.745 -0.4684 -0.0225 -0.2168
 9268TIP3    H151999   0.525   4.674  11.773 -1.6725  3.9378  0.7026
 9268TIP3    H252000   0.386   4.643  11.826 -1.1499 -2.1401 -0.7348
 9269TIP3   OH252001   3.762   3.347  12.809 -0.4447 -0.2693  0.5139
 9269TIP3    H152002   3.846   3.370  12.768 -0.6665 -0.8284 -0.2752
 9269TIP3    H252003   3.703   3.417  12.783 -0.3249 -0.0768  0.7523
 9270TIP3   OH252004   4.330   7.047  12.056 -0.1905  0.2826 -0.1482
 9270TIP3    H152005   4.372   7.062  11.971 -0.0723  0.4603 -0.0598
 9270TIP3    H252006   4.242   7.085  12.046 -0.1553  0.3584 -0.1714
 9271TIP3   OH252007   7.268   1.580  13.524  0.6583 -0.6778  0.0197
 9271TIP3    H152008   7.235   1.493  13.501 -1.2037  0.0367 -0.1550
 9271TIP3    H252009   7.223   1.639  13.465 -1.7823  0.9105  3.1760
 9272TIP3   OH252010   6.785   7.791  12.208  0.2475 -0.2602 -0.5109
 9272TIP3    H152011   6.719   7.858  12.193 -0.8025 -1.1191  0.0881
 9272TIP3    H252012   6.840   7.827  12.278  2.5384  1.8940 -3.2050
 9273TIP3   OH252013   6.162   4.719  13.214 -0.1076 -0.2609 -0.2002
 9273TIP3    H152014   6.251   4.750  13.231 -1.2663  3.6641 -0.5366
 9273TIP3    H252015   6.119   4.722  13.299  0.0290 -2.3975  0.0115
 9274TIP3   OH252016   8.320   1.075  12.954  0.0354 -0.2313  0.1380
 9274TIP3    H152017   8.266   1.015  13.006  1.9132 -0.9550  1.3622
 9274TIP3    H252018   8.372   1.122  13.019  1.7977 -0.4958 -1.0024
 9275TIP3   OH252019   7.662   5.587  12.320  0.1874  0.1140 -0.1525
 9275TIP3    H152020   7.661   5.517  12.385 -1.1361  0.7633  0.5822
 9275TIP3    H252021   7.660   5.542  12.236 -1.1535 -0.7715  0.3081
 9276TIP3   OH252022   5.332   2.238  13.633  0.2003  0.8955  0.0785
 9276TIP3    H152023   5.393   2.225  13.706 -0.7272 -0.4525  0.6567
 9276TIP3    H252024   5.253   2.274  13.673 -1.0305 -1.6384  0.1389
 9277TIP3   OH252025   1.154   7.466  12.338 -0.0284 -0.8526 -0.1101
 9277TIP3    H152026   1.230   7.524  12.343 -0.5638 -0.1266 -0.2542
 9277TIP3    H252027   1.091   7.503  12.400 -0.4467 -1.1736 -0.3383
 9278TIP3   OH252028   3.735   0.336  11.375 -0.7392 -0.1695 -0.1633
 9278TIP3    H152029   3.757   0.424  11.406 -1.6453 -0.0141  0.0757
 9278TIP3    H252030   3.675   0.351  11.302  0.7658 -0.5554 -1.5342
 9279TIP3   OH252031   1.832   2.262  12.667  0.1522  0.0307 -0.4160
 9279TIP3    H152032   1.788   2.177  12.657  1.7273 -0.9754  0.5997
 9279TIP3    H252033   1.762   2.326  12.671 -1.0870 -1.2210 -1.2902
 9280TIP3   OH252034   1.970   1.537  12.822 -0.0335 -0.9473 -0.7605
 9280TIP3    H152035   1.976   1.463  12.763  2.1692 -1.7188  0.3246
 9280TIP3    H252036   2.051   1.587  12.807 -0.3464 -0.0974  0.2171
 9281TIP3   OH252037   3.787   0.199  13.191 -0.1013 -0.4533  0.2005
 9281TIP3    H152038   3.765   0.114  13.231 -0.0150  0.1540  1.6144
 9281TIP3    H252039   3.778   0.262  13.263  0.7350  0.6099 -0.5919
 9282TIP3   OH252040   0.278   8.125  13.118  0.2720  0.5708  0.0735
 9282TIP3    H152041   0.369   8.119  13.147  0.0622  0.5106  0.7331
 9282TIP3    H252042   0.237   8.187  13.178 -0.3802 -0.2138  0.4648
 9283TIP3   OH252043   1.982   6.301  12.267 -0.2884  0.5067  0.2852
 9283TIP3    H152044   1.970   6.209  12.243 -1.7198  0.6854  0.2596
 9283TIP3    H252045   2.040   6.299  12.343 -0.9744 -0.4683  0.7945
 9284TIP3   OH252046   0.053   1.532  11.471  0.5266 -0.0945  0.3706
 9284TIP3    H152047   0.047   1.437  11.469  0.0044 -0.1064  1.5154
 9284TIP3    H252048   0.129   1.551  11.526  1.1457  0.1680 -0.5372
 9285TIP3   OH252049   2.761   0.614  12.219  0.0341 -0.0036  0.1886
 9285TIP3    H152050   2.814   0.562  12.158  1.4097  0.9354  0.5164
 9285TIP3    H252051   2.740   0.694  12.171 -1.2962 -0.4660 -0.0102
 9286TIP3   OH252052   3.474   3.988  13.635 -0.4322 -0.8093  0.1892
 9286TIP3    H152053   3.549   4.047  13.627  0.2349 -1.3679  1.8595
 9286TIP3    H252054   3.483   3.927  13.562  0.1345 -0.2127 -0.2434
 9287TIP3   OH252055   6.104   7.924  13.253  0.4075  0.1584 -0.2354
 9287TIP3    H152056   6.052   7.861  13.203  0.5419 -0.6814  0.6531
 9287TIP3    H252057   6.195   7.905  13.230  0.4417  0.1127 -0.0637
 9288TIP3   OH252058   2.916   3.186  12.533 -0.2337 -0.1037  0.1132
 9288TIP3    H152059   2.970   3.260  12.560  0.7495 -0.8396  0.2610
 9288TIP3    H252060   2.936   3.117  12.597 -1.5530 -0.3233  0.3068
 9289TIP3   OH252061   3.303   5.318  12.939  0.1728  0.6747 -0.6085
 9289TIP3    H152062   3.217   5.321  12.982  0.6675 -0.6702  0.5486
 9289TIP3    H252063   3.301   5.237  12.888  1.1057  0.0771  0.2638
 9290TIP3   OH252064   2.272   5.424  13.417  0.5203 -0.0137  0.4268
 9290TIP3    H152065   2.301   5.423  13.508  1.1626  0.6938  0.2398
 9290TIP3    H252066   2.353   5.410  13.366 -0.2029 -3.6498  0.0145
 9291TIP3   OH252067   2.838   2.766  12.358  0.2249  0.0301 -0.3410
 9291TIP3    H152068   2.871   2.677  12.355 -0.2728 -0.2499  1.2436
 9291TIP3    H252069   2.898   2.812  12.417 -1.0013  0.0156  0.9944
 9292TIP3   OH252070   3.483   0.556  12.599  0.3432  0.0121  0.4123
 9292TIP3    H152071   3.553   0.490  12.603 -0.0007 -0.3270  0.8608
 9292TIP3    H252072   3.411   0.519  12.649 -0.7874 -0.3756 -1.3791
 9293TIP3   OH252073   7.745   1.040  11.743 -0.3469  0.0635  0.8152
 9293TIP3    H152074   7.697   1.013  11.821  0.0963  1.1228  1.4645
 9293TIP3    H252075   7.678   1.046  11.675 -1.1171  1.2421  1.6433
 9294TIP3   OH252076   7.416   5.639  12.632 -0.2867  0.3253  0.1756
 9294TIP3    H152077   7.373   5.628  12.717  0.8671 -0.5935  0.6529
 9294TIP3    H252078   7.410   5.553  12.591  1.2304  0.1135  0.3373
 9295TIP3   OH252079   7.899   8.263  13.228  0.1238 -0.1878  0.3814
 9295TIP3    H152080   7.844   8.323  13.176 -0.0694 -0.8817 -0.2291
 9295TIP3    H252081   7.838   8.224  13.291  0.2937  0.4126  0.9285
 9296TIP3   OH252082   4.879   4.893  13.670  0.1941 -0.0973  0.0085
 9296TIP3    H152083   4.902   4.907  13.578 -0.4514 -0.7851 -0.2693
 9296TIP3    H252084   4.933   4.820  13.698  0.5311  0.2360  0.2401
 9297TIP3   OH252085   1.515   2.934  12.414 -0.1050 -0.3760  1.3963
 9297TIP3    H152086   1.520   2.864  12.479 -0.5808 -0.0477  1.7953
 9297TIP3    H252087   1.602   2.937  12.375 -0.2693 -1.6737  0.8533
 9298TIP3   OH252088   3.065   3.634  12.050  0.0025  0.1319 -0.2203
 9298TIP3    H152089   2.975   3.623  12.020  0.2576 -1.5275 -0.4675
 9298TIP3    H252090   3.118   3.608  11.975  0.6565 -3.2010  1.2178
 9299TIP3   OH252091   0.952   1.080  12.151 -0.5382 -0.1225  0.3318
 9299TIP3    H152092   1.013   1.150  12.177 -1.9975  1.7640 -0.9794
 9299TIP3    H252093   0.949   1.021  12.226  1.1291  0.9757  1.3191
 9300TIP3   OH252094   4.910   1.812  12.829 -0.1085  0.4784  0.1152
 9300TIP3    H152095   4.820   1.843  12.818  0.7162  4.3848  2.4892
 9300TIP3    H252096   4.965   1.885  12.802  2.1938  0.0132  2.9593
 9301TIP3   OH252097   2.335   2.015  13.620 -0.3297  0.7826  0.3157
 9301TIP3    H152098   2.382   2.097  13.609 -2.3338  1.7912 -1.5473
 9301TIP3    H252099   2.243   2.041  13.623 -1.1632 -1.4568 -1.9972
 9302TIP3   OH252100   5.745   6.806  12.230 -0.1174  0.0762 -0.0347
 9302TIP3    H152101   5.688   6.828  12.156  0.0076 -0.2602 -0.2340
 9302TIP3    H252102   5.763   6.713  12.219  2.4343  0.6546 -1.3572
 9303TIP3   OH252103   7.433   2.687  13.300  0.2259 -0.1658 -0.5841
 9303TIP3    H152104   7.364   2.651  13.243 -0.0860 -0.1625 -0.2124
 9303TIP3    H252105   7.412   2.781  13.306 -0.0403 -0.2551 -0.0554
 9304TIP3   OH252106   5.362   5.171  12.876  0.0204  0.6243 -0.3076
 9304TIP3    H152107   5.403   5.204  12.956  0.3371 -1.4220  0.4145
 9304TIP3    H252108   5.424   5.107  12.842 -1.6807 -1.1510 -0.2218
 9305TIP3   OH252109   5.033   1.606  11.885  0.2559  0.3504 -0.2966
 9305TIP3    H152110   5.111   1.591  11.938  1.2012  1.0058 -1.4454
 9305TIP3    H252111   5.013   1.521  11.847 -0.5881 -0.1911  1.2486
 9306TIP3   OH252112   5.710   8.274  12.787 -0.0368  0.0706  0.1347
 9306TIP3    H152113   5.805   8.283  12.779 -0.0536 -0.2503 -0.4740
 9306TIP3    H252114   5.687   8.205  12.726 -0.4941 -0.8969  1.3643
 9307TIP3   OH252115   4.663   2.689  12.276  0.2024  0.6681 -0.4065
 9307TIP3    H152116   4.602   2.689  12.349 -1.5740  1.4022 -1.7949
 9307TIP3    H252117   4.689   2.781  12.267  0.4871  0.5680 -0.6295
 9308TIP3   OH252118   8.133   2.456  11.401  0.2011 -0.3137 -0.0018
 9308TIP3    H152119   8.108   2.442  11.493  1.2762 -0.1945  0.3238
 9308TIP3    H252120   8.106   2.546  11.382  2.2351  0.5800  1.0129
 9309TIP3   OH252121   7.567   0.747  12.869 -0.0239  0.1757  0.2897
 9309TIP3    H152122   7.621   0.821  12.841  0.3048 -0.5195 -0.9901
 9309TIP3    H252123   7.571   0.750  12.965  3.0933 -0.3877  0.2924
 9310TIP3   OH252124   7.448   2.247  11.723  0.1973 -0.2379  0.0880
 9310TIP3    H152125   7.498   2.242  11.804  2.3356 -0.6443 -1.2012
 9310TIP3    H252126   7.422   2.157  11.705  0.0694 -0.2033  0.0963
 9311TIP3   OH252127   0.720   0.627  13.315  0.5074 -0.0619  0.4795
 9311TIP3    H152128   0.642   0.607  13.367 -0.4628  0.4894 -0.7323
 9311TIP3    H252129   0.768   0.691  13.368 -0.1884  0.0809  0.9537
 9312TIP3   OH252130   2.377   6.337  13.287 -0.1219  0.1123 -0.6195
 9312TIP3    H152131   2.335   6.253  13.267 -0.3283  0.2863 -0.9138
 9312TIP3    H252132   2.431   6.356  13.210  0.0365  0.1834 -0.4927
 9313TIP3   OH252133   5.383   5.288  12.383 -0.0340 -0.8514 -0.2906
 9313TIP3    H152134   5.457   5.347  12.374  0.2050 -1.1045 -0.0203
 9313TIP3    H252135   5.363   5.289  12.477  0.5095 -1.8351 -0.1525
 9314TIP3   OH252136   6.456   0.978  11.553 -0.7368  0.0038  0.5382
 9314TIP3    H152137   6.542   0.938  11.549 -0.4695  0.6362 -2.1162
 9314TIP3    H252138   6.416   0.942  11.632  1.4331 -1.3193  1.1211
 9315TIP3   OH252139   2.507   0.567  12.349  0.4969  0.5897 -0.3351
 9315TIP3    H152140   2.595   0.561  12.313  0.0585 -0.1304 -1.3442
 9315TIP3    H252141   2.463   0.633  12.295  0.1303  0.2199 -0.4950
 9316TIP3   OH252142   5.358   6.727  12.734  0.0383 -0.5596 -0.4629
 9316TIP3    H152143   5.443   6.689  12.757  0.5921  0.9680  0.1600
 9316TIP3    H252144   5.294   6.669  12.776  0.9281  0.4200  2.4691
 9317TIP3   OH252145   5.452   5.093  11.824 -0.4123 -0.1121 -0.2519
 9317TIP3    H152146   5.376   5.102  11.766  1.1233  2.3394 -2.1426
 9317TIP3    H252147   5.469   5.182  11.854  3.4669  0.1348 -2.4820
 9318TIP3   OH252148   6.651   6.678  12.252 -0.1657  0.5121 -0.4540
 9318TIP3    H152149   6.691   6.761  12.279  0.9164 -0.2457  0.3810
 9318TIP3    H252150   6.718   6.636  12.197  0.3405 -0.8750  1.1380
 9319TIP3   OH252151   4.810   7.823  13.677  0.2603 -0.1827 -0.1424
 9319TIP3    H152152   4.855   7.832  13.760  1.0218 -0.2689 -0.5414
 9319TIP3    H252153   4.867   7.768  13.623  1.4762  2.6195 -1.9115
 9320TIP3   OH252154   1.796   1.407  13.019  0.1782  0.4487 -0.1526
 9320TIP3    H152155   1.739   1.347  12.970  0.9326 -0.1152 -0.3481
 9320TIP3    H252156   1.864   1.432  12.957  0.1703  1.0939  0.0945
 9321TIP3   OH252157   3.932   6.787  13.575 -0.2161 -0.2155 -1.1376
 9321TIP3    H152158   3.967   6.873  13.598  1.4772 -1.2997  0.6501
 9321TIP3    H252159   3.992   6.753  13.509  2.0105 -1.8408  1.5192
 9322TIP3   OH252160   6.618   7.365  11.709  0.0139  0.4137  0.2517
 9322TIP3    H152161   6.623   7.445  11.762 -1.2989  1.8171 -1.5949
 9322TIP3    H252162   6.677   7.304  11.752  0.0226  1.9014  2.5360
 9323TIP3   OH252163   8.204   0.180  11.655 -0.6533  0.0354 -0.3173
 9323TIP3    H152164   8.236   0.270  11.649  0.5435 -0.3289  0.2469
 9323TIP3    H252165   8.260   0.131  11.595  0.3963 -0.7471  1.2342
 9324TIP3   OH252166   0.570   7.659  13.082  0.4159 -0.1082  0.0632
 9324TIP3    H152167   0.502   7.637  13.019 -0.6221 -0.9651  1.4273
 9324TIP3    H252168   0.555   7.752  13.102 -0.7420 -0.4271  0.7714
 9325TIP3   OH252169   6.618   0.557  11.768  0.5747 -0.1160  0.2111
 9325TIP3    H152170   6.561   0.615  11.819 -0.6711 -0.4019 -0.8022
 9325TIP3    H252171   6.573   0.473  11.770  1.1121 -0.4220 -0.3851
 9326TIP3   OH252172   4.625   8.361  12.083  0.2431  0.0075  0.5079
 9326TIP3    H152173   4.704   8.412  12.103  0.0804  0.6271 -0.4181
 9326TIP3    H252174   4.650   8.306  12.008  0.6796 -1.9221  1.9717
 9327TIP3   OH252175   5.094   0.189  12.579  0.3635 -0.4743 -0.3011
 9327TIP3    H152176   5.155   0.208  12.650 -0.2474 -0.5993  0.2686
 9327TIP3    H252177   5.135   0.117  12.531  0.2914 -1.1252  0.5683
 9328TIP3   OH252178   2.586   7.212  13.078 -0.3017 -0.3122 -0.6419
 9328TIP3    H152179   2.602   7.211  12.984 -1.1373  0.9813 -0.8246
 9328TIP3    H252180   2.582   7.305  13.100 -1.3333 -0.5939  0.4497
 9329TIP3   OH252181   6.478   6.802  11.974  0.2364  0.1476  0.0656
 9329TIP3    H152182   6.560   6.851  11.965 -0.1082  0.5348 -0.9815
 9329TIP3    H252183   6.435   6.810  11.889 -1.1591  0.4157  0.7728
 9330TIP3   OH252184   3.418   6.242  11.594  0.1102  0.3057  0.0841
 9330TIP3    H152185   3.369   6.282  11.666  0.5651  1.5358 -0.2536
 9330TIP3    H252186   3.510   6.250  11.620  0.5661  3.6627 -1.8737
 9331TIP3   OH252187   7.623   4.664  12.031  0.2149 -0.5109  0.4703
 9331TIP3    H152188   7.550   4.611  12.063 -1.6559  1.4596 -0.2642
 9331TIP3    H252189   7.610   4.668  11.937  0.3169  1.1463  0.4941
 9332TIP3   OH252190   7.287   7.880  12.771  0.4078  0.3028  0.2490
 9332TIP3    H152191   7.199   7.885  12.732  0.6769 -0.9815 -0.6170
 9332TIP3    H252192   7.272   7.849  12.860 -0.0617  0.7788  0.3396
 9333TIP3   OH252193   6.251   4.949  14.082  0.2473  0.4351  0.4825
 9333TIP3    H152194   6.274   4.978  13.993  0.7393 -0.3812  0.3400
 9333TIP3    H252195   6.317   4.883  14.104  0.3462  0.8919  1.6072
 9334TIP3   OH252196   5.132   7.449  13.376 -0.1510  0.2670 -0.1714
 9334TIP3    H152197   5.223   7.420  13.366  0.3465  1.1254  1.4647
 9334TIP3    H252198   5.080   7.374  13.347  1.0748 -0.4495 -0.6007
 9335TIP3   OH252199   6.919   6.689  11.598  0.7659 -0.8392  0.0266
 9335TIP3    H152200   6.870   6.715  11.677  0.3288 -1.7862  0.0828
 9335TIP3    H252201   6.949   6.600  11.617  1.6725 -0.6295 -0.4106
 9336TIP3   OH252202   3.160   6.561  13.673 -0.2728  0.8647  0.5272
 9336TIP3    H152203   3.252   6.566  13.697 -0.6488 -0.1081  2.3907
 9336TIP3    H252204   3.146   6.468  13.654 -0.9149  0.9584  0.5304
 9337TIP3   OH252205   4.322   1.065  11.720  0.0113 -0.0676 -0.1471
 9337TIP3    H152206   4.401   1.041  11.672 -0.0484 -0.6081  0.0174
 9337TIP3    H252207   4.330   1.159  11.735  0.2552  0.0241 -0.8035
 9338TIP3   OH252208   0.977   6.408  12.122  0.1624  0.0374 -0.0935
 9338TIP3    H152209   1.066   6.387  12.093  0.2187 -1.7887  1.2599
 9338TIP3    H252210   0.981   6.500  12.148  2.2932 -0.5951  2.0930
 9339TIP3   OH252211   2.759   0.168  12.734  0.0537  0.4548 -0.1230
 9339TIP3    H152212   2.768   0.073  12.736  0.3988  0.4961  0.7132
 9339TIP3    H252213   2.673   0.183  12.694 -0.0631 -0.2087 -0.1367
 9340TIP3   OH252214   6.739   3.685  13.291 -0.3407 -0.1477 -0.0738
 9340TIP3    H152215   6.680   3.741  13.341 -0.1933  0.4431 -0.5421
 9340TIP3    H252216   6.820   3.681  13.342  1.2995  3.6934 -1.9970
 9341TIP3   OH252217   7.361   7.505  12.706  0.3194  0.3232  0.3148
 9341TIP3    H152218   7.389   7.592  12.677  1.6297 -0.7310 -1.8916
 9341TIP3    H252219   7.318   7.467  12.629  1.1144 -1.5127  0.7152
 9342TIP3   OH252220   4.175   5.412  13.067 -0.7644 -0.1408  0.0472
 9342TIP3    H152221   4.186   5.502  13.037 -0.6677  0.3267  1.4512
 9342TIP3    H252222   4.106   5.416  13.133  0.5338 -0.7785  1.4838
 9343TIP3   OH252223   5.327   2.528  11.612 -0.3483  0.6335  0.4954
 9343TIP3    H152224   5.255   2.591  11.616 -0.8890  0.1842 -1.1237
 9343TIP3    H252225   5.298   2.454  11.666 -0.2020  1.2786  1.4793
 9344TIP3   OH252226   6.795   3.921  12.447 -0.7817 -0.4066 -0.2971
 9344TIP3    H152227   6.745   3.856  12.496  0.9646 -1.0045  0.7967
 9344TIP3    H252228   6.734   3.993  12.434 -2.1561 -1.4228  0.2606
 9345TIP3   OH252229   4.604   5.127  13.525  0.3180  0.8376 -0.0274
 9345TIP3    H152230   4.525   5.162  13.568 -0.6850  0.1191 -1.2065
 9345TIP3    H252231   4.593   5.032  13.530  1.5707  0.7070  0.5725
 9346TIP3   OH252232   5.851   3.528  13.052 -0.7660  0.0704 -0.2150
 9346TIP3    H152233   5.774   3.509  13.105 -0.7839 -0.2327 -0.3523
 9346TIP3    H252234   5.900   3.592  13.104 -0.3319 -0.8880  0.5885
 9347TIP3   OH252235   6.542   5.882  11.932 -0.7497 -0.0102 -0.0653
 9347TIP3    H152236   6.541   5.926  11.847  0.0936  1.1478  0.5072
 9347TIP3    H252237   6.510   5.794  11.913 -1.9128  0.6345 -1.3488
 9348TIP3   OH252238   5.731   6.022  12.316 -0.2338  0.3359 -0.3435
 9348TIP3    H152239   5.794   6.094  12.323  1.3228 -0.9157 -0.7930
 9348TIP3    H252240   5.723   6.006  12.222  2.0055 -2.1254 -0.2472
 9349TIP3   OH252241   3.666   1.414  13.031 -0.0658  0.3605  0.1544
 9349TIP3    H152242   3.744   1.359  13.021 -0.0163  0.4559  0.0176
 9349TIP3    H252243   3.593   1.352  13.038 -0.1104  0.2933 -0.8387
 9350TIP3   OH252244   7.334   0.200  13.076  0.2173  0.2580 -0.1124
 9350TIP3    H152245   7.419   0.172  13.042 -0.5243 -1.3979 -0.7298
 9350TIP3    H252246   7.278   0.206  12.999 -0.6323 -0.2455  0.4507
 9351TIP3   OH252247   6.407   3.107  13.507  0.0793 -0.3535 -0.5221
 9351TIP3    H152248   6.334   3.050  13.533 -0.0478  0.4355  0.9973
 9351TIP3    H252249   6.367   3.193  13.494  0.4245 -0.3677 -1.8240
 9352TIP3   OH252250   6.727   2.311  13.325 -0.7067  0.2994  0.5638
 9352TIP3    H152251   6.703   2.314  13.232 -0.8879 -0.1363  0.5935
 9352TIP3    H252252   6.743   2.218  13.343 -1.1350  0.3212  1.0845
 9353TIP3   OH252253   2.341   1.155  13.183  0.1414 -0.1921 -0.3697
 9353TIP3    H152254   2.407   1.191  13.124 -0.1866  0.4195 -0.3769
 9353TIP3    H252255   2.367   1.186  13.270  0.0913 -0.2938 -0.3184
 9354TIP3   OH252256   2.951   5.780  13.828  0.4743  0.2631 -0.0944
 9354TIP3    H152257   2.921   5.814  13.744  0.1253 -1.5481 -0.7332
 9354TIP3    H252258   3.046   5.786  13.823  0.4629  0.0441 -0.6734
 9355TIP3   OH252259   2.214   0.507  13.887 -0.2905  0.4522  0.2117
 9355TIP3    H152260   2.133   0.535  13.929 -0.5328 -1.1734  0.8843
 9355TIP3    H252261   2.196   0.420  13.854  0.6867  0.7160 -1.1204
 9356TIP3   OH252262   5.931   5.285  14.192 -0.3893 -0.8816 -0.0441
 9356TIP3    H152263   5.841   5.267  14.164 -1.2416 -0.9374  2.4983
 9356TIP3    H252264   5.976   5.201  14.180 -0.9310 -1.1283 -0.3999
 9357TIP3   OH252265   7.211   0.298  11.686 -0.2232 -0.1649  0.5628
 9357TIP3    H152266   7.245   0.337  11.766 -1.3028  0.2364  0.8460
 9357TIP3    H252267   7.289   0.265  11.640  0.4761  0.2468  1.4228
 9358TIP3   OH252268   2.830   7.202  13.273 -0.9114  0.6094 -0.2013
 9358TIP3    H152269   2.754   7.248  13.237  0.1853  0.9662 -2.2296
 9358TIP3    H252270   2.802   7.112  13.282 -0.9804  0.2384 -3.1467
 9359TIP3   OH252271   1.417   3.173  12.460 -0.1133 -0.2082 -0.4488
 9359TIP3    H152272   1.460   3.098  12.419  0.9644  0.5400 -0.7617
 9359TIP3    H252273   1.478   3.246  12.444 -0.9951  0.6648  0.0892
 9360TIP3   OH252274   3.081   1.633  13.652  0.3069  0.3445  0.2448
 9360TIP3    H152275   3.067   1.722  13.684  0.7218  0.5959 -0.2622
 9360TIP3    H252276   2.994   1.603  13.628  0.2559  0.8853 -0.2727
 9361TIP3   OH252277   5.574   4.472  13.140 -0.5855 -0.3284  0.3032
 9361TIP3    H152278   5.480   4.491  13.139 -0.4418  0.4020 -1.0332
 9361TIP3    H252279   5.593   4.449  13.231 -1.0287  4.7992  2.0059
 9362TIP3   OH252280   2.670   1.130  11.924  0.2781  0.2955  0.1114
 9362TIP3    H152281   2.604   1.200  11.927  1.2711  1.2187  2.0710
 9362TIP3    H252282   2.650   1.075  12.000 -0.0509 -1.1943 -1.0049
 9363TIP3   OH252283   5.239   6.762  12.497 -0.4282 -0.4699 -0.2024
 9363TIP3    H152284   5.306   6.823  12.465 -0.1498 -0.1842  0.9078
 9363TIP3    H252285   5.272   6.732  12.581 -0.8873 -1.6571 -0.4315
 9364TIP3   OH252286   5.723   0.947  12.737 -0.0359  0.1180  0.3818
 9364TIP3    H152287   5.646   0.902  12.703  0.4660 -0.3614 -0.1331
 9364TIP3    H252288   5.791   0.931  12.672 -0.0458  2.3377 -0.2536
 9365TIP3   OH252289   5.009   7.909  11.520 -0.5212 -0.0373  0.2123
 9365TIP3    H152290   5.082   7.956  11.480  0.0170 -1.7921 -0.9803
 9365TIP3    H252291   4.968   7.973  11.578  2.2106  0.9206  1.2530
 9366TIP3   OH252292   7.210   4.642  12.557  0.2437  0.0460  0.2204
 9366TIP3    H152293   7.250   4.603  12.635 -1.0335 -0.7974  0.4971
 9366TIP3    H252294   7.249   4.596  12.484 -0.6977 -1.3057  0.5149
 9367TIP3   OH252295   7.220   6.854  12.162 -0.1859 -0.4971  0.5807
 9367TIP3    H152296   7.207   6.897  12.077 -1.2232  0.8249  1.3590
 9367TIP3    H252297   7.313   6.866  12.180 -0.5125  2.0136  1.0008
 9368TIP3   OH252298   2.675   3.396  13.363 -0.2864  0.1038  0.4779
 9368TIP3    H152299   2.734   3.409  13.289  0.4625 -1.7499  0.6869
 9368TIP3    H252300   2.692   3.471  13.420  1.9745 -0.3910  0.5599
 9369TIP3   OH252301   0.869   2.135  12.381 -0.2617 -0.7518  0.2173
 9369TIP3    H152302   0.787   2.132  12.429 -0.8842  1.7476 -0.5349
 9369TIP3    H252303   0.865   2.060  12.321 -2.2816 -0.3540 -0.2052
 9370TIP3   OH252304   8.065   3.812  11.931 -0.2115 -0.7442  0.2540
 9370TIP3    H152305   8.048   3.800  12.025 -0.5250  0.1233  0.3109
 9370TIP3    H252306   8.144   3.761  11.915 -0.0566 -0.7610  1.0305
 9371TIP3   OH252307   7.947   4.048  11.708 -0.1843 -0.1759 -0.5917
 9371TIP3    H152308   8.006   4.109  11.665 -1.8984  1.1691 -1.1371
 9371TIP3    H252309   7.864   4.095  11.716 -1.3616 -2.1508 -0.3250
 9372TIP3   OH252310   7.763   1.779  13.197 -0.0545 -0.0896 -0.1603
 9372TIP3    H152311   7.710   1.834  13.139 -0.6994 -0.6097 -0.0703
 9372TIP3    H252312   7.853   1.793  13.167 -0.0268  2.1572  0.8095
 9373TIP3   OH252313   1.184   0.359  13.529  0.3077  0.4001 -0.0738
 9373TIP3    H152314   1.244   0.299  13.573  1.3252  0.9758 -0.6340
 9373TIP3    H252315   1.102   0.311  13.524  0.5983 -0.2612  1.0595
 9374TIP3   OH252316   7.060   5.083  13.603 -0.0524 -0.0416 -0.4218
 9374TIP3    H152317   7.024   5.153  13.658 -0.6300  0.0536 -0.9062
 9374TIP3    H252318   7.126   5.041  13.658 -1.5515 -0.8311  0.8788
 9375TIP3   OH252319   4.085   2.511  13.275 -0.2222  0.0354  0.4811
 9375TIP3    H152320   4.102   2.602  13.297  4.9370 -0.4746 -0.2751
 9375TIP3    H252321   4.094   2.463  13.358 -1.9612  0.0142  0.7015
 9376TIP3   OH252322   4.629   4.508  13.204  0.1673 -0.9006  0.5084
 9376TIP3    H152323   4.546   4.550  13.227  0.2646  0.4155 -1.3232
 9376TIP3    H252324   4.604   4.439  13.143  0.4069 -0.3106 -0.2786
 9377TIP3   OH252325   0.022   5.990  12.822 -0.2866 -0.6300  0.1276
 9377TIP3    H152326   0.018   5.973  12.916 -1.1668 -1.3972 -0.0397
 9377TIP3    H252327  -0.032   6.068  12.809 -0.7703 -0.9568  0.1630
 9378TIP3   OH252328   7.523   2.059  12.407 -0.3810 -0.2104  0.2796
 9378TIP3    H152329   7.491   2.147  12.424 -0.9208 -0.5625  1.1656
 9378TIP3    H252330   7.609   2.056  12.450 -0.6838 -0.3324  0.8946
 9379TIP3   OH252331   7.211   7.755  13.877  0.0566 -0.5544  0.1899
 9379TIP3    H152332   7.253   7.775  13.793 -0.2531 -0.2017  0.1180
 9379TIP3    H252333   7.259   7.679  13.910  1.5633  0.5341  0.6673
 9380TIP3   OH252334   1.801   0.110  12.442 -0.2405 -0.1650 -0.4599
 9380TIP3    H152335   1.782   0.146  12.528 -0.5121  1.8924 -1.3034
 9380TIP3    H252336   1.822   0.018  12.457  1.3378  0.5213  1.9761
 9381TIP3   OH252337   0.064   3.897  12.944  0.7294 -0.2486  0.2673
 9381TIP3    H152338   0.047   3.809  12.977  1.2877 -0.5843 -0.3112
 9381TIP3    H252339   0.159   3.902  12.936  0.6315 -0.1067 -1.0437
 9382TIP3   OH252340   1.650   6.924  12.227 -0.5834 -0.0990  0.4165
 9382TIP3    H152341   1.610   7.011  12.228  0.8601  0.6305 -0.5800
 9382TIP3    H252342   1.727   6.935  12.171 -0.9229 -2.2732 -0.5659
 9383TIP3   OH252343   6.735   2.566  13.391 -0.1507  0.2187  0.2405
 9383TIP3    H152344   6.757   2.473  13.406  1.4116  0.6357  0.8212
 9383TIP3    H252345   6.662   2.583  13.450 -1.5050 -1.0210 -1.0225
 9384TIP3   OH252346   6.585   1.720  13.515 -0.2185  0.3271  0.0797
 9384TIP3    H152347   6.615   1.748  13.428  0.4308  0.3551  0.3102
 9384TIP3    H252348   6.655   1.665  13.548  0.6688  2.2403  1.5832
 9385TIP3   OH252349   8.047   0.018  12.916  0.1964  0.2918  0.4237
 9385TIP3    H152350   8.081  -0.053  12.970  0.2932  0.4625  0.5876
 9385TIP3    H252351   8.117   0.083  12.915  0.8532 -0.3824 -1.2003
 9386TIP3   OH252352   5.843   4.472  12.952  0.5715  0.1973  0.0914
 9386TIP3    H152353   5.835   4.403  13.018  0.5244  0.2073  0.0964
 9386TIP3    H252354   5.837   4.554  13.001 -0.2603  0.2094 -0.0217
 9387TIP3   OH252355   7.385   5.830  11.765 -0.3583  0.4032  0.1082
 9387TIP3    H152356   7.327   5.827  11.689  2.2354  0.1836 -2.0020
 9387TIP3    H252357   7.434   5.911  11.754  4.3922 -2.3395 -2.0984
 9388TIP3   OH252358   3.746   2.860  12.972 -0.5502  0.2809  0.2034
 9388TIP3    H152359   3.760   2.899  12.886 -0.8085 -1.4321 -0.6509
 9388TIP3    H252360   3.816   2.896  13.026  0.0499  0.8343 -0.9037
 9389TIP3   OH252361   5.533   5.116  12.082  0.4625 -0.4578  0.1549
 9389TIP3    H152362   5.531   5.071  11.998 -1.7100  1.6031 -1.0469
 9389TIP3    H252363   5.578   5.199  12.064 -3.1895  1.7107 -0.1597
 9390TIP3   OH252364   2.403   1.578  12.165 -0.2064 -0.1802  0.5413
 9390TIP3    H152365   2.312   1.605  12.154 -0.1708 -0.0122  0.6594
 9390TIP3    H252366   2.448   1.615  12.089 -0.6319 -2.1066 -0.7257
 9391TIP3   OH252367   2.585   1.800  12.080  0.3588  0.1552  0.4451
 9391TIP3    H152368   2.608   1.888  12.051  0.5067  0.3472  1.1259
 9391TIP3    H252369   2.659   1.746  12.051  0.1183  0.1998 -0.2479
 9392TIP3   OH252370   6.280   4.875  12.385  1.2168  0.2071  0.9667
 9392TIP3    H152371   6.323   4.790  12.397 -0.2178 -0.5931  0.6217
 9392TIP3    H252372   6.252   4.901  12.472 -2.0362 -1.7254  0.6299
 9393TIP3   OH252373   1.329   6.752  12.425 -0.5814  0.6062  0.4932
 9393TIP3    H152374   1.293   6.823  12.372 -1.3489  0.8466  1.2990
 9393TIP3    H252375   1.332   6.677  12.365  0.3697  1.3372 -0.4029
 9394TIP3   OH252376   4.110   3.108  13.921 -0.7367  0.0748 -0.2170
 9394TIP3    H152377   4.072   3.183  13.875 -1.0914 -0.5090 -0.9028
 9394TIP3    H252378   4.183   3.081  13.865 -0.3612  0.1505  0.2329
 9395TIP3   OH252379   2.136   0.138  13.061 -0.1135  0.3862 -0.5631
 9395TIP3    H152380   2.185   0.166  13.139 -0.5772  1.6247 -0.6950
 9395TIP3    H252381   2.127   0.043  13.072  1.9823  0.1547 -0.3605
 9396TIP3   OH252382   0.564   3.528  12.987  0.5262  0.2446  0.5996
 9396TIP3    H152383   0.574   3.504  12.895  1.4319 -0.6457  0.9092
 9396TIP3    H252384   0.491   3.475  13.018  1.1019 -0.5142  0.7166
 9397TIP3   OH252385   6.850   0.241  11.520 -0.0581  0.2457  0.0327
 9397TIP3    H152386   6.813   0.189  11.449  0.0317  0.1090  0.0862
 9397TIP3    H252387   6.818   0.330  11.503  2.0609  0.7643 -1.6852
 9398TIP3   OH252388   5.010   4.250  11.621  0.2514 -0.2561  0.6368
 9398TIP3    H152389   5.028   4.260  11.715  2.1689 -0.5870  0.3446
 9398TIP3    H252390   4.956   4.326  11.600  1.7553  1.1392  1.5569
 9399TIP3   OH252391   3.320   3.488  14.231 -0.3717 -0.6930  0.4269
 9399TIP3    H152392   3.345   3.542  14.156 -0.2017 -1.7047 -0.2612
 9399TIP3    H252393   3.224   3.489  14.230 -0.3689 -0.0647  0.6703
 9400TIP3   OH252394   2.346   2.470  11.659 -0.1343 -0.4628 -0.0936
 9400TIP3    H152395   2.373   2.559  11.637 -0.1467 -0.3200  0.4602
 9400TIP3    H252396   2.254   2.478  11.684 -0.1755 -0.6518 -0.1786
 9401TIP3   OH252397   1.319   3.394  12.875  0.0533  0.0930  0.2482
 9401TIP3    H152398   1.229   3.427  12.880 -0.1621 -0.6590  1.8516
 9401TIP3    H252399   1.342   3.373  12.965  1.8385  0.2335 -0.1466
 9402TIP3   OH252400   5.154   2.410  13.787  0.1762 -0.1908 -0.1198
 9402TIP3    H152401   5.160   2.330  13.838 -0.1560  0.2927  0.6913
 9402TIP3    H252402   5.208   2.473  13.834 -0.8235  0.5057  0.1241
 9403TIP3   OH252403   6.278   4.379  11.814  0.3635  0.5693  0.3691
 9403TIP3    H152404   6.351   4.429  11.778 -0.6120  2.5841  1.0164
 9403TIP3    H252405   6.282   4.295  11.769  2.6664  0.8465 -0.0775
 9404TIP3   OH252406   3.959   4.978  13.892 -0.3265  0.5651 -0.1235
 9404TIP3    H152407   4.008   4.998  13.972 -2.0414  0.4156  1.0318
 9404TIP3    H252408   4.004   4.902  13.855  0.9027  1.0517  0.3169
 9405TIP3   OH252409   0.459   4.677  14.061  0.4505  0.3945  0.3476
 9405TIP3    H152410   0.468   4.585  14.083  1.3988  0.1474 -0.9568
 9405TIP3    H252411   0.386   4.708  14.115  1.0479 -0.7418  1.8737
 9406TIP3   OH252412   3.917   3.188  12.983  0.0574  0.1287  0.2781
 9406TIP3    H152413   4.005   3.189  12.946  1.6234  1.1286  3.5895
 9406TIP3    H252414   3.868   3.252  12.932  0.2144 -2.4667 -3.4877
 9407TIP3   OH252415   0.611   5.765  12.711 -0.4853  0.8337 -0.2276
 9407TIP3    H152416   0.605   5.781  12.617  2.1660  2.8171 -0.1719
 9407TIP3    H252417   0.535   5.811  12.748 -0.5800  1.5377 -1.2493
 9408TIP3   OH252418   7.016   0.911  12.861 -0.2936  0.2670  0.0827
 9408TIP3    H152419   7.009   0.873  12.774 -1.1820 -0.5760  0.5100
 9408TIP3    H252420   6.964   0.992  12.856  1.5830  1.5093 -0.8187
 9409TIP3   OH252421   6.593   3.246  11.912 -0.6951  0.9186  0.0496
 9409TIP3    H152422   6.671   3.198  11.886  0.1560  1.0881  2.1149
 9409TIP3    H252423   6.576   3.306  11.839  1.8352  1.7646  0.0941
 9410TIP3   OH252424   8.011   1.295  13.717  0.4265 -0.2712 -0.0663
 9410TIP3    H152425   7.956   1.341  13.780  1.3795 -1.1022  1.4242
 9410TIP3    H252426   8.068   1.362  13.680 -0.3664  0.2778 -0.3247
 9411TIP3   OH252427   3.054   0.925  11.587 -0.2090  0.0616 -0.1423
 9411TIP3    H152428   3.124   0.941  11.650 -1.0494  0.1144  0.8087
 9411TIP3    H252429   3.034   1.012  11.551 -0.9578  0.3460  0.8907
 9412TIP3   OH252430   4.091   4.430  12.518 -0.2734 -0.2426 -0.1932
 9412TIP3    H152431   4.112   4.370  12.590 -1.8524 -2.5912 -1.5566
 9412TIP3    H252432   4.081   4.516  12.561  1.4449 -1.0134  1.9393
 9413TIP3   OH252433   1.055   5.891  12.934  0.1836  0.0390 -0.1744
 9413TIP3    H152434   1.149   5.893  12.952 -0.0794 -0.1414  1.4291
 9413TIP3    H252435   1.024   5.815  12.983 -1.3981  2.4599  2.9627
 9414TIP3   OH252436   4.402   4.012  13.461  0.6207  0.2029  0.0970
 9414TIP3    H152437   4.452   4.026  13.541  1.1397 -0.1647 -0.1597
 9414TIP3    H252438   4.468   3.999  13.393  0.1918  1.3038 -0.5446
 9415TIP3   OH252439   4.586   0.238  12.804  0.3869  0.1290  0.0378
 9415TIP3    H152440   4.572   0.333  12.800 -0.4935 -0.0050 -0.4406
 9415TIP3    H252441   4.542   0.204  12.725 -0.6602 -0.8132  0.9905
 9416TIP3   OH252442   6.831   3.447  12.827 -0.0540 -0.1360  0.0388
 9416TIP3    H152443   6.814   3.491  12.910  0.9529  0.3370  0.0116
 9416TIP3    H252444   6.822   3.516  12.761  1.3608  0.0147 -0.0202
 9417TIP3   OH252445   1.773   8.049  11.710 -0.5037  0.5543 -0.0900
 9417TIP3    H152446   1.783   8.144  11.712 -1.3418  0.6856 -0.9693
 9417TIP3    H252447   1.836   8.019  11.644  0.7889  0.3149  1.1997
 9418TIP3   OH252448   6.929   0.923  12.563  0.0001  0.1624  0.0324
 9418TIP3    H152449   7.005   0.927  12.505 -0.6012 -0.2604 -0.8034
 9418TIP3    H252450   6.929   1.007  12.609  2.2528 -0.6534  1.7176
 9419TIP3   OH252451   8.322   7.885  12.178 -0.1141 -0.4315 -0.6033
 9419TIP3    H152452   8.275   7.967  12.191 -0.3129 -0.5764 -0.3987
 9419TIP3    H252453   8.259   7.817  12.201 -0.4679 -0.7088 -2.2636
 9420TIP3   OH252454   8.083   6.234  13.593  0.1004 -0.2533 -0.2184
 9420TIP3    H152455   8.105   6.291  13.667 -0.9931 -1.3773  1.0401
 9420TIP3    H252456   7.998   6.197  13.616  1.0788 -2.9995 -0.5611
 9421TIP3   OH252457   2.949   1.532  11.869  0.1138  0.0679  0.1881
 9421TIP3    H152458   2.957   1.595  11.798 -2.7336  0.3133 -0.0361
 9421TIP3    H252459   3.031   1.483  11.866  0.1744  0.0880 -3.2584
 9422TIP3   OH252460   8.005   6.238  13.948 -0.3401 -0.1817  0.1002
 9422TIP3    H152461   8.073   6.214  14.012 -1.5037  0.7975  1.7915
 9422TIP3    H252462   8.052   6.282  13.878  0.8807 -0.2960  0.8218
 9423TIP3   OH252463   4.682   0.579  13.638  0.0636  0.0228 -0.0173
 9423TIP3    H152464   4.685   0.531  13.555 -0.8714 -0.0635 -0.0182
 9423TIP3    H252465   4.615   0.645  13.624 -1.5710 -1.2638  1.3123
 9424TIP3   OH252466   3.507   3.810  13.394  0.7315  0.3548 -0.4000
 9424TIP3    H152467   3.590   3.765  13.382  1.1736  0.8845  0.5767
 9424TIP3    H252468   3.476   3.828  13.305  0.0185 -2.7209 -0.8667
 9425TIP3   OH252469   5.892   4.239  12.358  0.4094  0.1485 -0.4586
 9425TIP3    H152470   5.976   4.261  12.318 -0.0195  2.6732 -0.1241
 9425TIP3    H252471   5.828   4.292  12.311 -0.6193  0.2464  0.9719
 9426TIP3   OH252472   7.459   1.014  11.668 -0.5256 -0.0127  0.1057
 9426TIP3    H152473   7.412   1.050  11.743  0.0046 -0.3152  0.5880
 9426TIP3    H252474   7.407   0.939  11.640 -0.8910  0.2877 -0.0319
 9427TIP3   OH252475   5.757   2.755  12.591 -0.0486  0.4993  0.2239
 9427TIP3    H152476   5.689   2.789  12.532  0.2523  0.1065 -0.3671
 9427TIP3    H252477   5.771   2.665  12.561 -0.2827  0.1098  1.2593
 9428TIP3   OH252478   3.137   2.175  12.493  0.5530 -0.0201  0.3405
 9428TIP3    H152479   3.142   2.082  12.513  0.1510 -0.3344 -0.9201
 9428TIP3    H252480   3.048   2.200  12.516 -0.0250 -0.4648 -1.2725
 9429TIP3   OH252481   3.225   2.245  13.892 -0.0151  0.1696  0.1507
 9429TIP3    H152482   3.154   2.182  13.897  1.2482 -1.2432  1.3883
 9429TIP3    H252483   3.230   2.269  13.799 -2.3726  0.7020  0.1082
 9430TIP3   OH252484   5.791   3.152  13.814  0.0650 -0.4219 -0.0267
 9430TIP3    H152485   5.712   3.199  13.838  0.6380  0.2168  0.6715
 9430TIP3    H252486   5.861   3.199  13.860  0.8973 -0.6842 -0.9964
 9431TIP3   OH252487   6.641   6.057  12.117  0.4147  0.1286  0.2838
 9431TIP3    H152488   6.737   6.060  12.112  0.5234 -1.6500  0.6422
 9431TIP3    H252489   6.617   5.984  12.060 -0.8503  1.3086 -0.7659
 9432TIP3   OH252490   2.947   7.190  12.783 -0.2938 -0.5471 -0.3247
 9432TIP3    H152491   2.962   7.207  12.876 -2.0096 -0.9172  0.0481
 9432TIP3    H252492   3.001   7.113  12.764  1.2305  0.4155 -0.0362
 9433TIP3   OH252493   4.461   3.839  12.529 -0.1657 -0.1912  0.1535
 9433TIP3    H152494   4.367   3.818  12.532  0.0806 -1.3953  0.1988
 9433TIP3    H252495   4.504   3.758  12.557  0.9164  0.0321 -0.7803
 9434TIP3   OH252496   8.384   0.427  12.095  0.4626  0.2103  0.4500
 9434TIP3    H152497   8.297   0.399  12.122  0.1086  0.3731 -0.4730
 9434TIP3    H252498   8.404   0.503  12.150 -0.2205  0.5169  0.2801
 9435TIP3   OH252499   5.828   6.564  13.384  0.5984 -0.3367 -0.0554
 9435TIP3    H152500   5.864   6.480  13.413  1.0251  0.0519  0.5717
 9435TIP3    H252501   5.738   6.544  13.358  1.1784 -1.2749 -1.4201
 9436TIP3   OH252502   2.416   3.499  13.228  0.6223 -0.3789 -0.3363
 9436TIP3    H152503   2.367   3.442  13.168  1.0134  0.0738 -1.1066
 9436TIP3    H252504   2.468   3.439  13.281  0.6365 -0.7689 -0.7822
 9437TIP3   OH252505   4.218   0.677  12.268  0.6199  0.0443  0.1338
 9437TIP3    H152506   4.313   0.679  12.272  0.6230 -0.4183  0.3486
 9437TIP3    H252507   4.194   0.592  12.305  0.2805 -1.2588 -2.8115
 9438TIP3   OH252508   7.986   6.633  11.852 -0.0426  0.2865  0.5604
 9438TIP3    H152509   7.961   6.721  11.882  0.4773  1.0659 -1.1194
 9438TIP3    H252510   8.076   6.623  11.882 -0.7318 -0.5296  2.4675
 9439TIP3   OH252511   5.500   8.325  11.589  0.8339  0.4414  0.0438
 9439TIP3    H152512   5.531   8.397  11.534  1.0882  0.4188  0.1598
 9439TIP3    H252513   5.412   8.352  11.617  1.4236  1.3056  1.1431
 9440TIP3   OH252514   5.167   3.637  13.632 -0.2264  0.1534  0.4959
 9440TIP3    H152515   5.116   3.714  13.608  2.5339  1.6090 -1.2966
 9440TIP3    H252516   5.189   3.650  13.725 -0.9514  0.7959  0.5824
 9441TIP3   OH252517   5.527   1.875  13.232 -0.3787 -0.2126  0.1323
 9441TIP3    H152518   5.501   1.783  13.227  2.9045 -1.3076  0.8920
 9441TIP3    H252519   5.518   1.898  13.325 -0.1404 -0.1260  0.1353
 9442TIP3   OH252520   5.943   4.214  12.633 -0.1065 -0.2448  0.7276
 9442TIP3    H152521   5.913   4.216  12.542  3.5772  0.9757 -0.6552
 9442TIP3    H252522   5.875   4.261  12.682 -0.5847  2.2448 -2.0216
 9443TIP3   OH252523   5.313   0.789  11.624  0.1260  0.5801  0.7174
 9443TIP3    H152524   5.284   0.818  11.711 -0.5331  0.6962  0.4649
 9443TIP3    H252525   5.373   0.858  11.594  0.5509  0.4177  1.1782
 9444TIP3   OH252526   1.542   1.195  11.883 -0.2174  0.0968 -0.0313
 9444TIP3    H152527   1.528   1.170  11.975 -1.2591  3.5150  0.8839
 9444TIP3    H252528   1.465   1.164  11.837  0.1303 -1.3005  0.2799
 9445TIP3   OH252529   1.804   3.551  12.383  0.2227  0.2820  0.2119
 9445TIP3    H152530   1.874   3.537  12.319  0.7527 -0.0272  0.8544
 9445TIP3    H252531   1.825   3.493  12.456 -0.0635  1.0475  0.9190
 9446TIP3   OH252532   7.613   2.440  13.392 -0.2639 -0.6738  0.0585
 9446TIP3    H152533   7.545   2.502  13.365 -0.9429 -1.4364 -0.0253
 9446TIP3    H252534   7.565   2.368  13.433  0.4716 -1.3407 -0.2228
 9447TIP3   OH252535   1.037   0.517  12.105  0.3053 -0.9142 -0.0336
 9447TIP3    H152536   0.998   0.498  12.019  2.4122 -1.6665 -0.8849
 9447TIP3    H252537   1.072   0.433  12.134  1.8005 -0.1775  0.3962
 9448TIP3   OH252538   2.022   5.340  11.714  0.0352 -0.2538 -0.3111
 9448TIP3    H152539   1.927   5.354  11.704 -0.1614 -0.8960  0.5649
 9448TIP3    H252540   2.055   5.423  11.746 -0.5417 -0.5707  1.2111
 9449TIP3   OH252541   2.317   1.286  12.165 -0.1067  0.1225  0.2668
 9449TIP3    H152542   2.329   1.338  12.085  0.2687 -1.7866 -0.9824
 9449TIP3    H252543   2.225   1.262  12.164  0.2507 -1.3885 -0.6237
 9450TIP3   OH252544   3.574   7.004  12.084 -0.1259  0.4066  0.0526
 9450TIP3    H152545   3.591   7.038  11.996  1.1861 -0.0098  0.1245
 9450TIP3    H252546   3.565   7.081  12.139  1.8767  0.6885  0.0469
 9451TIP3   OH252547   3.090   2.658  13.206  0.1636 -0.4312 -0.3027
 9451TIP3    H152548   3.170   2.619  13.241  0.1119  0.6394  1.0708
 9451TIP3    H252549   3.118   2.740  13.166 -0.3910  0.6064  1.3605
 9452TIP3   OH252550   3.011   6.390  12.896 -0.4406  0.2058  0.2646
 9452TIP3    H152551   3.024   6.474  12.938  0.5317  0.2216 -0.0510
 9452TIP3    H252552   2.973   6.411  12.811 -0.3462  0.3130  0.2496
 9453TIP3   OH252553   1.742   0.382  12.906 -0.0197 -0.3645 -0.0609
 9453TIP3    H152554   1.697   0.327  12.970  1.7816 -0.6174  1.0513
 9453TIP3    H252555   1.674   0.443  12.876 -0.8946 -0.0727  2.2688
 9454TIP3   OH252556   0.823   7.320  12.782  0.1973  0.0700  0.1986
 9454TIP3    H152557   0.918   7.325  12.797 -0.0468 -0.4972  2.2721
 9454TIP3    H252558   0.784   7.365  12.857 -1.1995 -0.4172 -0.1964
 9455TIP3   OH252559   5.815   0.280  12.449 -0.1343 -0.4893  0.5188
 9455TIP3    H152560   5.730   0.314  12.419  0.3951  0.1468 -0.2815
 9455TIP3    H252561   5.851   0.234  12.373  0.3241 -0.6061  0.8039
 9456TIP3   OH252562   3.279   2.537  13.559 -0.1178  0.5715  0.0406
 9456TIP3    H152563   3.204   2.526  13.500  0.9258  0.0509 -1.2530
 9456TIP3    H252564   3.304   2.629  13.547 -0.0819  0.5404 -0.1397
 9457TIP3   OH252565   7.631   5.432  12.768  0.2724 -0.0371 -0.6899
 9457TIP3    H152566   7.683   5.392  12.699  1.0564  0.2913 -0.3091
 9457TIP3    H252567   7.606   5.359  12.825  0.1137 -0.2293 -1.0068
 9458TIP3   OH252568   1.384   0.730  13.034 -0.4738  0.3808  0.3350
 9458TIP3    H152569   1.291   0.745  13.049 -0.7865  0.0937 -1.1858
 9458TIP3    H252570   1.427   0.779  13.105 -1.7855 -0.9156  2.1306
 9459TIP3   OH252571   6.799   7.796  13.912  0.3814  0.6006 -0.0662
 9459TIP3    H152572   6.796   7.701  13.921  2.5762  0.6077  1.7969
 9459TIP3    H252573   6.716   7.820  13.871 -0.4203 -2.0541 -0.1339
 9460TIP3   OH252574   3.869   0.514  13.272 -0.2289  0.3677 -0.0960
 9460TIP3    H152575   3.863   0.527  13.367 -0.0247  1.1682 -0.1798
 9460TIP3    H252576   3.788   0.551  13.238 -0.1667  0.3595 -0.2528
 9461TIP3   OH252577   1.019   1.218  12.435 -0.4506 -0.0804 -0.6389
 9461TIP3    H152578   1.105   1.229  12.395 -0.6250  0.1108 -0.9676
 9461TIP3    H252579   0.999   1.125  12.423  0.6101 -0.6073  1.2962
 9462TIP3   OH252580   2.704   0.388  13.022 -0.4206 -0.0336 -0.1331
 9462TIP3    H152581   2.707   0.313  13.082 -0.9658  0.9239  1.1523
 9462TIP3    H252582   2.767   0.450  13.058 -1.3582  0.9023 -0.0398
 9463TIP3   OH252583   2.920   4.290  13.188  0.2011 -0.3295 -0.4982
 9463TIP3    H152584   2.874   4.283  13.272 -1.0756  1.0781 -1.0394
 9463TIP3    H252585   2.887   4.216  13.136  0.7539 -1.0133  0.1019
 9464TIP3   OH252586   6.174   6.980  11.464  0.0048  0.9328  0.1509
 9464TIP3    H152587   6.117   6.927  11.409  0.0930  0.9137  0.0782
 9464TIP3    H252588   6.125   6.990  11.546  0.9974 -1.3752  1.1259
 9465TIP3   OH252589   7.817   3.304  12.661 -0.0989 -0.1099  0.3300
 9465TIP3    H152590   7.766   3.300  12.580  2.0955 -0.4901 -1.1232
 9465TIP3    H252591   7.850   3.215  12.674  0.2213  0.1246  1.2109
 9466TIP3   OH252592   1.172   4.914  13.817  0.1599  0.1861  0.2588
 9466TIP3    H152593   1.224   4.969  13.758 -0.8755  0.5821 -0.3135
 9466TIP3    H252594   1.207   4.826  13.805  1.6930  0.6664  1.0214
 9467TIP3   OH252595   7.793   5.724  13.651 -0.5882 -0.0755  0.2159
 9467TIP3    H152596   7.877   5.765  13.672 -0.2924 -0.1007 -0.8857
 9467TIP3    H252597   7.736   5.751  13.723  0.4599 -0.4037  1.2053
 9468TIP3   OH252598   5.971   6.585  12.755  0.6265 -0.1673 -0.7416
 9468TIP3    H152599   5.899   6.635  12.794  0.4871 -0.1046 -1.0788
 9468TIP3    H252600   6.050   6.632  12.781  0.5586 -0.3270 -0.2299
 9469TIP3   OH252601   0.114   4.378  12.392  0.3035  0.1270  0.5825
 9469TIP3    H152602   0.064   4.442  12.442  1.3858  2.8089 -1.5479
 9469TIP3    H252603   0.047   4.324  12.349 -0.7030  1.3210  0.5912
 9470TIP3   OH252604   7.392   5.934  13.994 -0.0120 -0.1976  0.7203
 9470TIP3    H152605   7.352   6.015  13.961  0.8163  0.8888  2.2313
 9470TIP3    H252606   7.319   5.884  14.030 -0.7702 -0.9004 -1.5938
 9471TIP3   OH252607   3.597   6.110  12.871 -0.0044 -0.2093 -0.3396
 9471TIP3    H152608   3.648   6.163  12.932 -0.2886 -0.7465  0.3817
 9471TIP3    H252609   3.641   6.121  12.787  0.7353  0.0924  0.0798
 9472TIP3   OH252610   1.195   2.304  13.549  0.5259  0.1828  0.8477
 9472TIP3    H152611   1.131   2.250  13.597  1.1274  0.2328  1.7326
 9472TIP3    H252612   1.248   2.343  13.618 -0.5396  2.7567  0.3245
 9473TIP3   OH252613   4.776   0.967  13.337  0.4728 -0.3088  0.2453
 9473TIP3    H152614   4.805   0.930  13.420  0.3925  2.2323  1.5280
 9473TIP3    H252615   4.820   1.052  13.332 -1.3508  0.6328 -1.1421
 9474TIP3   OH252616   6.606   7.901  13.715  0.4378 -0.1825  0.0178
 9474TIP3    H152617   6.551   7.971  13.681 -1.2527 -1.4234  0.0782
 9474TIP3    H252618   6.565   7.821  13.684  0.7143 -1.2554  2.2257
 9475TIP3   OH252619   1.749   3.713  12.065  0.3212  0.5771 -0.5274
 9475TIP3    H152620   1.780   3.790  12.112  4.2574 -0.7476 -0.5499
 9475TIP3    H252621   1.773   3.729  11.974 -1.4478  0.4702 -1.0393
 9476TIP3   OH252622   5.342   5.037  12.273  0.4215  0.5439 -0.1441
 9476TIP3    H152623   5.416   5.039  12.213  1.2292 -0.1099  0.7900
 9476TIP3    H252624   5.342   5.124  12.313  1.1669  0.3093  0.3918
 9477TIP3   OH252625   6.061   2.821  11.631  0.6995  0.7674  0.4337
 9477TIP3    H152626   6.073   2.733  11.665  2.1084  1.4464  1.7972
 9477TIP3    H252627   6.099   2.819  11.544 -0.1496 -0.1949  0.0675
 9478TIP3   OH252628   1.057   5.279  13.103  0.2262 -0.3493  0.0330
 9478TIP3    H152629   1.103   5.225  13.038  0.6717  0.9135 -0.7464
 9478TIP3    H252630   0.973   5.300  13.061 -0.0305 -0.5907  0.4187
 9479TIP3   OH252631   6.428   4.031  12.830  0.0749  0.2882  0.1048
 9479TIP3    H152632   6.455   4.003  12.742  0.7223 -1.1036  0.7136
 9479TIP3    H252633   6.403   3.949  12.874 -2.9998  1.2011  0.3420
 9480TIP3   OH252634   1.882   1.638  11.941 -0.3174 -0.1181 -0.0488
 9480TIP3    H152635   1.957   1.694  11.920 -0.1779 -0.6980 -1.1773
 9480TIP3    H252636   1.806   1.692  11.921 -0.1871 -0.0956 -0.5051
 9481TIP3   OH252637   6.576   4.395  12.012  0.2063  0.1774 -0.6096
 9481TIP3    H152638   6.588   4.475  11.961  0.4212  1.1636  0.9405
 9481TIP3    H252639   6.638   4.402  12.085 -0.7539 -0.7218  0.3457
 9482TIP3   OH252640   0.359   7.606  11.941  0.2822 -0.8518 -0.0742
 9482TIP3    H152641   0.282   7.654  11.910  1.4821  1.1410 -0.2065
 9482TIP3    H252642   0.359   7.620  12.036  0.4802 -0.8405 -0.0751
 9483TIP3   OH252643   5.938   3.170  12.548  0.4338 -0.7347  0.0912
 9483TIP3    H152644   5.891   3.117  12.614  0.3118 -2.4751 -1.3111
 9483TIP3    H252645   5.910   3.134  12.464  2.7998 -0.5499 -0.8605
 9484TIP3   OH252646   2.437   4.903  11.796  0.2944  0.0172  0.1855
 9484TIP3    H152647   2.487   4.862  11.867  1.2615 -0.8167 -0.9436
 9484TIP3    H252648   2.440   4.997  11.816  0.3254 -0.2119  1.3740
 9485TIP3   OH252649   4.335   8.283  13.628  0.5159 -0.0607 -0.4923
 9485TIP3    H152650   4.381   8.336  13.563  1.7102  1.6030  1.5664
 9485TIP3    H252651   4.401   8.224  13.663 -0.1251 -0.9771 -0.7826
 9486TIP3   OH252652   7.235   6.392  12.831 -0.7828  0.1290  0.3621
 9486TIP3    H152653   7.142   6.414  12.829 -0.8861 -0.2907 -1.6205
 9486TIP3    H252654   7.239   6.302  12.801  0.2884  0.1975  0.2616
 9487TIP3   OH252655   4.029   0.496  12.665 -0.6642  0.1777 -0.0039
 9487TIP3    H152656   4.006   0.583  12.632 -0.7309 -0.4290 -1.6575
 9487TIP3    H252657   4.079   0.513  12.745 -0.9247  1.7241 -0.1406
 9488TIP3   OH252658   0.933   0.010  12.186 -0.0331  0.0747 -0.3508
 9488TIP3    H152659   0.987  -0.019  12.259 -0.3652 -0.2007 -0.2114
 9488TIP3    H252660   0.843   0.001  12.218 -0.1548  0.8320 -0.4668
 9489TIP3   OH252661   6.273   1.386  12.572 -0.1867  0.1982  0.0611
 9489TIP3    H152662   6.266   1.461  12.513 -2.0168 -0.2715 -0.3813
 9489TIP3    H252663   6.254   1.421  12.658  1.2409  0.6411  0.2300
 9490TIP3   OH252664   0.914   6.065  12.472 -0.5660 -0.3459  0.1208
 9490TIP3    H152665   0.974   6.098  12.406 -1.1728 -3.6434 -2.3691
 9490TIP3    H252666   0.970   6.035  12.543  0.2327  1.6192  0.3784
 9491TIP3   OH252667   6.855   4.761  12.844 -0.2200  0.2028  0.5408
 9491TIP3    H152668   6.766   4.737  12.818  0.2799 -1.6588  0.3558
 9491TIP3    H252669   6.910   4.729  12.772  0.5902  1.7534  0.4166
 9492TIP3   OH252670   7.367   1.735  11.719  0.0936 -0.1073 -0.0009
 9492TIP3    H152671   7.381   1.641  11.704  0.0938  0.0596 -1.1844
 9492TIP3    H252672   7.296   1.739  11.783 -0.6385 -0.9235 -0.7221
 9493TIP3   OH252673   8.330   6.591  11.869 -0.3403  0.3246 -0.1466
 9493TIP3    H152674   8.408   6.646  11.874 -1.5911  2.1777  0.4573
 9493TIP3    H252675   8.316   6.561  11.959  0.2175 -0.8752 -0.4372
 9494TIP3   OH252676   4.000   1.156  12.657  0.2318  0.0364  0.3946
 9494TIP3    H152677   4.023   1.177  12.567 -0.0324 -0.2046  0.2686
 9494TIP3    H252678   3.905   1.143  12.655  0.0135  1.3651  0.9744
 9495TIP3   OH252679   7.181   0.762  12.580 -0.2267 -0.0078  0.2905
 9495TIP3    H152680   7.123   0.693  12.548 -0.3304  0.8160 -1.3632
 9495TIP3    H252681   7.203   0.814  12.503  0.8476  1.0896  1.2855
 9496TIP3   OH252682   4.505   2.434  12.627 -0.1032  0.4919 -0.3708
 9496TIP3    H152683   4.433   2.498  12.628  0.3876  1.1505  2.0317
 9496TIP3    H252684   4.463   2.350  12.611 -0.7464  1.3447 -3.8689
 9497TIP3   OH252685   7.954   3.631  13.273  0.1486  0.3766  0.0416
 9497TIP3    H152686   7.893   3.644  13.347  0.1222  0.7608 -0.0417
 9497TIP3    H252687   8.040   3.652  13.310  0.4766 -1.7240  0.6003
 9498TIP3   OH252688   3.893   0.224  12.271  0.4729 -0.6232 -0.0187
 9498TIP3    H152689   3.872   0.204  12.180  0.0369  0.0393 -0.0685
 9498TIP3    H252690   3.983   0.256  12.268  0.0576  0.5361 -0.3876
 9499TIP3   OH252691   2.253   3.926  13.642  0.0172 -0.2827  0.1581
 9499TIP3    H152692   2.220   4.010  13.673  0.1122  0.0029 -0.4898
 9499TIP3    H252693   2.288   3.882  13.720 -1.4220 -0.3757  0.7748
 9500TIP3   OH252694   5.430   3.373  12.684 -0.6964  0.2042  0.4101
 9500TIP3    H152695   5.475   3.339  12.606 -1.9219  1.0391 -0.7042
 9500TIP3    H252696   5.361   3.309  12.701  0.2865 -0.5875  1.5502
 9501TIP3   OH252697   4.663   8.398  12.624 -0.5315 -0.2505  0.4298
 9501TIP3    H152698   4.618   8.356  12.697 -0.9951  0.5900  0.6383
 9501TIP3    H252699   4.594   8.414  12.559  0.2589 -3.3453 -1.3745
 9502TIP3   OH252700   5.241   7.902  12.709  0.2789 -0.2589  0.4686
 9502TIP3    H152701   5.223   7.863  12.624 -1.1350  0.2131  0.5230
 9502TIP3    H252702   5.181   7.977  12.714 -0.3832 -0.8576  2.2755
 9503TIP3   OH252703   7.661   5.808  11.701  0.7140 -0.1138  0.0251
 9503TIP3    H152704   7.663   5.900  11.675  4.4754 -0.0300  0.0842
 9503TIP3    H252705   7.697   5.761  11.627  0.5391 -1.3473  0.6944
 9504TIP3   OH252706   7.727   3.015  11.604  0.3728  0.5803  0.2830
 9504TIP3    H152707   7.656   3.024  11.668  0.0418  0.1320 -0.0095
 9504TIP3    H252708   7.703   3.074  11.533 -0.5651 -0.7554 -0.5527
 9505TIP3   OH252709   2.179   4.173  12.132  0.7524 -0.5851 -0.1652
 9505TIP3    H152710   2.182   4.090  12.180 -3.4898 -0.4799  0.6769
 9505TIP3    H252711   2.173   4.148  12.040  0.8262 -1.1676 -0.0128
 9506TIP3   OH252712   4.331   4.956  11.700  0.0023 -0.3067 -0.2392
 9506TIP3    H152713   4.367   4.920  11.619 -1.4686 -2.5690  0.0192
 9506TIP3    H252714   4.372   4.904  11.769  0.6893  1.1114  0.4621
 9507TIP3   OH252715   6.132   5.139  12.031  0.4218 -0.1991  0.6069
 9507TIP3    H152716   6.192   5.178  12.094  1.8927  0.8461 -1.3419
 9507TIP3    H252717   6.146   5.045  12.039  1.8022 -0.0038  0.7026
 9508TIP3   OH252718   5.036   5.341  12.043  0.0782  0.7039  0.2130
 9508TIP3    H152719   5.100   5.347  12.115 -0.6952  1.6143  0.8498
 9508TIP3    H252720   5.022   5.432  12.016  1.2202  0.2987 -1.9117
 9509TIP3   OH252721   2.931   4.295  11.975  0.3832 -0.2823 -0.6610
 9509TIP3    H152722   2.921   4.268  11.884  0.5748 -2.7147 -0.0350
 9509TIP3    H252723   2.943   4.213  12.023  0.4772  0.9412  1.5391
 9510TIP3   OH252724   6.561   2.963  12.548 -0.6197 -0.2407  0.0647
 9510TIP3    H152725   6.530   2.944  12.637  0.0438 -0.3646  0.2759
 9510TIP3    H252726   6.619   3.038  12.559  0.2965 -0.9125 -0.1046
 9511TIP3   OH252727   0.662   2.102  13.576 -0.2550 -0.2499  0.3928
 9511TIP3    H152728   0.740   2.077  13.525  0.3122 -0.9759  1.5531
 9511TIP3    H252729   0.589   2.068  13.525  0.3076 -1.1396  0.1386
 9512TIP3   OH252730   3.186   7.735  11.729  0.1080  0.1473 -0.4874
 9512TIP3    H152731   3.169   7.673  11.658  1.0438 -0.5244 -0.1473
 9512TIP3    H252732   3.262   7.785  11.698 -0.6218  1.1184 -0.7453
 9513TIP3   OH252733   2.069   7.410  12.593 -0.4342  0.2141  0.2379
 9513TIP3    H152734   2.011   7.415  12.517  0.9866  0.0359 -0.8893
 9513TIP3    H252735   2.017   7.446  12.665 -1.9410  0.0395 -0.7235
 9514TIP3   OH252736   8.010   5.859  12.252  0.0963  0.5651  0.3937
 9514TIP3    H152737   8.035   5.797  12.184  0.2348  0.1808  0.7923
 9514TIP3    H252738   7.917   5.841  12.268  0.3536 -0.1667  1.1471
 9515TIP3   OH252739   6.205   7.706  11.871 -0.0864  0.3036 -0.1499
 9515TIP3    H152740   6.189   7.621  11.831 -0.5182 -0.1833  1.0102
 9515TIP3    H252741   6.156   7.704  11.953  0.8681  1.2071  0.4809
 9516TIP3   OH252742   1.377   7.896  11.704  0.5442 -0.6042  0.0348
 9516TIP3    H152743   1.299   7.849  11.735  0.0024  0.0232 -0.3356
 9516TIP3    H252744   1.422   7.834  11.647 -0.1335 -0.6987 -0.4054
 9517TIP3   OH252745   1.251   0.205  12.672  0.6790  0.0425 -0.2264
 9517TIP3    H152746   1.207   0.241  12.595  0.2300 -0.8185 -0.3780
 9517TIP3    H252747   1.301   0.279  12.707  0.5750  0.5485 -1.1117
 9518TIP3   OH252748   7.155   1.268  13.444  0.1438  0.4065 -0.2471
 9518TIP3    H152749   7.188   1.183  13.476  2.0602  1.4603  0.7545
 9518TIP3    H252750   7.068   1.276  13.484  1.1740  0.2340  2.2319
 9519TIP3   OH252751   6.174   6.296  12.155 -0.3285  0.1972 -0.1374
 9519TIP3    H152752   6.258   6.268  12.192 -0.8763  0.4265  1.3721
 9519TIP3    H252753   6.165   6.387  12.183 -1.2473  0.0567  0.0463
 9520TIP3   OH252754   6.268   4.893  11.525 -0.0409 -0.4252 -0.5019
 9520TIP3    H152755   6.357   4.868  11.498  0.0955  1.0058 -1.4682
 9520TIP3    H252756   6.268   4.883  11.620  1.6290  0.9168 -0.3105
 9521TIP3   OH252757   5.004   6.516  13.598  0.0802  0.0290  0.0693
 9521TIP3    H152758   5.012   6.494  13.691 -0.8299 -0.2076  0.1010
 9521TIP3    H252759   4.952   6.444  13.561 -0.4520  0.6475 -0.4067
 9522TIP3   OH252760   8.092   1.520  11.639  0.4155 -0.5584  0.0506
 9522TIP3    H152761   8.092   1.591  11.574  0.9360 -1.0270 -0.4732
 9522TIP3    H252762   8.003   1.520  11.674  0.2978  0.0971 -0.2221
 9523TIP3   OH252763   3.859   4.944  12.029  0.1623  0.4190  0.1733
 9523TIP3    H152764   3.945   4.970  12.063  0.0516  0.7788  0.1807
 9523TIP3    H252765   3.834   5.015  11.970  0.5060 -0.3710 -0.9364
 9524TIP3   OH252766   7.553   3.407  11.886 -0.7907  0.1543  0.0169
 9524TIP3    H152767   7.511   3.473  11.829 -1.3695 -0.6870 -0.5546
 9524TIP3    H252768   7.582   3.339  11.826  0.2582  0.1079  0.5556
 9525TIP3   OH252769   5.729   2.590  11.682  0.3996 -0.5004  0.4189
 9525TIP3    H152770   5.789   2.520  11.707  1.9402  0.6962  0.2402
 9525TIP3    H252771   5.772   2.671  11.711 -0.5080  0.4967 -0.8527
 9526TIP3   OH252772   0.400   5.068  14.166 -0.4358 -0.1512  0.6821
 9526TIP3    H152773   0.398   5.112  14.081  1.3561 -1.7660 -0.2537
 9526TIP3    H252774   0.324   5.010  14.164  0.2603 -1.0730 -0.3680
 9527TIP3   OH252775   5.314   8.363  13.459 -0.7174 -0.2834  0.4886
 9527TIP3    H152776   5.249   8.432  13.441 -2.1589 -0.3657  4.4110
 9527TIP3    H252777   5.373   8.403  13.523  1.1853 -1.3186 -0.5464
 9528TIP3   OH252778   1.464   5.374  12.070  0.0731 -0.2023 -1.2073
 9528TIP3    H152779   1.414   5.415  11.999  0.8523 -0.3326 -1.8388
 9528TIP3    H252780   1.426   5.411  12.150 -1.3788 -0.6676 -1.6326
 9529TIP3   OH252781   5.823   5.319  11.328  0.1762  0.5171 -0.3627
 9529TIP3    H152782   5.786   5.375  11.260  1.5920  2.3897  0.3229
 9529TIP3    H252783   5.910   5.355  11.343  0.4487 -0.7771  1.4052
 9530TIP3   OH252784   1.591   0.615  13.281  0.1671  0.4673  0.4411
 9530TIP3    H152785   1.561   0.569  13.360 -0.6561 -2.2995 -1.3535
 9530TIP3    H252786   1.530   0.688  13.271 -1.2654 -0.5920  1.0445
 9531TIP3   OH252787   4.240   5.760  12.417 -0.4139  0.1294 -0.3127
 9531TIP3    H152788   4.240   5.668  12.445 -1.8839  0.3376  0.4396
 9531TIP3    H252789   4.274   5.808  12.493  1.1157  0.1700 -0.9797
 9532TIP3   OH252790   8.171   6.789  13.567 -0.0840 -0.2415 -0.5683
 9532TIP3    H152791   8.079   6.783  13.593  0.1283  2.3217  1.1412
 9532TIP3    H252792   8.215   6.721  13.618 -0.7344 -0.0321  0.2989
 9533TIP3   OH252793   6.509   7.595  12.991  0.0629 -0.0241 -0.7867
 9533TIP3    H152794   6.429   7.552  13.021  1.2123 -2.0663 -0.4655
 9533TIP3    H252795   6.490   7.619  12.900 -0.2326 -2.5470 -1.4849
 9534TIP3   OH252796   1.887   0.955  12.349  0.4414  0.0055 -0.5105
 9534TIP3    H152797   1.821   0.998  12.403  0.8631  1.3374 -1.0346
 9534TIP3    H252798   1.918   0.882  12.403  0.7907  1.2500  1.0391
 9535TIP3   OH252799   5.370   4.484  13.730  0.1692  0.1485  0.0151
 9535TIP3    H152800   5.369   4.577  13.752 -0.7152  0.0506  0.4219
 9535TIP3    H252801   5.307   4.475  13.659 -0.0398 -0.1941  0.2387
 9536TIP3   OH252802   4.311   8.043  11.907 -0.9656 -0.1537  0.1419
 9536TIP3    H152803   4.278   7.957  11.932  0.1432 -0.7074 -0.2486
 9536TIP3    H252804   4.275   8.103  11.973  1.2515 -1.4427  2.6855
 9537TIP3   OH252805   5.435   1.076  12.490  0.0204 -0.0773 -0.4009
 9537TIP3    H152806   5.525   1.107  12.478 -0.3916  1.6638  0.6076
 9537TIP3    H252807   5.390   1.151  12.529 -1.6362 -1.2536  0.0147
 9538TIP3   OH252808   3.331   2.159  13.156  0.2177 -0.2075 -0.7938
 9538TIP3    H152809   3.315   2.244  13.115 -0.8485  1.0383  1.9347
 9538TIP3    H252810   3.421   2.164  13.189 -0.0138  0.0985 -0.1907
 9539TIP3   OH252811   5.558   2.847  11.965  0.0640 -0.1936 -0.2573
 9539TIP3    H152812   5.649   2.834  11.938  0.3326  0.4423  0.3042
 9539TIP3    H252813   5.512   2.770  11.932  0.9554 -0.9187  0.1497
 9540TIP3   OH252814   1.113   0.241  12.148  0.0409 -0.0435 -0.4376
 9540TIP3    H152815   1.188   0.192  12.113 -0.6100 -1.3015 -0.1198
 9540TIP3    H252816   1.038   0.183  12.134 -1.2275  1.9110 -2.4548
 9541TIP3   OH252817   6.459   5.718  12.686  0.1499 -0.2917  0.0020
 9541TIP3    H152818   6.380   5.769  12.667  0.2545 -0.4919 -1.0197
 9541TIP3    H252819   6.473   5.666  12.608  1.1888 -0.4049  0.2535
 9542TIP3   OH252820   2.337   2.991  13.175 -0.5178  0.6179  0.3623
 9542TIP3    H152821   2.326   2.897  13.190 -0.6673  0.5935  0.1046
 9542TIP3    H252822   2.279   3.033  13.240 -1.0124  0.5181 -0.0088
 9543TIP3   OH252823   4.224   4.751  13.430 -0.6342  0.0444  0.2846
 9543TIP3    H152824   4.186   4.675  13.386 -0.0679  0.9354 -1.8316
 9543TIP3    H252825   4.150   4.796  13.470 -1.2821 -0.3434 -0.4622
 9544TIP3   OH252826   7.494   3.979  11.477  0.4862 -0.0274  0.4925
 9544TIP3    H152827   7.405   3.947  11.462  0.7371  0.1155 -1.5433
 9544TIP3    H252828   7.550   3.903  11.461  0.7938  0.1764  0.5879
 9545TIP3   OH252829   4.564   5.122  13.037  0.5656 -0.2951 -0.1327
 9545TIP3    H152830   4.643   5.125  13.091  0.5889  1.5193 -0.2159
 9545TIP3    H252831   4.578   5.047  12.978  1.3713 -1.1404  1.0939
 9546TIP3   OH252832   4.663   2.804  13.932 -0.6003 -0.8208 -0.1252
 9546TIP3    H152833   4.672   2.842  13.844 -0.4118  1.1697  0.7086
 9546TIP3    H252834   4.599   2.734  13.921  1.0190 -2.0978 -2.2644
 9547TIP3   OH252835   6.126   4.368  11.463 -0.0631  0.0434  0.4308
 9547TIP3    H152836   6.158   4.393  11.376  2.3280 -2.1358  0.5543
 9547TIP3    H252837   6.127   4.449  11.513  1.7197  0.8011 -0.7055
 9548TIP3   OH252838   3.495   6.522  12.526  0.1724 -0.1654 -0.0525
 9548TIP3    H152839   3.495   6.598  12.583  2.0370  0.1303 -0.3886
 9548TIP3    H252840   3.502   6.447  12.585  1.2387  0.0952  0.1673
 9549TIP3   OH252841   2.530   3.426  12.229  0.5456 -0.6970 -0.6412
 9549TIP3    H152842   2.588   3.487  12.275  0.9925 -2.6125  1.4815
 9549TIP3    H252843   2.588   3.372  12.176  0.5837 -1.6419  0.3331
 9550TIP3   OH252844   3.166   3.153  14.174  0.7248 -0.4092  0.0019
 9550TIP3    H152845   3.207   3.237  14.198  0.1335 -0.5660  1.7490
 9550TIP3    H252846   3.096   3.177  14.113  0.3348  0.4318  0.7548
 9551TIP3   OH252847   2.201   7.792  12.553 -0.0800  0.3543 -0.2641
 9551TIP3    H152848   2.219   7.882  12.581 -0.0986  0.2392  0.1266
 9551TIP3    H252849   2.282   7.765  12.508  1.1195 -0.4349  2.1972
 9552TIP3   OH252850   0.389   3.167  12.173  0.5041  0.1170 -0.8641
 9552TIP3    H152851   0.467   3.222  12.178  1.5388 -1.2820 -1.2042
 9552TIP3    H252852   0.388   3.119  12.255 -1.1971  1.6404  0.0611
 9553TIP3   OH252853   0.433   2.677  13.279 -0.3063 -0.0788 -0.5890
 9553TIP3    H152854   0.383   2.758  13.289 -0.1783 -0.1427  0.6956
 9553TIP3    H252855   0.422   2.654  13.187 -3.7452 -0.7882 -0.1180
 9554TIP3   OH252856   3.203   0.578  11.975 -0.3984 -0.0391  0.2057
 9554TIP3    H152857   3.143   0.610  11.908 -1.4142  0.3399  1.2700
 9554TIP3    H252858   3.249   0.656  12.006 -0.0959 -0.1771  0.1086
 9555TIP3   OH252859   0.500   5.210  13.314  0.0830  0.0917  0.0434
 9555TIP3    H152860   0.444   5.151  13.264 -1.8352  1.4720  0.4376
 9555TIP3    H252861   0.518   5.282  13.254  2.4550 -0.8269 -0.4544
 9556TIP3   OH252862   3.446   0.413  11.566 -0.0094 -0.3680  0.3719
 9556TIP3    H152863   3.451   0.317  11.567 -0.1287 -0.3822  1.2577
 9556TIP3    H252864   3.534   0.442  11.589 -0.2894 -0.3132  1.4769
 9557TIP3   OH252865   1.857   3.891  13.266  0.3440  0.2615  0.1563
 9557TIP3    H152866   1.952   3.904  13.263  0.2853  0.5962 -2.0929
 9557TIP3    H252867   1.824   3.971  13.307  0.9278  1.0018 -0.7810
 9558TIP3   OH252868   6.039   2.631  13.563  0.2151  0.1434 -0.3918
 9558TIP3    H152869   5.952   2.661  13.536  0.5445 -0.1467 -1.8705
 9558TIP3    H252870   6.022   2.564  13.630 -0.6818  0.3545 -0.3954
 9559TIP3   OH252871   7.288   2.718  11.498 -0.3371  0.4359 -0.0950
 9559TIP3    H152872   7.328   2.684  11.418 -1.0258 -0.5492 -0.0295
 9559TIP3    H252873   7.197   2.736  11.474 -0.2187  1.3839  0.1260
 9560TIP3   OH252874   3.661   5.024  13.489 -0.0606  0.5427  0.4111
 9560TIP3    H152875   3.711   4.961  13.438 -0.3274  1.3613 -0.9256
 9560TIP3    H252876   3.719   5.048  13.561 -0.1779 -1.6341  1.3098
 9561TIP3   OH252877   4.737   6.612  12.665 -0.2726  0.2332  0.2434
 9561TIP3    H152878   4.751   6.522  12.695 -2.5500  0.1747  1.2991
 9561TIP3    H252879   4.772   6.666  12.736 -1.2733  0.1404  0.8159
 9562TIP3   OH252880   3.313   8.204  12.328 -0.1861  0.0312 -0.0478
 9562TIP3    H152881   3.292   8.247  12.411  0.0888  0.4301 -0.1786
 9562TIP3    H252882   3.392   8.249  12.298 -0.8754  0.6088 -1.0371
 9563TIP3   OH252883   0.992   7.045  12.431 -0.0546 -0.5358 -0.2056
 9563TIP3    H152884   0.924   7.079  12.373 -1.1200  0.0162  1.3223
 9563TIP3    H252885   1.071   7.093  12.406  0.6404 -3.2403 -4.0345
 9564TIP3   OH252886   4.670   0.833  13.096  0.0208 -0.0881 -0.0083
 9564TIP3    H152887   4.590   0.882  13.077 -1.3286 -1.6108  1.4030
 9564TIP3    H252888   4.718   0.888  13.158 -1.0577 -0.1441  0.9026
 9565TIP3   OH252889   2.024   0.477  12.755 -0.0704 -0.3052 -0.2954
 9565TIP3    H152890   2.058   0.559  12.789 -1.3871 -0.3849  1.3283
 9565TIP3    H252891   1.934   0.473  12.786  0.6644 -3.5269  1.9587
 9566TIP3   OH252892   3.337   0.700  12.327 -0.0549 -0.2999  0.3093
 9566TIP3    H152893   3.376   0.745  12.402 -0.1425 -1.6362  1.1830
 9566TIP3    H252894   3.403   0.635  12.301  0.3885  0.7749 -1.4036
 9567TIP3   OH252895   6.028   0.900  12.846  0.1795  0.0279  0.6419
 9567TIP3    H152896   6.086   0.854  12.907  0.0612  0.7096  1.2964
 9567TIP3    H252897   5.947   0.851  12.848  0.2131 -0.0175  0.9638
 9568TIP3   OH252898   7.437   4.305  12.005  0.5798  0.1277 -0.4709
 9568TIP3    H152899   7.345   4.287  11.987  0.2336  0.2692  1.0007
 9568TIP3    H252900   7.463   4.368  11.937 -0.5262  0.3902 -0.6675
 9569TIP3   OH252901   3.833   0.450  12.979 -0.4927 -0.0586  0.0992
 9569TIP3    H152902   3.870   0.481  13.061 -0.9155 -0.7875  0.5694
 9569TIP3    H252903   3.858   0.358  12.974  0.7266  0.3032 -1.2783
 9570TIP3   OH252904   7.833   5.702  11.991  1.1877  0.0555  0.0072
 9570TIP3    H152905   7.746   5.733  12.017  1.6628  0.4426  1.1899
 9570TIP3    H252906   7.816   5.634  11.926  0.0659  2.9698 -3.0377
 9571TIP3   OH252907   5.703   3.552  12.066  0.1753 -0.3420 -0.5303
 9571TIP3    H152908   5.642   3.490  12.025 -0.5216  0.4561 -0.7385
 9571TIP3    H252909   5.790   3.522  12.039 -0.1493 -1.1565 -0.7155
 9572TIP3   OH252910   8.030   0.715  11.348  0.5187  0.1381  0.1069
 9572TIP3    H152911   7.978   0.795  11.358 -0.8056 -0.4481 -1.6926
 9572TIP3    H252912   8.102   0.741  11.291 -0.1590 -0.0324 -0.8463
 9573TIP3   OH252913   7.214   2.370  12.645 -0.9745  0.1553  0.0931
 9573TIP3    H152914   7.213   2.351  12.551  0.3550 -1.4648  0.3668
 9573TIP3    H252915   7.182   2.460  12.651 -0.7671  0.4152 -1.9290
 9574TIP3   OH252916   5.834   6.556  12.215 -0.5292  0.2264 -0.5452
 9574TIP3    H152917   5.789   6.489  12.163 -1.5417  0.8547 -0.5076
 9574TIP3    H252918   5.927   6.546  12.192 -0.6122 -1.3879 -0.3031
 9575TIP3   OH252919   7.554   1.949  11.809  0.2568  0.2536  0.3025
 9575TIP3    H152920   7.509   1.865  11.803  1.0021 -0.1092 -0.5088
 9575TIP3    H252921   7.537   1.979  11.898 -0.1856 -0.6604  0.5400
 9576TIP3   OH252922   6.247   8.423  11.820  0.1775  0.6987 -0.3940
 9576TIP3    H152923   6.338   8.449  11.810  0.2338 -0.1890 -2.8361
 9576TIP3    H252924   6.220   8.394  11.733 -1.8652 -0.9080  0.6735
 9577TIP3   OH252925   3.278   4.283  12.571  0.5130 -0.0939  0.1463
 9577TIP3    H152926   3.221   4.312  12.642  1.2204 -1.7966  1.4730
 9577TIP3    H252927   3.268   4.187  12.570  0.5546 -0.1283 -2.0414
 9578TIP3   OH252928   3.131   0.824  13.676  0.4258 -0.1120  0.5823
 9578TIP3    H152929   3.164   0.739  13.705 -0.9028 -0.3456  1.5308
 9578TIP3    H252930   3.128   0.877  13.755  0.5584  0.5834  0.1304
 9579TIP3   OH252931   3.235   3.854  12.026 -0.9190 -0.1634 -0.1151
 9579TIP3    H152932   3.189   3.773  12.051 -0.6970 -0.1520  0.3413
 9579TIP3    H252933   3.327   3.833  12.037 -0.7567 -0.4273 -1.7430
 9580TIP3   OH252934   5.459   5.826  13.368  0.0040 -0.1462  0.0784
 9580TIP3    H152935   5.427   5.818  13.278  0.3198  1.2419 -0.1739
 9580TIP3    H252936   5.552   5.847  13.358  0.3858 -1.3496  0.7677
 9581TIP3   OH252937   1.911   4.689  12.390 -0.1711  0.0746 -0.4885
 9581TIP3    H152938   1.868   4.615  12.347 -0.0681 -0.9238  1.0608
 9581TIP3    H252939   1.858   4.765  12.367 -1.5539 -0.8187 -0.3296
 9582TIP3   OH252940   3.559   4.109  13.199 -0.1451 -0.3802 -0.2966
 9582TIP3    H152941   3.593   4.184  13.247 -0.7249  0.8869 -1.8192
 9582TIP3    H252942   3.631   4.045  13.202  0.2042  0.0237  1.3467
 9583TIP3   OH252943   0.815   0.228  11.450  0.1067  0.4772  0.2094
 9583TIP3    H152944   0.814   0.242  11.545  0.2797 -0.0856  0.2960
 9583TIP3    H252945   0.898   0.183  11.433  1.0558  2.3746 -0.4832
 9584TIP3   OH252946   6.391   3.578  11.973 -0.0345 -0.3430 -0.4482
 9584TIP3    H152947   6.456   3.552  12.038 -0.0825  1.5317  0.4162
 9584TIP3    H252948   6.316   3.608  12.025  0.0123  1.4157 -1.3203
 9585TIP3   OH252949   3.978   6.467  13.496  0.0923 -0.2671  0.0877
 9585TIP3    H152950   4.011   6.552  13.465 -0.5893  0.0955  0.3490
 9585TIP3    H252951   3.887   6.465  13.466  0.6751 -1.8281 -1.8040
 9586TIP3   OH252952   6.214   4.908  11.801  0.1766  0.0916  0.0278
 9586TIP3    H152953   6.131   4.885  11.760 -0.4043  0.0012  1.2220
 9586TIP3    H252954   6.195   4.989  11.848  0.9890  0.5173 -0.3563
 9587TIP3   OH252955   4.180   5.911  13.686  0.2953  0.6385  0.3101
 9587TIP3    H152956   4.108   5.863  13.645  2.0432 -2.3306  0.3935
 9587TIP3    H252957   4.218   5.849  13.748  3.5268  1.6525 -0.4593
 9588TIP3   OH252958   2.937   7.796  12.524 -0.0392  0.2514  0.2734
 9588TIP3    H152959   2.851   7.759  12.502 -0.1315  1.1522 -1.0120
 9588TIP3    H252960   2.921   7.890  12.532  1.0419  0.6093 -1.3170
 9589TIP3   OH252961   3.668   2.084  11.605 -0.3153 -0.5154  0.1158
 9589TIP3    H152962   3.748   2.040  11.575  0.0294 -0.2158  0.5756
 9589TIP3    H252963   3.690   2.177  11.604 -0.6333 -0.4352  0.3183
 9590TIP3   OH252964   0.144   4.148  13.642 -0.4884 -0.3666  0.5473
 9590TIP3    H152965   0.199   4.188  13.575  1.6067 -0.7777  1.9505
 9590TIP3    H252966   0.122   4.062  13.607 -1.7418  0.4414 -0.7677
 9591TIP3   OH252967   3.697   7.495  11.705  0.3725 -0.1475  0.2302
 9591TIP3    H152968   3.713   7.480  11.798  0.9926 -0.6632  0.0503
 9591TIP3    H252969   3.602   7.496  11.696  0.2588 -2.9571  0.4480
 9592TIP3   OH252970   5.519   6.075  12.659  0.7445 -0.5935 -0.0828
 9592TIP3    H152971   5.578   6.016  12.613 -0.7984 -1.3709 -1.1613
 9592TIP3    H252972   5.500   6.144  12.595 -0.3097 -0.9251 -0.1540
 9593TIP3   OH252973   5.993   0.721  13.481 -0.1958  0.1655 -0.5401
 9593TIP3    H152974   6.076   0.676  13.467 -0.3416 -0.4468  0.4488
 9593TIP3    H252975   6.018   0.811  13.503  0.2023 -0.0032 -0.2973
 9594TIP3   OH252976   0.980   0.943  12.385 -0.4372  0.8077  0.3268
 9594TIP3    H152977   1.048   0.886  12.350 -0.3212  0.2253  1.4815
 9594TIP3    H252978   0.920   0.885  12.431 -2.1923  1.2046 -1.3411
 9595TIP3   OH252979   8.307   5.774  12.761 -0.6121  0.5295  0.6366
 9595TIP3    H152980   8.319   5.746  12.671  0.0891 -0.9420  1.1469
 9595TIP3    H252981   8.361   5.853  12.770  0.9715 -0.4686  0.2849
 9596TIP3   OH252982   8.396   0.713  12.944  0.3579 -0.0059  0.3846
 9596TIP3    H152983   8.331   0.777  12.970  0.3088  0.0794  0.0525
 9596TIP3    H252984   8.345   0.642  12.903  0.4652  0.0345  0.1784
 9597TIP3   OH252985   2.788   5.629  12.064 -0.2366  0.3218 -0.0075
 9597TIP3    H152986   2.754   5.696  12.004 -2.3793 -0.7651 -0.1086
 9597TIP3    H252987   2.858   5.673  12.111  1.1754  1.4233 -2.8603
 9598TIP3   OH252988   4.024   8.175  12.105 -0.0605  0.0175  0.7484
 9598TIP3    H152989   3.937   8.214  12.109 -0.8569 -1.4468 -0.9700
 9598TIP3    H252990   4.056   8.176  12.195 -2.0275  0.2183  1.4732
 9599TIP3   OH252991   1.658   6.887  13.339 -0.5242 -0.0971  0.0184
 9599TIP3    H152992   1.741   6.860  13.300  1.6440  1.3844  3.1528
 9599TIP3    H252993   1.682   6.956  13.401 -3.7491 -1.2085  2.8172
 9600TIP3   OH252994   3.038   2.683  13.692  0.3329 -0.2295  0.6036
 9600TIP3    H152995   3.118   2.655  13.648  0.6432  1.8184 -0.2527
 9600TIP3    H252996   3.067   2.710  13.779 -0.1466 -3.4238  1.8986
 9601TIP3   OH252997   3.944   3.986  13.392 -0.0030  0.3005  0.2766
 9601TIP3    H152998   3.873   3.984  13.328  0.2442  1.2947 -0.0460
 9601TIP3    H252999   3.920   3.919  13.456 -0.1142 -0.9071 -0.9900
 9602TIP3   OH253000   0.263   5.792  11.880  0.1259 -0.4979 -0.2684
 9602TIP3    H153001   0.331   5.730  11.905  0.3516 -0.6116 -1.1023
 9602TIP3    H253002   0.201   5.741  11.828 -0.3898 -0.3105  0.1591
 9603TIP3   OH253003   0.633   4.036  12.611  0.3528  0.3166 -0.2102
 9603TIP3    H153004   0.550   4.039  12.562  0.7615  0.8431 -0.8992
 9603TIP3    H253005   0.637   4.121  12.654  1.1307  0.8156 -1.2210
 9604TIP3   OH253006   7.045   5.365  12.668 -0.1563  0.1793 -0.6631
 9604TIP3    H153007   7.135   5.365  12.701  0.9557 -0.0245 -3.3799
 9604TIP3    H253008   7.045   5.296  12.602 -2.9918 -1.3579  0.7813
 9605TIP3   OH253009   2.999   0.186  12.063 -0.2318 -0.0331  0.2446
 9605TIP3    H153010   2.999   0.237  11.982  2.7181 -0.0217  0.1441
 9605TIP3    H253011   2.981   0.096  12.035  0.2701  0.0517 -0.3818
 9606TIP3   OH253012   3.557   5.063  12.164  0.2574 -0.0436  0.5650
 9606TIP3    H153013   3.542   4.998  12.096  0.9918 -1.5682  1.8067
 9606TIP3    H253014   3.526   5.022  12.245 -0.0772  1.4990  1.2628
 9607TIP3   OH253015   1.017   0.700  12.625 -0.6121 -0.1331  0.4041
 9607TIP3    H153016   0.931   0.659  12.631 -0.6970 -0.2792 -1.4805
 9607TIP3    H253017   1.047   0.682  12.536 -0.2182  3.0756 -0.2331
 9608TIP3   OH253018   4.401   6.888  12.575  0.0075  0.0471  0.0805
 9608TIP3    H153019   4.414   6.975  12.539  0.9187 -0.1417 -0.0850
 9608TIP3    H253020   4.402   6.830  12.499 -1.1772 -0.0678  0.1286
 9609TIP3   OH253021   7.730   8.073  12.753  0.2248 -0.5135  0.0658
 9609TIP3    H153022   7.780   8.129  12.694  1.4284 -0.7066  0.8622
 9609TIP3    H253023   7.751   8.105  12.841 -0.5782 -0.9945  0.4532
 9610TIP3   OH253024   4.150   3.393  12.050  0.1401 -0.4317  0.5220
 9610TIP3    H153025   4.086   3.420  12.116  0.6266 -0.9167  1.1974
 9610TIP3    H253026   4.145   3.462  11.983  0.0126  0.3398  1.3067
 9611TIP3   OH253027   7.436   1.506  13.158  0.0772 -0.4299 -0.3994
 9611TIP3    H153028   7.373   1.576  13.178 -1.1391 -1.9683  1.5821
 9611TIP3    H253029   7.519   1.551  13.146 -0.1998  1.2867  2.9681
 9612TIP3   OH253030   7.742   0.562  12.567 -0.3003 -0.3774 -0.3040
 9612TIP3    H153031   7.819   0.514  12.536 -0.4774 -1.6248  1.0562
 9612TIP3    H253032   7.771   0.653  12.573  0.3243 -0.4124 -2.0842
 9613TIP3   OH253033   5.230   5.217  13.910 -0.1948  0.7344  0.1961
 9613TIP3    H153034   5.235   5.154  13.981 -0.6170 -0.6770 -0.9695
 9613TIP3    H253035   5.321   5.231  13.883 -0.1758 -0.8242 -0.7034
 9614TIP3   OH253036   0.659   5.000  12.714 -0.0764 -0.2711 -0.1651
 9614TIP3    H153037   0.645   5.089  12.746 -1.2914 -0.0631 -1.1793
 9614TIP3    H253038   0.572   4.972  12.684  0.7598 -0.8453 -2.2221
 9615TIP3   OH253039   5.320   2.457  12.643 -0.3515  0.1647 -0.1471
 9615TIP3    H153040   5.315   2.365  12.670 -0.8088  0.1556 -0.2553
 9615TIP3    H253041   5.361   2.501  12.718 -1.2861  0.0810  0.4292
 9616TIP3   OH253042   3.543   1.795  11.276 -0.0743  0.5499 -0.0435
 9616TIP3    H153043   3.520   1.844  11.354 -0.7854  1.3879 -0.7530
 9616TIP3    H253044   3.553   1.861  11.207  0.7942 -0.1425 -0.6065
 9617TIP3   OH253045   8.038   5.773  11.820 -0.6799  0.3520 -0.2882
 9617TIP3    H153046   8.043   5.860  11.781 -2.0334  0.7446  0.3353
 9617TIP3    H253047   7.964   5.778  11.881 -1.0752 -1.3595 -0.5512
 9618TIP3   OH253048   4.245   7.458  12.787  0.3536 -0.4724  0.5625
 9618TIP3    H153049   4.271   7.369  12.813  1.2466 -0.8207 -1.3027
 9618TIP3    H253050   4.190   7.489  12.859  0.8413 -2.1498  1.7341
 9619TIP3   OH253051   0.845   0.685  12.159  0.2163 -0.1759 -0.1639
 9619TIP3    H153052   0.787   0.611  12.140 -0.1485 -0.1175  0.6959
 9619TIP3    H253053   0.931   0.645  12.175 -0.0578 -0.4470  0.6411
 9620TIP3   OH253054   8.195   2.702  11.861  0.3549  0.2669  0.2587
 9620TIP3    H153055   8.189   2.732  11.771 -2.0972 -1.6843 -0.3511
 9620TIP3    H253056   8.185   2.782  11.914 -3.3856  1.0115 -1.2492
 9621TIP3   OH253057   3.403   0.963  12.474 -0.0467 -0.2297  0.4326
 9621TIP3    H153058   3.479   0.946  12.530  0.0129  0.2538  0.4957
 9621TIP3    H253059   3.376   1.052  12.495 -0.7699 -0.4749  0.5713
 9622TIP3   OH253060   1.550   4.721  12.676 -0.3460  0.3026  0.3411
 9622TIP3    H153061   1.526   4.659  12.607 -1.6014  0.4811  0.5889
 9622TIP3    H253062   1.498   4.694  12.751 -0.3147  1.1838  0.6880
 9623TIP3   OH253063   5.467   4.146  11.587 -0.1289 -0.1608 -0.7544
 9623TIP3    H153064   5.449   4.235  11.557  0.8498 -0.3597 -1.9941
 9623TIP3    H253065   5.502   4.158  11.676  0.4443  0.7356 -1.0846
 9624TIP3   OH253066   3.106   7.091  12.455  0.3032  0.0890 -0.4823
 9624TIP3    H153067   3.119   7.136  12.539 -0.8213  1.0244 -0.7823
 9624TIP3    H253068   3.114   6.998  12.477  0.6919  0.3410  0.5290
 9625TIP3   OH253069   1.490   4.103  11.814 -0.3787  0.1787 -0.1384
 9625TIP3    H153070   1.524   4.062  11.894 -0.0697 -0.1134 -0.4186
 9625TIP3    H253071   1.525   4.193  11.818 -0.5803  0.2460  0.1842
 9626TIP3   OH253072   2.476   0.121  13.118  0.4700  0.2084 -0.2470
 9626TIP3    H153073   2.562   0.135  13.159 -0.1759  0.5247  1.0493
 9626TIP3    H253074   2.414   0.162  13.178 -0.5510  0.4540 -1.4360
 9627TIP3   OH253075   6.315   7.865  13.798 -0.4752  0.0034 -0.0277
 9627TIP3    H153076   6.263   7.944  13.784 -0.6230 -0.1690 -0.4768
 9627TIP3    H253077   6.371   7.885  13.873  2.4147  2.0275 -2.4761
 9628TIP3   OH253078   0.488   3.583  12.518  0.4519 -0.0726  0.4901
 9628TIP3    H153079   0.480   3.645  12.446  0.1064  2.2973  2.4683
 9628TIP3    H253080   0.570   3.536  12.500 -0.0060 -0.0984 -1.7930
 9629TIP3   OH253081   8.310   5.969  13.712 -0.2510 -0.4866  0.2202
 9629TIP3    H153082   8.369   5.896  13.693  1.6554  1.2393 -0.8437
 9629TIP3    H253083   8.339   6.002  13.797  0.1933  0.2259 -0.2015
 9630TIP3   OH253084   1.248   7.297  11.972  0.0177 -0.3896  0.1028
 9630TIP3    H153085   1.292   7.310  12.056  0.3715 -0.2059 -0.1070
 9630TIP3    H253086   1.156   7.318  11.989 -0.0249 -0.9540  0.5891
 9631TIP3   OH253087   6.737   0.029  13.176  0.3462 -0.3568 -0.0626
 9631TIP3    H153088   6.714   0.122  13.181 -3.0069 -0.9964 -0.8515
 9631TIP3    H253089   6.831   0.028  13.159  0.7628  2.8223  1.4034
 9632TIP3   OH253090   2.329   1.011  13.594 -0.2484  0.3300 -0.2710
 9632TIP3    H153091   2.356   1.067  13.667  0.5268 -0.9122  0.4253
 9632TIP3    H253092   2.392   1.031  13.525 -0.6140  1.0724 -0.3938
 9633TIP3   OH253093   5.360   3.973  13.095  0.2052 -0.2481 -0.0724
 9633TIP3    H153094   5.416   4.037  13.052 -0.0056  0.6771  0.9703
 9633TIP3    H253095   5.294   4.026  13.140  0.3299 -1.1756  1.2435
 9634TIP3   OH253096   0.118   1.613  12.267 -0.5622 -0.5692  0.7474
 9634TIP3    H153097   0.150   1.701  12.285 -0.0763 -1.0450  2.3576
 9634TIP3    H253098   0.194   1.556  12.281 -1.4161 -1.4532  2.0263
 9635TIP3   OH253099   6.386   2.845  12.342  0.3434  0.4626 -0.0810
 9635TIP3    H153100   6.430   2.909  12.399  0.8565  1.8916 -1.9863
 9635TIP3    H253101   6.293   2.862  12.353  0.1614 -1.7643  3.0554
 9636TIP3   OH253102   6.804   1.070  13.885  0.0908 -0.0513 -0.0796
 9636TIP3    H153103   6.799   1.165  13.888  0.3517 -0.0667  1.3194
 9636TIP3    H253104   6.716   1.042  13.859 -0.4927  0.5166  1.2022
 9637TIP3   OH253105   0.746   3.101  12.482  0.1153  0.1686  0.4554
 9637TIP3    H153106   0.842   3.102  12.490  0.1270 -0.9264  0.6870
 9637TIP3    H253107   0.717   3.181  12.525  0.8120 -0.5790  2.4288
 9638TIP3   OH253108   2.349   0.290  11.634  0.1011  0.4279  0.2699
 9638TIP3    H153109   2.314   0.341  11.707 -0.8285  0.3411 -0.0996
 9638TIP3    H253110   2.326   0.340  11.556  1.0341  0.4882  0.0157
 9639TIP3   OH253111   2.789   4.819  11.970  0.2068  0.6158  0.0619
 9639TIP3    H153112   2.820   4.785  12.053  1.2802  0.4042 -0.4066
 9639TIP3    H253113   2.694   4.808  11.973  0.4095 -1.5738  0.3100
 9640TIP3   OH253114   6.013   5.383  12.686 -0.1979 -0.0853  0.3060
 9640TIP3    H153115   6.085   5.339  12.731 -0.2668 -0.1099  0.3917
 9640TIP3    H253116   5.990   5.324  12.614 -0.1555 -0.0947  0.3008
 9641TIP3   OH253117   7.713   5.317  11.573  0.0140  0.6779  0.0550
 9641TIP3    H153118   7.747   5.229  11.565 -2.6713 -0.4624 -0.0385
 9641TIP3    H253119   7.688   5.342  11.484 -0.0250  1.1923  0.2034
 9642TIP3   OH253120   3.129   0.620  12.822  0.4680  0.0316  0.1007
 9642TIP3    H153121   3.165   0.684  12.884  1.1206 -1.3024  1.1621
 9642TIP3    H253122   3.035   0.624  12.836  0.2129  2.6495 -1.7856
 9643TIP3   OH253123   4.620   8.275  13.108  0.7152 -0.7052  0.1912
 9643TIP3    H153124   4.598   8.357  13.064 -3.3904 -1.2452  0.8918
 9643TIP3    H253125   4.669   8.303  13.186 -1.1338  1.2185  0.7582
 9644TIP3   OH253126   5.196   1.928  12.264 -0.6873 -0.3688 -0.0709
 9644TIP3    H153127   5.229   1.922  12.353  0.9546  1.5913 -0.4834
 9644TIP3    H253128   5.107   1.892  12.269  0.2673 -2.7398  1.7761
 9645TIP3   OH253129   4.190   1.677  13.106  0.1172  0.0938 -0.6602
 9645TIP3    H153130   4.130   1.603  13.096  0.2214 -0.4460  1.9260
 9645TIP3    H253131   4.137   1.754  13.083 -1.3484 -0.4551  0.6901
 9646TIP3   OH253132   2.119   1.190  11.797  0.0960  0.1367 -0.3938
 9646TIP3    H153133   2.152   1.102  11.812 -0.0370  0.4081  1.7497
 9646TIP3    H253134   2.025   1.184  11.810  0.0760  0.5889 -0.2974
 9647TIP3   OH253135   3.534   4.866  12.348  0.5895 -0.6415 -0.1339
 9647TIP3    H153136   3.487   4.832  12.424  1.0945  0.4532  0.7019
 9647TIP3    H253137   3.511   4.807  12.277 -2.2694 -0.0336  0.1390
 9648TIP3   OH253138   2.290   8.301  12.890 -0.1295  0.1858  0.5470
 9648TIP3    H153139   2.279   8.207  12.878 -0.1347  0.3532 -0.8931
 9648TIP3    H253140   2.255   8.318  12.977 -0.8901 -1.0176  0.4934
 9649TIP3   OH253141   7.839   4.531  13.150  0.1743 -0.1150  0.0160
 9649TIP3    H153142   7.853   4.467  13.080  0.0368  1.0155 -1.0798
 9649TIP3    H253143   7.748   4.518  13.176 -1.6258  2.9203 -3.7686
 9650TIP3   OH253144   2.525   2.153  13.130 -0.2155 -0.3041  0.0087
 9650TIP3    H153145   2.571   2.139  13.213 -0.5906  1.0024  0.4694
 9650TIP3    H253146   2.523   2.249  13.120 -0.3139 -0.4306 -1.4378
 9651TIP3   OH253147   2.484   0.572  11.548  0.0456 -0.9386 -0.1932
 9651TIP3    H153148   2.538   0.500  11.580  1.3169  0.5256  1.1035
 9651TIP3    H253149   2.546   0.640  11.523 -1.1522  0.4542  0.4505
 9652TIP3   OH253150   0.091   5.625  11.737  0.0905 -0.0575 -0.5854
 9652TIP3    H153151  -0.004   5.628  11.741  0.0328 -0.6680 -1.2648
 9652TIP3    H253152   0.114   5.534  11.758  0.6957  0.6178  2.0784
 9653TIP3   OH253153   7.852   7.320  14.021  0.2111 -0.6906  0.1640
 9653TIP3    H153154   7.813   7.288  14.102 -0.1375 -1.3659 -0.2652
 9653TIP3    H253155   7.915   7.253  13.997  2.2811  0.7399  1.2690
 9654TIP3   OH253156   6.151   4.393  12.052 -0.2461 -0.0794 -0.2925
 9654TIP3    H153157   6.209   4.382  11.977 -0.0932  2.3283 -0.5883
 9654TIP3    H253158   6.122   4.304  12.073  2.3798 -1.1856 -1.0346
 9655TIP3   OH253159   3.698   3.025  12.382 -0.6064  0.0699  0.1500
 9655TIP3    H153160   3.645   2.986  12.452 -0.8601 -0.7705 -0.4948
 9655TIP3    H253161   3.636   3.044  12.312 -0.1170 -0.6706 -0.5096
 9656TIP3   OH253162   0.857   1.074  11.892  0.3438  0.2195 -0.1038
 9656TIP3    H153163   0.865   0.980  11.874 -0.6771  0.3986 -1.6661
 9656TIP3    H253164   0.911   1.088  11.970  1.6982 -1.4058 -0.6897
 9657TIP3   OH253165   6.834   5.091  12.355  0.0736  0.4972  0.0914
 9657TIP3    H153166   6.862   5.004  12.326  0.5241  0.5738  0.2786
 9657TIP3    H253167   6.739   5.092  12.344  0.0048 -0.2010  0.5809
 9658TIP3   OH253168   5.382   1.796  12.786 -0.4276  0.1720 -0.6640
 9658TIP3    H153169   5.462   1.743  12.788 -1.2904 -1.1685  1.4464
 9658TIP3    H253170   5.394   1.855  12.711  2.6155  0.1837 -0.2790
 9659TIP3   OH253171   1.743   4.770  13.531 -0.1008  0.0301  0.0418
 9659TIP3    H153172   1.665   4.719  13.507  0.0865 -0.3151  0.1583
 9659TIP3    H253173   1.713   4.829  13.601  0.2458 -1.6461  1.6809
 9660TIP3   OH253174   7.751   1.813  13.592  0.8942 -0.1607  0.5311
 9660TIP3    H153175   7.658   1.794  13.585  1.0561 -0.3958 -1.3109
 9660TIP3    H253176   7.759   1.906  13.573  0.9455  0.1029  1.7568
 9661TIP3   OH253177   3.020   2.211  12.920  0.0063 -0.4662 -0.1405
 9661TIP3    H153178   3.083   2.139  12.920 -0.1575 -0.6123  0.1305
 9661TIP3    H253179   3.073   2.290  12.932  0.1381 -0.5900  0.1072
 9662TIP3   OH253180   2.405   3.929  13.004  0.3392 -0.6452  0.7879
 9662TIP3    H153181   2.313   3.919  13.030 -0.6581  0.6153 -1.9055
 9662TIP3    H253182   2.416   3.869  12.931  0.8940  0.9703 -0.5190
 9663TIP3   OH253183   6.698   4.648  13.956 -0.0747 -0.7636  0.0977
 9663TIP3    H153184   6.770   4.710  13.969  0.9399 -2.0848  1.0588
 9663TIP3    H253185   6.713   4.612  13.869 -0.5661  0.1937 -0.3922
 9664TIP3   OH253186   4.990   0.580  11.533  0.2348  0.7787 -0.4303
 9664TIP3    H153187   5.025   0.664  11.505  0.7518  1.2470  1.4361
 9664TIP3    H253188   4.967   0.594  11.625 -1.8048 -0.4750 -0.6804
 9665TIP3   OH253189   4.365   3.602  11.909 -0.3960 -0.2733  0.1371
 9665TIP3    H153190   4.430   3.593  11.980  0.8617  0.2662 -0.9008
 9665TIP3    H253191   4.382   3.689  11.873 -1.7343 -0.1162 -0.1573
 9666TIP3   OH253192   6.422   0.682  11.906  0.5384  0.3366  0.5520
 9666TIP3    H153193   6.395   0.664  11.996  0.9774 -0.4234  0.5481
 9666TIP3    H253194   6.373   0.619  11.853  1.9893 -0.8383  0.5175
 9667TIP3   OH253195   3.873   0.612  11.738 -0.8767  0.6329  0.3945
 9667TIP3    H153196   3.890   0.696  11.696 -1.3988  0.3390 -0.4452
 9667TIP3    H253197   3.959   0.580  11.765 -0.3876  0.4320 -1.2794
 9668TIP3   OH253198   6.405   6.804  12.577 -0.1823  0.6140 -0.9097
 9668TIP3    H153199   6.346   6.729  12.571  0.0520  0.4704 -1.4225
 9668TIP3    H253200   6.350   6.875  12.612 -0.1447 -0.0725  0.6413
 9669TIP3   OH253201   3.593   3.781  12.592 -0.1256  0.2407  0.1252
 9669TIP3    H153202   3.622   3.791  12.501  1.0461  1.8477  0.6232
 9669TIP3    H253203   3.590   3.871  12.625 -0.3348 -0.3360  1.7428
 9670TIP3   OH253204   3.524   4.688  12.585  0.4888 -0.4820  0.2457
 9670TIP3    H153205   3.439   4.724  12.611 -0.5721 -1.2429 -1.9332
 9670TIP3    H253206   3.522   4.598  12.618  0.4916 -0.4722  0.2725
 9671TIP3   OH253207   7.154   1.514  11.483 -0.1049 -0.2753  0.6523
 9671TIP3    H153208   7.218   1.444  11.473 -0.4045 -0.4303 -0.3092
 9671TIP3    H253209   7.201   1.594  11.458 -0.7574 -0.6193 -2.0591
 9672TIP3   OH253210   3.545   0.181  11.927 -0.3648  0.1875  0.5937
 9672TIP3    H153211   3.493   0.240  11.874 -0.2013  0.2613  0.5132
 9672TIP3    H253212   3.484   0.114  11.956  0.0797 -1.6540 -2.2597
 9673TIP3   OH253213   4.619   2.603  12.883 -1.0398  0.1386  0.0094
 9673TIP3    H153214   4.662   2.680  12.920 -0.1894  0.1604 -0.9755
 9673TIP3    H253215   4.614   2.621  12.789 -0.9824 -0.9276 -0.2151
 9674TIP3   OH253216   7.520   5.575  11.446  0.2394  0.4338  0.2795
 9674TIP3    H153217   7.439   5.625  11.443  0.2801  0.5320  0.7099
 9674TIP3    H253218   7.546   5.576  11.539 -0.7523 -1.9535  0.6635
 9675TIP3   OH253219   7.891   5.759  12.615  0.5596  0.0440  0.5747
 9675TIP3    H153220   7.875   5.708  12.695 -1.3078  1.4973  1.1923
 9675TIP3    H253221   7.944   5.833  12.644  3.3737 -1.4618 -0.3451
 9676TIP3   OH253222   5.981   3.947  12.688 -0.1300 -0.5561 -0.3922
 9676TIP3    H153223   6.024   3.907  12.613  0.5005 -0.0307 -0.3293
 9676TIP3    H253224   5.967   4.038  12.661  2.0180  0.2238  0.8458
 9677TIP3   OH253225   7.316   1.667  12.553 -0.0762 -0.1341 -0.1824
 9677TIP3    H153226   7.281   1.752  12.528 -0.5163 -0.2980 -0.1254
 9677TIP3    H253227   7.389   1.688  12.611  0.4217  0.2282 -0.9212
 9678TIP3   OH253228   6.585   7.810  13.305  0.4760  0.4449 -0.7401
 9678TIP3    H153229   6.607   7.717  13.311  2.7747  0.9357 -0.5725
 9678TIP3    H253230   6.614   7.847  13.389 -0.9229  1.2385 -0.5820
 9679TIP3   OH253231   8.203   7.077  13.519 -0.6712  0.1768 -0.7656
 9679TIP3    H153232   8.193   6.986  13.545  1.4609  0.3246  0.8903
 9679TIP3    H253233   8.247   7.073  13.434 -3.9265 -0.2767 -2.5811
 9680TIP3   OH253234   3.468   8.016  12.879 -0.5030  1.1481 -0.0629
 9680TIP3    H153235   3.524   8.070  12.935  1.0501 -0.2334 -0.2124
 9680TIP3    H253236   3.380   8.053  12.890  0.1861  2.4847  1.2951
 9681TIP3   OH253237   2.467   3.764  13.320 -0.2726  0.1259 -0.7369
 9681TIP3    H153238   2.436   3.675  13.305  0.6791 -0.4620  0.4869
 9681TIP3    H253239   2.558   3.763  13.290 -0.4089  0.8361 -1.1881
 9682TIP3   OH253240   6.824   1.496  13.299  0.4390  0.4228  0.4424
 9682TIP3    H153241   6.732   1.515  13.278  0.4054 -0.4261 -0.2155
 9682TIP3    H253242   6.849   1.428  13.237  0.7290 -1.2809  2.3098
 9683TIP3   OH253243   6.969   0.470  12.086 -0.3844 -0.0279  0.4275
 9683TIP3    H153244   7.030   0.398  12.100  0.2504  0.4592  0.2185
 9683TIP3    H253245   6.900   0.457  12.151 -0.3585 -0.9101  0.2814
 9684TIP3   OH253246   0.998   8.180  13.144 -0.3023 -0.2072  0.0835
 9684TIP3    H153247   0.903   8.175  13.159 -0.5055  0.9772 -0.6820
 9684TIP3    H253248   1.008   8.169  13.050  0.5439 -2.6278  0.3949
 9685TIP3   OH253249   0.799   7.140  12.026  0.1805  0.0136  0.2113
 9685TIP3    H153250   0.823   7.061  11.978  2.1661  1.8125 -1.9895
 9685TIP3    H253251   0.704   7.148  12.015 -0.1614 -2.2762  0.9648
 9686TIP3   OH253252   8.216   2.611  12.909 -0.8348 -0.0991 -0.0204
 9686TIP3    H153253   8.257   2.664  12.978  0.8892 -1.0367 -0.2550
 9686TIP3    H253254   8.137   2.660  12.885  0.3369  2.0362  0.1972
 9687TIP3   OH253255   4.870   2.950  12.446 -0.1588 -0.0651  0.0909
 9687TIP3    H153256   4.804   2.970  12.379 -1.3692  1.0191  1.5220
 9687TIP3    H253257   4.820   2.948  12.528  1.5404  0.4037  1.1792
 9688TIP3   OH253258   1.265   6.032  12.082 -0.5116  0.0779 -0.1036
 9688TIP3    H153259   1.330   5.972  12.120 -0.7594 -1.2262 -1.6592
 9688TIP3    H253260   1.220   5.981  12.016 -1.5991  1.6414 -0.6390
 9689TIP3   OH253261   2.567   7.798  12.938 -0.0779  0.3401  0.1257
 9689TIP3    H153262   2.640   7.806  12.877  0.9850 -0.2681  1.2663
 9689TIP3    H253263   2.531   7.886  12.944 -1.5587  0.0858 -2.9020
 9690TIP3   OH253264   5.520   5.489  12.470 -0.4862 -0.0232 -0.4153
 9690TIP3    H153265   5.542   5.560  12.410 -0.4901  0.1530 -0.2082
 9690TIP3    H253266   5.486   5.533  12.548  0.5827 -0.1851  0.1759
 9691TIP3   OH253267   2.059   8.111  12.701  0.3618  0.3767 -0.6080
 9691TIP3    H153268   2.103   8.057  12.768  0.4573 -0.3425 -1.2341
 9691TIP3    H253269   2.121   8.112  12.628 -0.6173 -0.6219 -1.4954
 9692TIP3   OH253270   2.623   0.780  11.844  0.0784  0.2698  0.2410
 9692TIP3    H153271   2.706   0.827  11.833  0.1181  0.0162 -0.5552
 9692TIP3    H253272   2.646   0.703  11.896  0.4809 -0.1743 -0.5819
 9693TIP3   OH253273   4.107   2.345  12.695  0.5179  0.3320  0.2294
 9693TIP3    H153274   4.160   2.370  12.619  2.4044 -2.1063  0.5743
 9693TIP3    H253275   4.056   2.270  12.664  0.0821  0.3355  0.9313
 9694TIP3   OH253276   7.388   7.151  12.779  0.1220  0.3075 -0.0452
 9694TIP3    H153277   7.394   7.163  12.874 -0.0512  1.8106 -0.1980
 9694TIP3    H253278   7.417   7.061  12.764 -0.6953 -0.2468  1.5174
 9695TIP3   OH253279   7.401   7.737  12.537  0.2216 -0.3247 -0.0240
 9695TIP3    H153280   7.389   7.813  12.595  1.7162  0.7295 -1.0090
 9695TIP3    H253281   7.319   7.733  12.486  0.5386  1.3900 -0.7612
 9696TIP3   OH253282   4.917   2.251  12.456 -0.4001 -0.2003 -0.0059
 9696TIP3    H153283   4.837   2.215  12.493 -0.0842 -0.0848  0.8006
 9696TIP3    H253284   4.907   2.346  12.463 -0.3293 -0.1783 -0.1906
 9697TIP3   OH253285   4.794   6.342  13.079  0.3167  0.4628  0.1947
 9697TIP3    H153286   4.824   6.255  13.103  0.9085  0.7924  0.6881
 9697TIP3    H253287   4.748   6.374  13.157 -0.2207  0.4545 -0.1127
 9698TIP3   OH253288   4.302   0.230  11.466 -0.2571 -0.1251  0.6238
 9698TIP3    H153289   4.389   0.242  11.504  0.0512 -1.5123  0.4406
 9698TIP3    H253290   4.295   0.135  11.454 -2.2085 -0.1534  1.6264
 9699TIP3   OH253291   3.827   2.422  13.235 -0.8486 -0.0019  0.0711
 9699TIP3    H153292   3.770   2.498  13.228  0.3187  0.7839 -1.6234
 9699TIP3    H253293   3.916   2.458  13.234 -0.2675 -1.3846 -0.9787
 9700TIP3   OH253294   4.450   2.719  12.474  0.2249  0.2112 -0.7682
 9700TIP3    H153295   4.402   2.793  12.509  0.0594 -0.5277  0.6322
 9700TIP3    H253296   4.387   2.674  12.417  1.0508  2.4662 -3.6926
 9701TIP3   OH253297   1.328   5.863  12.990  0.0745  0.3490 -0.1907
 9701TIP3    H153298   1.346   5.946  13.034 -0.3992  0.2329  0.2347
 9701TIP3    H253299   1.384   5.864  12.912  1.6466  0.1543  0.8798
 9702TIP3   OH253300   7.400   6.499  13.489 -0.0653 -0.5041  0.0612
 9702TIP3    H153301   7.481   6.453  13.468 -0.3636 -0.7035 -0.6534
 9702TIP3    H253302   7.376   6.466  13.576  1.3642  0.6101  0.9369
 9703TIP3   OH253303   0.644   5.908  11.999  0.2817  0.0237  0.5002
 9703TIP3    H153304   0.548   5.900  12.004 -0.1864  3.7162  0.2591
 9703TIP3    H253305   0.669   5.943  12.084  1.5855 -1.5510  0.8059
 9704TIP3   OH253306   5.684   0.193  13.814  0.1301  0.9503  0.3463
 9704TIP3    H153307   5.737   0.202  13.735  0.5618 -1.4323  0.2931
 9704TIP3    H253308   5.724   0.254  13.876  1.0156  1.4172 -0.6505
 9705TIP3   OH253309   6.204   6.830  12.007  0.2350  0.1401  0.5649
 9705TIP3    H153310   6.212   6.924  11.988  1.3260 -0.0422  0.0664
 9705TIP3    H253311   6.294   6.799  12.015 -0.0801 -1.0299 -0.1391
 9706TIP3   OH253312   3.739   1.041  11.809 -0.0411 -0.8307  0.1838
 9706TIP3    H153313   3.659   1.093  11.820 -0.2416 -1.1552  0.2706
 9706TIP3    H253314   3.810   1.105  11.813 -0.3433 -0.3835 -0.9927
 9707TIP3   OH253315   0.416   3.592  12.077 -0.1319 -0.1912  0.4272
 9707TIP3    H153316   0.375   3.532  12.015  1.2500 -0.5532 -0.1806
 9707TIP3    H253317   0.368   3.674  12.066 -0.9299 -0.6968  0.0276
 9708TIP3   OH253318   7.925   0.838  12.353 -0.4134 -0.6054 -0.4735
 9708TIP3    H153319   7.930   0.852  12.448 -1.7971  0.3033 -0.5058
 9708TIP3    H253320   8.016   0.835  12.325  0.0178 -0.3062  0.8096
 9709TIP3   OH253321   0.411   5.521  12.858  0.5175  0.0226  0.1247
 9709TIP3    H153322   0.490   5.569  12.883 -0.2181  1.5023 -0.2682
 9709TIP3    H253323   0.361   5.510  12.939 -0.0772  1.4211 -0.0276
 9710TIP3   OH253324   5.760   2.657  12.058 -0.4416 -0.5351  0.6199
 9710TIP3    H153325   5.685   2.684  12.110 -0.9660 -0.6185 -0.0836
 9710TIP3    H253326   5.749   2.563  12.045 -0.1504 -0.5713  0.6105
 9711TIP3   OH253327   1.699   6.232  12.326 -0.0864  0.0159 -1.0048
 9711TIP3    H153328   1.775   6.201  12.276  0.4115 -1.7084  0.7199
 9711TIP3    H253329   1.736   6.289  12.392 -0.4198  0.0176 -0.8184
 9712TIP3   OH253330   0.486   4.377  11.657 -0.4528  0.4421 -0.0319
 9712TIP3    H153331   0.466   4.466  11.686  1.1708  0.7425  0.2424
 9712TIP3    H253332   0.578   4.364  11.679 -0.2855 -0.8268 -1.2838
 9713TIP3   OH253333   1.519   7.291  12.681  0.2600  0.3977 -0.4437
 9713TIP3    H153334   1.534   7.206  12.723 -0.1713  1.6108  2.4813
 9713TIP3    H253335   1.557   7.282  12.594 -0.1758 -2.9056 -0.4249
 9714TIP3   OH253336   5.535   6.480  11.798 -0.0455 -0.2263  0.3210
 9714TIP3    H153337   5.543   6.559  11.746  1.4572 -0.7300 -0.2450
 9714TIP3    H253338   5.449   6.444  11.775 -0.3857  0.7886 -0.0196
 9715TIP3   OH253339   0.834   8.092  12.405  0.1913  0.2597  0.9108
 9715TIP3    H153340   0.869   8.176  12.435  1.3522  0.9015 -1.9180
 9715TIP3    H253341   0.739   8.101  12.412  0.0999  2.8978 -1.6415
 9716TIP3   OH253342   2.085   7.451  12.056  0.6374  0.1109 -0.1886
 9716TIP3    H153343   1.998   7.478  12.083  0.2171 -1.6400  0.3714
 9716TIP3    H253344   2.144   7.514  12.097 -0.2558  0.0572  1.2519
 9717TIP3   OH253345   3.928   0.447  12.044 -0.1839  0.6002  0.3020
 9717TIP3    H153346   3.973   0.532  12.042 -0.8238  0.9438  0.1169
 9717TIP3    H253347   3.993   0.385  12.012  0.9035  0.7142  2.1693
 9718TIP3   OH253348   5.850   6.155  12.079 -0.4755  0.0935 -0.1269
 9718TIP3    H153349   5.892   6.179  12.162 -0.3511  1.9889 -0.6941
 9718TIP3    H253350   5.819   6.238  12.042  0.1547 -0.5848 -2.3593
 9719TIP3   OH253351   6.844   0.435  12.359 -1.3554 -0.2608 -0.4705
 9719TIP3    H153352   6.763   0.476  12.389 -1.3926 -0.1380 -0.7252
 9719TIP3    H253353   6.841   0.346  12.393 -0.2390  0.5710  1.9851
 9720TIP3   OH253354   1.426   7.367  11.782  0.4325  0.2883 -0.2382
 9720TIP3    H153355   1.358   7.345  11.846  1.3422 -2.9945 -0.1714
 9720TIP3    H253356   1.491   7.417  11.832 -1.6554  3.2454 -0.2496
 9721TIP3   OH253357   8.204   8.151  12.242  0.1243  0.0841 -0.1566
 9721TIP3    H153358   8.148   8.212  12.193  1.0224  0.9356 -0.1696
 9721TIP3    H253359   8.239   8.204  12.314 -2.5113 -1.5439  2.5883
 9722TIP3   OH253360   4.103   2.690  12.019 -0.5418  1.1396  0.3289
 9722TIP3    H153361   4.013   2.672  12.046 -0.9706  1.1051 -1.0370
 9722TIP3    H253362   4.124   2.620  11.957 -0.0046  1.8103 -0.2648
 9723TIP3   OH253363   4.011   3.758  13.087 -0.5328  0.3749 -0.5047
 9723TIP3    H153364   3.969   3.672  13.082  0.3575 -0.2354  1.3855
 9723TIP3    H253365   4.096   3.740  13.128 -0.1708  2.1155 -0.4242
 9724TIP3   OH253366   6.417   4.325  12.288 -0.3325 -0.3536  0.1333
 9724TIP3    H153367   6.389   4.397  12.344  0.2671 -0.6368  0.8215
 9724TIP3    H253368   6.399   4.355  12.199 -1.1794  0.1565  0.4647
 9725TIP3   OH253369   7.300   5.531  12.859  0.0720  0.4194  0.3264
 9725TIP3    H153370   7.263   5.531  12.947 -1.1353  0.8273 -0.1570
 9725TIP3    H253371   7.303   5.438  12.835 -0.8785  0.3862  0.2930
 9726TIP3   OH253372   4.793   5.756  12.916  0.5508 -0.2232 -0.9164
 9726TIP3    H153373   4.784   5.851  12.917  0.7157 -0.2076 -0.1492
 9726TIP3    H253374   4.829   5.737  12.830  1.5918  0.5284 -0.6808
 9727TIP3   OH253375   0.304   3.405  11.915 -0.0383 -0.5103  0.3122
 9727TIP3    H153376   0.339   3.330  11.867  1.1716  0.2969 -0.1187
 9727TIP3    H253377   0.268   3.462  11.847  0.3849 -0.0201  0.4962
 9728TIP3   OH253378   3.147   6.305  13.562  0.5289 -0.3383 -0.0134
 9728TIP3    H153379   3.088   6.236  13.532 -0.7499  0.8716 -0.3928
 9728TIP3    H253380   3.186   6.340  13.482 -0.0964  0.4650  0.0213
 9729TIP3   OH253381   0.856   0.943  12.717 -0.3291 -0.5571 -0.4183
 9729TIP3    H153382   0.871   0.877  12.649 -1.1450 -1.7737  0.5311
 9729TIP3    H253383   0.870   0.897  12.799 -0.9930  0.4381  0.2809
 9730TIP3   OH253384   6.110   7.334  12.083 -0.1490  0.3582  0.4051
 9730TIP3    H153385   6.036   7.278  12.107 -0.5192 -0.0120 -1.4086
 9730TIP3    H253386   6.076   7.423  12.087 -0.8050  0.1794 -0.6212
 9731TIP3   OH253387   4.883   7.182  13.100 -0.3822 -0.6020  0.7219
 9731TIP3    H153388   4.888   7.092  13.068 -0.5477 -0.0410 -0.9783
 9731TIP3    H253389   4.928   7.234  13.034 -2.6387  0.8918  0.2235
 9732TIP3   OH253390   2.026   5.229  12.864 -0.1380  0.1403  0.2792
 9732TIP3    H153391   1.954   5.188  12.913  1.3592 -0.6617  1.9211
 9732TIP3    H253392   2.089   5.158  12.850  1.9500  1.4783  2.0827
 9733TIP3   OH253393   7.754   2.727  12.924  0.0264  0.0925  0.0179
 9733TIP3    H153394   7.709   2.773  12.853  0.8112 -0.2100 -0.6856
 9733TIP3    H253395   7.701   2.746  13.001 -0.3348  1.1971 -0.4726
 9734TIP3   OH253396   5.444   5.278  11.594 -0.5987  0.0115  0.2385
 9734TIP3    H153397   5.418   5.194  11.555 -1.6821  0.2278  0.4842
 9734TIP3    H253398   5.395   5.343  11.545 -0.3630  0.4519  0.5839
 9735TIP3   OH253399   3.380   0.953  11.461 -0.1928 -0.3697 -0.2171
 9735TIP3    H153400   3.443   0.952  11.389 -0.3788 -1.4280 -0.3767
 9735TIP3    H253401   3.379   0.863  11.493  0.6551  0.2752  1.7806
 9736TIP3   OH253402   2.134   3.596  13.817 -0.0993 -0.0771  0.5058
 9736TIP3    H153403   2.221   3.633  13.801 -0.2721  0.8469  1.5795
 9736TIP3    H253404   2.153   3.508  13.853  0.4401  0.4166  1.4885
 9737TIP3   OH253405   3.446   0.722  12.064  0.7490  0.0433  0.2936
 9737TIP3    H153406   3.519   0.663  12.044  0.1886 -0.4870 -0.2053
 9737TIP3    H253407   3.457   0.743  12.157  0.3749 -1.6575  0.7483
 9738TIP3   OH253408   0.359   8.061  13.471 -0.5585 -0.1405 -0.2549
 9738TIP3    H153409   0.408   8.100  13.398 -0.7190 -0.1547 -0.3707
 9738TIP3    H253410   0.408   8.087  13.549 -1.2216  1.1401 -0.2438
 9739TIP3   OH253411   1.413   3.514  12.658  0.0989 -0.2666 -0.1700
 9739TIP3    H153412   1.501   3.476  12.665  0.2057  0.0091 -0.0076
 9739TIP3    H253413   1.360   3.460  12.717  0.1671 -0.4122 -0.2419
 9740TIP3   OH253414   1.994   7.912  13.204  0.2797  0.4899  0.2007
 9740TIP3    H153415   2.072   7.901  13.259  1.2114  0.7448 -1.0192
 9740TIP3    H253416   1.932   7.847  13.236  1.0568  0.1715  1.0942
 9741TIP3   OH253417   1.683   0.612  12.514  0.5036 -0.1636  0.2107
 9741TIP3    H153418   1.600   0.635  12.555 -0.9470 -3.3708 -0.6066
 9741TIP3    H253419   1.744   0.680  12.542 -1.5208  0.3905  3.7609
 9742TIP3   OH253420   3.308   5.076  12.285  0.2572 -0.3495 -0.8748
 9742TIP3    H153421   3.324   5.077  12.191  1.4651 -0.0441 -0.6842
 9742TIP3    H253422   3.266   4.991  12.301  2.9586 -1.8647 -1.2777
 9743TIP3   OH253423   4.183   6.496  11.911 -0.1539 -0.1458 -0.2064
 9743TIP3    H153424   4.238   6.485  11.833 -0.3024  0.2055 -0.3613
 9743TIP3    H253425   4.170   6.407  11.943  1.2827 -0.1720  0.3823
 9744TIP3   OH253426   0.819   8.075  11.928  0.3745  0.5691 -0.2349
 9744TIP3    H153427   0.814   8.072  11.833  0.5063 -3.0435 -0.2879
 9744TIP3    H253428   0.728   8.068  11.958  0.4158  0.3624 -0.1504
 9745TIP3   OH253429   1.428   2.172  12.999  1.0415 -0.0135  0.5130
 9745TIP3    H153430   1.505   2.173  13.056  1.8881 -2.2556 -0.4864
 9745TIP3    H253431   1.437   2.251  12.946  2.1282  0.2800  1.0920
 9746TIP3   OH253432   4.813   8.036  13.416 -0.1279  0.2633 -0.0953
 9746TIP3    H153433   4.767   7.954  13.434 -1.8140  0.6383 -2.2496
 9746TIP3    H253434   4.905   8.010  13.408 -0.0764 -0.7833  2.6664
 9747TIP3   OH253435   1.695   2.401  13.361 -0.1247  0.1266 -0.1195
 9747TIP3    H153436   1.720   2.412  13.269 -0.7476  2.1822 -0.0967
 9747TIP3    H253437   1.609   2.443  13.368  0.6134  1.4999  1.7022
 9748TIP3   OH253438   6.521   4.313  13.774 -0.1396 -0.0203  0.2057
 9748TIP3    H153439   6.525   4.268  13.690  2.1866  3.7528 -1.9688
 9748TIP3    H253440   6.428   4.328  13.789 -0.6190 -0.7832 -1.6899
 9749TIP3   OH253441   0.365   0.890  12.226 -0.0060  0.0428 -0.4406
 9749TIP3    H153442   0.310   0.831  12.175 -0.6566 -0.7213  1.0492
 9749TIP3    H253443   0.443   0.904  12.173 -1.6094  1.1818 -2.6255
 9750TIP3   OH253444   4.936   4.646  11.735 -0.4774  0.4769 -1.0921
 9750TIP3    H153445   4.900   4.728  11.769  1.0460  0.9377 -0.4973
 9750TIP3    H253446   5.025   4.642  11.771  0.5896  0.0964 -3.5423
 9751TIP3   OH253447   4.852   8.110  12.346  0.8641 -0.2512  0.2517
 9751TIP3    H153448   4.800   8.055  12.405 -2.2541 -1.0723 -2.9392
 9751TIP3    H253449   4.876   8.051  12.274  2.2671  1.2966 -0.6089
 9752TIP3   OH253450   2.616   2.015  12.680  0.6351  0.1416 -0.4385
 9752TIP3    H153451   2.536   2.031  12.630  0.3454 -0.2262 -0.1070
 9752TIP3    H253452   2.584   1.990  12.767  1.0925 -0.5962 -0.4746
 9753TIP3   OH253453   4.444   0.616  12.639 -0.6113 -0.5311  0.4906
 9753TIP3    H153454   4.441   0.600  12.734 -2.3305 -0.5901  0.4554
 9753TIP3    H253455   4.493   0.698  12.630 -0.3558 -0.5682  1.4246
 9754TIP3   OH253456   2.370   2.465  12.820  0.1129  0.4149  0.5606
 9754TIP3    H153457   2.445   2.407  12.835 -0.9428 -1.0707  0.3116
 9754TIP3    H253458   2.343   2.446  12.730 -0.1874  1.3960  0.4343
 9755TIP3   OH253459   6.796   0.954  12.316  0.0514 -0.3297  0.5678
 9755TIP3    H153460   6.864   0.943  12.382  1.7772 -0.7983 -1.1876
 9755TIP3    H253461   6.826   1.025  12.261  0.1777 -1.8326 -1.4202
 9756TIP3   OH253462   2.576   2.875  12.304 -0.3149  0.0953  0.4533
 9756TIP3    H153463   2.659   2.831  12.323  0.4290  0.3633 -1.7599
 9756TIP3    H253464   2.587   2.964  12.339  0.1630 -0.0092  0.5726
 9757TIP3   OH253465   6.397   8.183  11.298  0.2590 -0.5628  0.2142
 9757TIP3    H153466   6.437   8.141  11.374 -0.3855 -0.3814  0.6621
 9757TIP3    H253467   6.359   8.112  11.248  0.3137 -0.6395  0.2815
 9758TIP3   OH253468   6.313   7.869  11.672 -0.2393 -0.2297 -0.2542
 9758TIP3    H153469   6.319   7.952  11.719 -3.0591  0.9227 -1.6175
 9758TIP3    H253470   6.267   7.811  11.732 -2.1071  0.6307 -0.7667
 9759TIP3   OH253471   6.202   5.198  12.800  0.2388  0.2866 -0.2850
 9759TIP3    H153472   6.254   5.277  12.785 -0.1896  0.4481 -0.9409
 9759TIP3    H253473   6.201   5.153  12.716 -0.8711  0.4001 -0.3502
 9760TIP3   OH253474   4.085   1.273  11.610  0.1065  0.0187 -0.1912
 9760TIP3    H153475   4.069   1.263  11.516 -0.9049 -0.7666  0.0339
 9760TIP3    H253476   4.178   1.291  11.618  0.4350 -1.0616 -1.2926
 9761TIP3   OH253477   6.868   7.812  13.236 -0.7065  0.3463 -0.3239
 9761TIP3    H153478   6.860   7.779  13.147  2.2153 -1.5245 -0.0272
 9761TIP3    H253479   6.802   7.763  13.286  0.4635 -1.8109 -0.7706
 9762TIP3   OH253480   6.033   6.440  11.572  0.4011  0.2637  0.8221
 9762TIP3    H153481   5.948   6.411  11.604  0.4042  1.1630  1.6935
 9762TIP3    H253482   6.047   6.389  11.492 -0.9965  0.1612  0.6057
 9763TIP3   OH253483   2.469   4.329  13.493 -0.4782 -0.7587 -0.4000
 9763TIP3    H153484   2.453   4.237  13.472  0.8387 -1.2909  0.8446
 9763TIP3    H253485   2.548   4.329  13.546 -1.3425  0.9334  0.9921
 9764TIP3   OH253486   3.835   0.125  11.984  0.0893 -0.4048 -0.5829
 9764TIP3    H153487   3.917   0.139  11.935  1.3207  1.3087  1.7725
 9764TIP3    H253488   3.775   0.190  11.947  0.2275 -0.7176 -1.3848
 9765TIP3   OH253489   6.822   0.281  13.496 -0.4569 -0.0207  0.1325
 9765TIP3    H153490   6.743   0.240  13.530  0.0458 -1.2797 -0.1710
 9765TIP3    H253491   6.854   0.336  13.568 -0.9756 -0.4089  0.6621
 9766TIP3   OH253492   3.759   6.212  13.046  0.2061 -0.1202  0.0753
 9766TIP3    H153493   3.714   6.248  13.123  0.0917 -1.1443  0.5055
 9766TIP3    H253494   3.852   6.227  13.063  0.0856  3.6852 -1.6537
 9767TIP3   OH253495   3.234   5.684  12.567  0.2762 -0.4033  0.1291
 9767TIP3    H153496   3.178   5.743  12.617  0.2880 -0.3562  0.0866
 9767TIP3    H253497   3.232   5.718  12.478 -0.0631 -0.7171  0.0117
 9768TIP3   OH253498   6.708   4.014  11.634 -0.4090 -0.4358  0.1847
 9768TIP3    H153499   6.726   3.941  11.694 -1.3657 -1.2952 -0.5360
 9768TIP3    H253500   6.680   4.085  11.692  0.0493 -0.7942  0.8653
 9769TIP3   OH253501   7.443   2.525  12.513 -0.0996  0.6676  0.2156
 9769TIP3    H153502   7.533   2.494  12.503  0.4477  2.6673 -1.7907
 9769TIP3    H253503   7.390   2.445  12.508  1.4898 -0.4861  0.8037
 9770TIP3   OH253504   4.308   3.064  13.469  0.2529  0.1282  0.8283
 9770TIP3    H153505   4.387   3.032  13.511  0.9436 -1.2750 -1.3846
 9770TIP3    H253506   4.289   3.147  13.513  3.5601  1.0735  0.7104
 9771TIP3   OH253507   8.367   1.022  12.168 -0.3248 -0.1595 -0.2001
 9771TIP3    H153508   8.328   1.095  12.121  1.0374  0.4149 -0.5063
 9771TIP3    H253509   8.388   1.057  12.255  3.2534  0.9091 -1.3315
 9772TIP3   OH253510   7.988   3.577  12.457  0.7947 -0.0826  0.2720
 9772TIP3    H153511   8.003   3.483  12.449  0.8204  0.0678 -2.3643
 9772TIP3    H253512   8.075   3.616  12.451  0.6552  0.1620 -0.2086
 9773TIP3   OH253513   4.654   5.882  11.874 -0.1150 -0.4661 -0.1637
 9773TIP3    H153514   4.683   5.819  11.808 -4.3834 -1.4167 -1.4602
 9773TIP3    H253515   4.614   5.953  11.824 -4.1469 -1.5519  1.1225
 9774TIP3   OH253516   5.070   0.754  12.712 -0.4646  0.4080 -0.3888
 9774TIP3    H153517   5.077   0.757  12.808  1.3854  0.4891 -0.4852
 9774TIP3    H253518   4.976   0.745  12.695 -0.7175 -0.9936  1.4563
 9775TIP3   OH253519   4.815   7.444  11.503 -0.3680 -0.1239 -0.9579
 9775TIP3    H153520   4.805   7.527  11.550 -0.6444  0.7226 -2.4646
 9775TIP3    H253521   4.726   7.416  11.483 -0.2290  0.2669 -2.2058
 9776TIP3   OH253522   5.180   0.217  11.810 -0.1354 -0.3991 -0.2477
 9776TIP3    H153523   5.201   0.224  11.903 -0.2131 -1.3598 -0.1476
 9776TIP3    H253524   5.124   0.292  11.793  1.0718  0.6176  0.1323
 9777TIP3   OH253525   0.679   3.574  11.959 -0.0287 -0.1935  0.1663
 9777TIP3    H153526   0.675   3.662  11.997 -0.5676  0.8889 -2.2021
 9777TIP3    H253527   0.591   3.539  11.973  0.2777 -0.5331  1.4032
 9778TIP3   OH253528   7.960   1.422  11.917 -0.4208 -0.1874  0.1479
 9778TIP3    H153529   8.051   1.448  11.899 -0.2161  0.2857  1.7939
 9778TIP3    H253530   7.935   1.372  11.839  1.2663 -0.3715 -0.3251
 9779TIP3   OH253531   0.819   0.589  11.705 -0.5029  0.0414 -0.1223
 9779TIP3    H153532   0.738   0.580  11.755 -0.3191 -0.3848  0.0954
 9779TIP3    H253533   0.789   0.612  11.617 -0.8587 -0.0387 -0.0261
 9780TIP3   OH253534   5.496   7.255  13.173 -0.3974 -0.2379 -0.0221
 9780TIP3    H153535   5.520   7.224  13.086 -0.0126  0.9929 -0.3666
 9780TIP3    H253536   5.570   7.308  13.202 -1.1557  0.6251  0.4093
 9781TIP3   OH253537   8.440   5.068  13.236  0.0166  0.1773 -0.6168
 9781TIP3    H153538   8.490   4.990  13.261 -0.9299  0.3213  1.9424
 9781TIP3    H253539   8.391   5.040  13.159  0.4992 -1.4096 -0.3881
 9782TIP3   OH253540   3.513   2.924  12.537 -0.4077 -0.4272  0.2549
 9782TIP3    H153541   3.459   2.848  12.516  1.1335 -2.1295  2.0043
 9782TIP3    H253542   3.451   2.996  12.550 -1.9961 -1.5946 -0.5588
 9783TIP3   OH253543   4.240   2.019  12.997 -0.5316 -0.1220 -0.5614
 9783TIP3    H153544   4.175   2.007  12.927 -1.3938  1.6388 -0.1233
 9783TIP3    H253545   4.198   2.079  13.058  1.6368  1.3667 -0.4310
 9784TIP3   OH253546   7.161   5.500  13.113  0.4404 -0.2270  0.4842
 9784TIP3    H153547   7.115   5.431  13.160  0.0387  0.5594  1.2798
 9784TIP3    H253548   7.201   5.554  13.182 -0.8222  1.4230 -0.0029
 9785TIP3   OH253549   3.645   0.380  12.089  0.4005 -0.0668  0.1764
 9785TIP3    H153550   3.618   0.292  12.064 -1.6527  0.7859 -0.8477
 9785TIP3    H253551   3.740   0.376  12.091  0.3643 -2.5014  0.9720
 9786TIP3   OH253552   1.600   5.182  12.211  0.1099 -0.1420  0.1780
 9786TIP3    H153553   1.571   5.219  12.294 -2.9067 -0.1857 -0.7465
 9786TIP3    H253554   1.565   5.241  12.145  0.1881 -1.5261 -1.1587
 9787TIP3   OH253555   0.577   0.320  11.288 -0.4798  0.1840  0.1841
 9787TIP3    H153556   0.562   0.407  11.324  1.4963  0.4625  0.4905
 9787TIP3    H253557   0.662   0.294  11.325 -0.1248 -1.0615 -1.3953
 9788TIP3   OH253558   3.202   6.149  11.904  0.1165 -0.2238 -0.6790
 9788TIP3    H153559   3.257   6.227  11.906 -1.1412  0.7038 -1.0314
 9788TIP3    H253560   3.192   6.128  11.811 -1.3218  0.5217 -0.7205
 9789TIP3   OH253561   4.037   0.759  12.588  0.5435 -0.4447  0.2694
 9789TIP3    H153562   3.968   0.800  12.639  0.8043  1.2981 -0.6823
 9789TIP3    H253563   3.993   0.728  12.508  0.8917  1.0482 -0.5308
 9790TIP3   OH253564   4.108   0.918  11.636  0.2009  0.5341  0.6920
 9790TIP3    H153565   4.174   0.980  11.670  1.5563 -0.9297  0.8303
 9790TIP3    H253566   4.155   0.835  11.629 -1.4252 -0.3547 -0.0559
 9791TIP3   OH253567   5.247   4.728  14.163  0.4503 -0.2910 -0.3736
 9791TIP3    H153568   5.274   4.663  14.099  2.0149 -0.9698  0.9005
 9791TIP3    H253569   5.328   4.754  14.206 -0.4087  0.9896  0.5530
 9792TIP3   OH253570   2.732   3.756  13.235  0.2494 -0.0043  0.0681
 9792TIP3    H153571   2.753   3.841  13.198  0.8353 -0.1372  0.0813
 9792TIP3    H253572   2.775   3.693  13.176 -0.0214 -0.2838  0.1619
 9793TIP3   OH253573   3.990   5.710  13.802 -0.1574  0.1025 -0.2654
 9793TIP3    H153574   4.080   5.692  13.775 -0.1633  2.0724 -1.7772
 9793TIP3    H253575   3.951   5.757  13.728 -1.2109  2.8088  1.8412
 9794TIP3   OH253576   6.671   0.801  11.618  0.3197 -0.2324 -0.4320
 9794TIP3    H153577   6.655   0.712  11.649 -0.6023 -0.4751 -1.5268
 9794TIP3    H253578   6.732   0.790  11.545  0.8114  0.1183 -0.0801
 9795TIP3   OH253579   3.702   2.452  12.605  0.0451 -0.3062 -0.2680
 9795TIP3    H153580   3.756   2.508  12.548  0.5721  0.3162  0.8122
 9795TIP3    H253581   3.702   2.497  12.689 -2.1254 -0.3322 -0.2080
 9796TIP3   OH253582   8.017   3.253  13.468  0.1910  0.1638  0.1657
 9796TIP3    H153583   8.017   3.255  13.373 -2.2877 -1.1861  0.0590
 9796TIP3    H253584   7.995   3.343  13.494 -1.4725  0.0392 -0.6621
 9797TIP3   OH253585   6.961   2.869  12.932  0.1580 -0.3489 -0.0731
 9797TIP3    H153586   6.973   2.960  12.905 -1.7447  0.1275  0.5002
 9797TIP3    H253587   7.049   2.837  12.951  0.8352  1.4585  0.0255
 9798TIP3   OH253588   6.519   1.261  12.380 -0.2352 -0.2781 -0.0654
 9798TIP3    H153589   6.477   1.180  12.406 -1.9318  0.1109 -1.4255
 9798TIP3    H253590   6.478   1.284  12.297 -0.8587  2.6947  0.9401
 9799TIP3   OH253591   8.068   5.428  12.766  0.5210  0.4893  0.2575
 9799TIP3    H153592   8.052   5.461  12.677  0.0438  1.1662  0.5873
 9799TIP3    H253593   8.070   5.333  12.756  0.7084  0.5658 -0.5173
 9800TIP3   OH253594   3.564   6.646  12.294 -0.6241 -0.3230 -0.3521
 9800TIP3    H153595   3.579   6.587  12.367 -0.5677  0.8047  0.5749
 9800TIP3    H253596   3.493   6.703  12.323  0.4264  1.1427 -0.5476
 9801TIP3   OH253597   6.221   0.930  13.295 -0.3830 -0.0765  0.4006
 9801TIP3    H153598   6.311   0.943  13.326 -0.6794  0.5069  1.0442
 9801TIP3    H253599   6.166   0.956  13.369 -1.0842 -0.8764  0.1828
 9802TIP3   OH253600   3.260   6.172  12.340  0.2828  0.1117 -0.0562
 9802TIP3    H153601   3.195   6.159  12.409  1.5608  0.0610  1.1728
 9802TIP3    H253602   3.345   6.165  12.384  1.1469  2.2050 -1.2319
 9803TIP3   OH253603   6.046   3.653  13.211  0.1539 -0.5771  0.0587
 9803TIP3    H153604   6.066   3.585  13.277 -1.0385 -0.9921  0.0080
 9803TIP3    H253605   6.031   3.732  13.263  1.8013 -0.2504  0.1039
 9804TIP3   OH253606   1.594   1.993  11.581 -0.4446 -0.3881  0.1987
 9804TIP3    H153607   1.604   2.018  11.673  0.2427  0.3501 -0.0650
 9804TIP3    H253608   1.667   2.036  11.536  1.2542 -3.3412 -0.1981
 9805TIP3   OH253609   8.257   4.694  13.821 -0.1125  0.6860 -0.2686
 9805TIP3    H153610   8.349   4.669  13.809 -0.6865 -0.8016 -1.9225
 9805TIP3    H253611   8.261   4.783  13.856  1.9506  0.5467 -0.0083
 9806TIP3   OH253612   2.652   3.794  11.473 -0.2310  0.6722 -0.6670
 9806TIP3    H153613   2.584   3.766  11.534  1.5118  1.5715  1.8531
 9806TIP3    H253614   2.613   3.867  11.425 -0.9677  1.4315  1.0123
 9807TIP3   OH253615   4.431   6.424  12.247 -0.2705  0.1895 -0.2838
 9807TIP3    H153616   4.519   6.402  12.277 -0.6685  1.3991  2.0065
 9807TIP3    H253617   4.385   6.339  12.244  0.5810 -0.2852 -0.1482
 9808TIP3   OH253618   2.565   8.362  12.957  0.3151 -0.3830  0.0318
 9808TIP3    H153619   2.541   8.433  13.016  0.3896 -1.0065  0.8285
 9808TIP3    H253620   2.482   8.316  12.940  0.1937  0.1288 -0.8160
 9809TIP3   OH253621   6.994   4.747  11.843  0.0594 -0.4691  0.5055
 9809TIP3    H153622   6.999   4.724  11.750  0.6503  2.0100 -0.1560
 9809TIP3    H253623   7.043   4.679  11.888 -0.6177 -1.9701 -0.9338
 9810TIP3   OH253624   4.454   3.342  11.757 -0.5592 -0.0719  0.1529
 9810TIP3    H153625   4.533   3.329  11.809 -0.3308  0.3389 -0.0879
 9810TIP3    H253626   4.464   3.429  11.718 -1.0898 -0.0473  0.0516
 9811TIP3   OH253627   7.764   7.068  12.201  0.3663  0.0531  0.2757
 9811TIP3    H153628   7.697   7.000  12.192 -0.9776  1.3337  0.1629
 9811TIP3    H253629   7.786   7.068  12.294 -1.0116  0.6727  0.6416
 9812TIP3   OH253630   3.777   3.302  12.228 -0.3848 -0.2307 -0.6606
 9812TIP3    H153631   3.850   3.265  12.278 -1.2109 -0.9413  0.0478
 9812TIP3    H253632   3.754   3.383  12.274 -0.0267  0.0159 -0.9085
 9813TIP3   OH253633   0.147   2.080  11.663  0.2279  0.0476  0.0974
 9813TIP3    H153634   0.185   2.026  11.593 -2.4906 -1.7043 -0.1648
 9813TIP3    H253635   0.164   2.029  11.743 -1.2717 -0.6315  0.0055
 9814TIP3   OH253636   6.865   4.815  11.361 -0.0642  0.1758 -0.3284
 9814TIP3    H153637   6.938   4.848  11.308 -0.9331  1.7965 -0.5531
 9814TIP3    H253638   6.817   4.893  11.389 -1.3984 -0.8241  0.2949
 9815TIP3   OH253639   1.350   8.389  12.546 -0.8427  0.1874  0.7575
 9815TIP3    H153640   1.345   8.376  12.452 -1.3686  1.0963  0.6470
 9815TIP3    H253641   1.324   8.480  12.559 -0.8911  0.0381  1.7914
 9816TIP3   OH253642   6.239   0.864  13.034  0.0380  0.2802  1.0050
 9816TIP3    H153643   6.268   0.773  13.038  2.8573  1.1277  2.3436
 9816TIP3    H253644   6.238   0.893  13.125  0.0251  1.8344  0.5427
 9817TIP3   OH253645   6.295   5.624  12.959  0.2368 -0.3394  0.6956
 9817TIP3    H153646   6.329   5.713  12.957 -0.1410 -0.2051 -0.0498
 9817TIP3    H253647   6.281   5.606  13.052 -2.7691  1.5867  0.7591
 9818TIP3   OH253648   0.111   5.401  13.732 -0.1835  0.0339 -0.3183
 9818TIP3    H153649   0.027   5.354  13.729 -0.1353 -0.0813  0.0640
 9818TIP3    H253650   0.160   5.366  13.657 -1.1634  1.4435 -1.6687
 9819TIP3   OH253651   0.385   0.586  11.236  0.1942 -0.1935  0.0118
 9819TIP3    H153652   0.398   0.565  11.328  2.9066  1.6643  0.1730
 9819TIP3    H253653   0.421   0.510  11.189  1.0006 -0.1365  0.5125
 9820TIP3   OH253654   1.103   7.028  13.549 -0.3840  0.2585  0.4326
 9820TIP3    H153655   1.151   6.959  13.503  0.6726  1.9979 -1.2271
 9820TIP3    H253656   1.156   7.047  13.626  1.5211  1.8616 -1.1594
 9821TIP3   OH253657   3.217   7.033  11.562  0.0668  0.1801 -0.3336
 9821TIP3    H153658   3.233   7.110  11.617  1.4032  0.0559 -0.5175
 9821TIP3    H253659   3.122   7.021  11.565  0.0450  0.4689  1.5660
 9822TIP3   OH253660   0.984   4.327  12.712  0.6328 -0.0892  0.7745
 9822TIP3    H153661   0.913   4.277  12.751  0.1914  0.1097  0.2336
 9822TIP3    H253662   0.972   4.318  12.618  1.8052 -0.7399  0.6613
 9823TIP3   OH253663   6.972   1.888  11.883 -0.4391 -0.1862  0.1196
 9823TIP3    H153664   6.926   1.902  11.800  0.7360 -2.5800 -1.0369
 9823TIP3    H253665   6.916   1.929  11.949 -1.8314  1.0644 -1.7333
 9824TIP3   OH253666   5.084   7.723  13.159  0.0369 -0.1980  0.0845
 9824TIP3    H153667   5.132   7.687  13.085 -0.8244 -1.9018  0.3105
 9824TIP3    H253668   4.992   7.710  13.136 -0.3321  1.7522  0.2715
 9825TIP3   OH253669   5.552   2.178  11.823 -0.1552 -0.4619 -0.1268
 9825TIP3    H153670   5.551   2.215  11.734  1.6357 -0.0597 -0.0192
 9825TIP3    H253671   5.479   2.116  11.824 -1.8706  1.4456 -1.0097
 9826TIP3   OH253672   0.683   3.833  11.573  0.9978  0.0015 -0.0940
 9826TIP3    H153673   0.709   3.925  11.564  2.0689 -0.2984 -0.2003
 9826TIP3    H253674   0.760   3.783  11.544  1.4492 -0.9425  2.4656
 9827TIP3   OH253675   2.947   1.155  11.955 -0.3001 -0.4562 -0.2803
 9827TIP3    H153676   2.867   1.170  11.904  0.2780  0.7755 -0.8709
 9827TIP3    H253677   2.935   1.068  11.995 -2.8668  0.5626  1.4110
 9828TIP3   OH253678   7.212   1.740  11.943  0.4166  0.5619  0.3413
 9828TIP3    H153679   7.135   1.787  11.911 -1.4368 -0.6704  2.6397
 9828TIP3    H253680   7.184   1.648  11.947  2.6262 -0.2182 -0.3722
 9829TIP3   OH253681   1.052   6.857  13.144 -0.3979 -0.4127 -0.3511
 9829TIP3    H153682   0.985   6.816  13.198 -0.1471 -0.6770 -0.2423
 9829TIP3    H253683   1.071   6.793  13.076  0.2516 -0.6290  0.0271
 9830TIP3   OH253684   3.478   1.137  12.961  0.0837  0.3312  0.0585
 9830TIP3    H153685   3.545   1.107  13.023  0.0521  1.9765  0.9508
 9830TIP3    H253686   3.503   1.098  12.877  1.4092 -0.1403  0.6512
 9831TIP3   OH253687   1.924   7.838  12.884 -0.3846 -0.7502 -0.0679
 9831TIP3    H153688   1.875   7.911  12.845  0.7234  0.8745  1.4410
 9831TIP3    H253689   1.870   7.809  12.958  0.5294  0.5645  1.1557
 9832TIP3   OH253690   7.073   3.005  11.788  0.3102 -0.1046 -0.9130
 9832TIP3    H153691   7.014   3.051  11.847  1.1812  0.4593 -0.4493
 9832TIP3    H253692   7.033   2.919  11.775 -1.8820  1.0603 -2.6055
 9833TIP3   OH253693   2.481   8.052  12.983  0.1513 -0.4355 -0.2495
 9833TIP3    H153694   2.507   8.093  13.066  0.4313 -0.7356 -0.1905
 9833TIP3    H253695   2.520   8.108  12.915  2.2427 -1.6859 -0.1659
 9834TIP3   OH253696   3.639   1.848  12.905  0.5609  0.9037  0.0972
 9834TIP3    H153697   3.585   1.772  12.887 -0.1615  1.6769 -1.1869
 9834TIP3    H253698   3.604   1.884  12.986 -0.1135  0.7436 -0.1193
 9835TIP3   OH253699   7.320   8.090  13.061 -0.3266  0.0852 -0.0425
 9835TIP3    H153700   7.293   8.153  13.128 -0.0918  1.6035 -1.3170
 9835TIP3    H253701   7.240   8.072  13.012  0.0527  1.3650 -1.2152
 9836TIP3   OH253702   7.114   3.103  12.133 -0.8128  0.5326  0.5737
 9836TIP3    H153703   7.199   3.090  12.175 -1.5370  2.2598  2.7333
 9836TIP3    H253704   7.117   3.191  12.097 -2.1108  1.1418  1.8560
 9837TIP3   OH253705   5.767   7.930  12.139 -0.1387  0.5894  0.1779
 9837TIP3    H153706   5.851   7.971  12.120 -0.2518  0.2566 -1.1343
 9837TIP3    H253707   5.734   7.902  12.053 -1.5522  0.6519  0.6827
 9838TIP3   OH253708   5.307   1.223  12.693 -0.1815  0.5820 -0.3241
 9838TIP3    H153709   5.212   1.232  12.692 -0.0702  2.2179  0.2231
 9838TIP3    H253710   5.324   1.151  12.754 -1.0476  0.8832  0.2966
 9839TIP3   OH253711   4.041   5.729  14.076 -0.6733 -0.3353  0.3234
 9839TIP3    H153712   4.135   5.711  14.064  0.1859  3.4138  0.3786
 9839TIP3    H253713   4.005   5.726  13.987 -0.1027  0.0286  0.0728
 9840TIP3   OH253714   3.159   2.728  12.115  0.4995  0.5457  0.5326
 9840TIP3    H153715   3.182   2.794  12.180 -2.0008 -0.4697  2.6894
 9840TIP3    H253716   3.166   2.645  12.163 -2.4172 -0.1666 -0.0336
 9841TIP3   OH253717   3.502   5.714  12.699  0.5051 -0.6392  0.0199
 9841TIP3    H153718   3.423   5.727  12.647  1.3372 -0.0278 -1.1148
 9841TIP3    H253719   3.481   5.640  12.756 -1.4927  0.5663  0.9552
 9842TIP3   OH253720   5.855   0.098  11.801 -0.1196  0.7934 -0.3459
 9842TIP3    H153721   5.864   0.120  11.708  1.0320 -1.1542 -0.7511
 9842TIP3    H253722   5.796   0.023  11.802 -0.5019  1.0985  0.5570
 9843TIP3   OH253723   4.396   3.975  12.131 -0.3543 -0.0101 -0.0023
 9843TIP3    H153724   4.374   4.049  12.187  4.5045  1.6238  0.1760
 9843TIP3    H253725   4.405   4.012  12.043 -1.4921 -1.2522 -0.6988
 9844TIP3   OH253726   6.880   5.508  12.898  0.4147 -0.3953 -0.2953
 9844TIP3    H153727   6.929   5.481  12.821 -0.0733  0.7298 -1.0242
 9844TIP3    H253728   6.788   5.494  12.875  0.2035  0.8931 -0.3277
 9845TIP3   OH253729   2.330   3.638  11.515 -0.1959 -0.0423 -0.2164
 9845TIP3    H153730   2.306   3.548  11.495 -1.6028  0.1106  0.6349
 9845TIP3    H253731   2.384   3.632  11.593 -1.8841 -0.0582  1.0035
 9846TIP3   OH253732   3.269   1.136  12.021 -0.5492  0.0272 -0.0694
 9846TIP3    H153733   3.336   1.101  12.080 -1.0649 -1.2645 -0.2063
 9846TIP3    H253734   3.214   1.191  12.078 -0.8675 -0.9640  0.6101
 9847TIP3   OH253735   4.834   7.731  13.374  0.7633  0.0046  0.1339
 9847TIP3    H153736   4.849   7.684  13.292  0.2163 -0.5322  0.3284
 9847TIP3    H253737   4.893   7.688  13.437  1.6741  0.8567 -0.1251
 9848TIP3   OH253738   1.688   1.086  12.525 -0.2161  0.3036  0.3179
 9848TIP3    H153739   1.681   1.166  12.473  0.2076  0.1212 -0.0250
 9848TIP3    H253740   1.601   1.046  12.519  0.3306 -0.6676 -1.8105
 9849TIP3   OH253741   4.500   6.441  11.677 -1.0030 -0.4459 -0.5858
 9849TIP3    H153742   4.549   6.365  11.646  0.1351 -0.3580  0.8986
 9849TIP3    H253743   4.523   6.448  11.770 -0.5061  2.1365 -0.8351
 9850TIP3   OH253744   7.529   5.145  12.863 -0.0947  0.0400  0.5106
 9850TIP3    H153745   7.592   5.091  12.815 -0.7068 -1.6137  1.4931
 9850TIP3    H253746   7.547   5.127  12.955 -0.5285  1.2894  0.8556
 9851TIP3   OH253747   1.121   8.105  12.900 -0.8496  0.6877 -0.1793
 9851TIP3    H153748   1.150   8.182  12.851 -0.5528 -1.1145 -3.0920
 9851TIP3    H253749   1.045   8.073  12.852  0.2524 -1.9553 -0.3550
 9852TIP3   OH253750   3.679   0.535  14.151 -1.1731 -0.1081  0.2210
 9852TIP3    H153751   3.722   0.563  14.070  0.7340  0.9662  1.5101
 9852TIP3    H253752   3.718   0.450  14.171  0.4032  0.8115  1.3264
 9853TIP3   OH253753   0.903   7.337  11.780 -0.4180 -0.2222 -0.2034
 9853TIP3    H153754   0.815   7.375  11.779 -0.9088 -1.3070 -0.0122
 9853TIP3    H253755   0.909   7.294  11.866  0.9383  1.2385  0.4882
 9854TIP3   OH253756   1.809   4.856  13.272  0.8493 -0.5561 -0.0111
 9854TIP3    H153757   1.791   4.818  13.358 -1.0786 -1.2378 -0.6590
 9854TIP3    H253758   1.830   4.948  13.290 -2.4496  0.1148  1.0456
 9855TIP3   OH253759   2.501   6.169  12.317 -0.5597  0.2918 -0.2199
 9855TIP3    H153760   2.407   6.165  12.337 -0.5827 -0.6583 -0.4822
 9855TIP3    H253761   2.529   6.255  12.350 -1.1315 -0.1571  1.4890
 9856TIP3   OH253762   3.981   3.481  12.479  0.0364  0.4660  0.2114
 9856TIP3    H153763   3.886   3.486  12.490  0.0090  0.6135 -0.0820
 9856TIP3    H253764   3.995   3.498  12.386  0.3876  0.9410  0.3475
 9857TIP3   OH253765   8.085   5.814  12.932 -0.2280 -0.6675  0.2706
 9857TIP3    H153766   8.003   5.765  12.925 -1.3566  1.1148  0.2493
 9857TIP3    H253767   8.138   5.783  12.859 -0.6995 -2.1590  0.5222
 9858TIP3   OH253768   2.540   1.327  12.612  0.1105 -0.2136  0.1065
 9858TIP3    H153769   2.630   1.325  12.578 -0.0529  0.2255 -0.3529
 9858TIP3    H253770   2.487   1.293  12.540 -0.0730 -0.6800  0.4561
 9859TIP3   OH253771   2.525   7.672  13.180 -0.0720 -0.1637  0.1584
 9859TIP3    H153772   2.439   7.637  13.157  0.1622  0.0154 -1.0909
 9859TIP3    H253773   2.533   7.752  13.126 -0.4943  1.7328  2.7233
 9860TIP3   OH253774   8.104   7.683  12.491 -0.6567 -0.2338  1.3219
 9860TIP3    H153775   8.064   7.631  12.560  1.2052 -1.1913  1.7655
 9860TIP3    H253776   8.113   7.771  12.528  0.5828 -0.8069  2.4588
 9861TIP3   OH253777   4.321   6.871  12.824  0.4623 -0.4577 -0.5726
 9861TIP3    H153778   4.342   6.868  12.731  0.9246  0.2984 -0.5004
 9861TIP3    H253779   4.243   6.926  12.830  1.0455  0.3658 -0.4193
 9862TIP3   OH253780   0.567   0.366  13.088  0.0470  0.1315 -0.1974
 9862TIP3    H153781   0.632   0.299  13.067 -0.3389 -0.4614  0.5045
 9862TIP3    H253782   0.483   0.322  13.084 -0.1466  0.3147  1.2366
 9863TIP3   OH253783   3.621   0.287  13.775 -0.2604 -0.4897  0.5166
 9863TIP3    H153784   3.540   0.338  13.772 -0.7861 -1.3144  0.1123
 9863TIP3    H253785   3.602   0.210  13.721  0.4785 -1.1366  1.1509
 9864TIP3   OH253786   4.503   4.278  11.674 -0.0966  0.1564  0.1921
 9864TIP3    H153787   4.536   4.329  11.599 -0.4557  2.0783  1.2801
 9864TIP3    H253788   4.452   4.340  11.725 -0.5594 -1.3242  1.6192
 9865TIP3   OH253789   0.356   4.969  13.445 -0.0000 -0.3910 -0.4989
 9865TIP3    H153790   0.281   4.918  13.475  1.6455 -1.8205  1.3828
 9865TIP3    H253791   0.320   5.027  13.378 -2.7957 -0.9368  0.4175
 9866TIP3   OH253792   3.639   5.105  12.482  0.6924 -0.3593 -0.3410
 9866TIP3    H153793   3.591   5.050  12.419  0.4227  1.6265 -2.0038
 9866TIP3    H253794   3.579   5.178  12.500  1.8289  0.5116  0.0707
 9867TIP3   OH253795   3.825   4.530  12.779  0.6147 -0.2066  0.3401
 9867TIP3    H153796   3.809   4.591  12.706 -2.0954  0.6560  1.5485
 9867TIP3    H253797   3.913   4.554  12.810  0.9878  0.7880 -1.3299
 9868TIP3   OH253798   7.940   4.541  11.550 -0.1674 -0.6071 -0.0425
 9868TIP3    H153799   7.984   4.462  11.581 -1.8457 -1.1943  0.9515
 9868TIP3    H253800   7.909   4.518  11.463  2.6954  0.3311 -1.4486
 9869TIP3   OH253801   6.273   5.281  12.329  0.3010 -0.5100  0.2924
 9869TIP3    H153802   6.309   5.223  12.396 -1.9611 -2.2384  0.1289
 9869TIP3    H253803   6.179   5.279  12.343 -0.0974  0.5890 -1.7771
 9870TIP3   OH253804   5.448   7.206  13.577 -0.4071 -0.2298  0.0252
 9870TIP3    H153805   5.543   7.204  13.588 -0.5147 -1.9765  0.9125
 9870TIP3    H253806   5.431   7.290  13.534  1.9548 -1.6382 -4.2666
 9871TIP3   OH253807   0.911   2.973  13.213  0.1303 -0.1376  0.6521
 9871TIP3    H153808   0.817   2.970  13.195  0.2314  1.2341 -0.2414
 9871TIP3    H253809   0.932   2.884  13.242 -1.8814  0.1266  3.3302
 9872TIP3   OH253810   7.104   6.377  12.279 -0.3802  0.1617  0.2630
 9872TIP3    H153811   7.026   6.355  12.229 -0.4372  0.2341  0.3188
 9872TIP3    H253812   7.132   6.294  12.319 -1.9696  0.5802  2.4392
 9873TIP3   OH253813   2.772   8.039  12.490 -0.2532 -0.1381  0.2006
 9873TIP3    H153814   2.743   8.122  12.525  0.9624  0.2509  0.3503
 9873TIP3    H253815   2.753   8.044  12.396 -1.0147 -0.0729  0.3541
 9874TIP3   OH253816   2.349   4.165  12.470 -0.1083  0.7163 -0.2801
 9874TIP3    H153817   2.280   4.209  12.521 -1.3667 -1.3421 -0.1149
 9874TIP3    H253818   2.311   4.081  12.446  2.0286 -0.0944 -1.0291
 9875TIP3   OH253819   3.385   4.098  13.902  0.3251  0.1515 -0.1608
 9875TIP3    H153820   3.312   4.044  13.931 -0.2667  1.3814  0.7253
 9875TIP3    H253821   3.412   4.059  13.819 -0.5110 -1.0754  0.1132
 9876TIP3   OH253822   5.315   8.396  13.868  0.8752  0.3228  0.0514
 9876TIP3    H153823   5.292   8.329  13.804  1.2234  0.9150 -0.7062
 9876TIP3    H253824   5.257   8.378  13.943 -0.1845  0.1687 -0.7704
 9877TIP3   OH253825   7.426   4.010  12.157  0.2940 -0.0471  0.5446
 9877TIP3    H153826   7.431   3.994  12.063 -0.0476  2.0474  0.1190
 9877TIP3    H253827   7.517   4.016  12.186  0.6336  4.0138 -0.6572
 9878TIP3   OH253828   4.661   2.089  13.113 -0.1712 -0.8205  0.1687
 9878TIP3    H153829   4.594   2.020  13.119  0.0833 -1.1448 -0.5498
 9878TIP3    H253830   4.633   2.143  13.039 -1.6808  1.3186  2.1436
 9879TIP3   OH253831   5.234   6.367  13.064 -0.0616  0.7920 -0.0661
 9879TIP3    H153832   5.258   6.421  13.139 -0.4525  1.9777 -0.7727
 9879TIP3    H253833   5.158   6.410  13.026 -1.1172 -0.8901 -0.0009
 9880TIP3   OH253834   2.311   7.479  12.471  0.1377 -0.1699  0.0871
 9880TIP3    H153835   2.340   7.400  12.425  0.8743  0.7878 -1.1567
 9880TIP3    H253836   2.222   7.458  12.499 -0.2163 -0.9595 -1.4752
 9881TIP3   OH253837   0.358   2.163  12.585  0.0586  0.3341  0.2536
 9881TIP3    H153838   0.283   2.216  12.558  0.0616  1.0936  1.6196
 9881TIP3    H253839   0.323   2.074  12.593 -0.6504  0.6395  0.6629
 9882TIP3   OH253840   4.676   7.087  11.808  0.4517  0.6522 -0.2736
 9882TIP3    H153841   4.762   7.099  11.847 -0.2231  1.3938  1.0312
 9882TIP3    H253842   4.658   6.993  11.817  1.2394  0.4382 -0.8457
 9883TIP3   OH253843   2.871   3.259  11.748 -0.1972  0.4283 -0.1056
 9883TIP3    H153844   2.873   3.345  11.706  1.7790 -0.2127 -1.4549
 9883TIP3    H253845   2.932   3.267  11.822  1.6344 -0.3332 -1.4624
 9884TIP3   OH253846   7.259   5.200  12.309 -0.4018 -0.6702 -0.0270
 9884TIP3    H153847   7.212   5.165  12.384  1.1629 -0.2847  1.1817
 9884TIP3    H253848   7.243   5.136  12.239 -2.0694 -0.9149  0.5240
 9885TIP3   OH253849   7.517   1.767  12.820  0.0083 -0.1530  0.2562
 9885TIP3    H153850   7.534   1.841  12.877 -0.0846 -1.0186  1.4510
 9885TIP3    H253851   7.442   1.722  12.861  0.5870 -1.3672  0.0400
 9886TIP3   OH253852   6.428   0.297  12.698 -0.3853 -0.6895 -0.2902
 9886TIP3    H153853   6.438   0.235  12.771  1.1300  0.1823  0.2979
 9886TIP3    H253854   6.375   0.368  12.734  1.0025  0.1071  0.2407
 9887TIP3   OH253855   4.854   0.929  11.860 -0.1305  0.6701 -0.0420
 9887TIP3    H153856   4.804   1.004  11.893  2.2597  1.4836  2.0615
 9887TIP3    H253857   4.884   0.884  11.939  0.6200 -1.0230 -1.2385
 9888TIP3   OH253858   5.305   8.212  11.874 -0.0997 -0.1726  0.5051
 9888TIP3    H153859   5.326   8.296  11.835  2.0191 -1.2165 -0.7875
 9888TIP3    H253860   5.281   8.232  11.964  1.3425  1.7323  0.5225
 9889TIP3   OH253861   2.908   7.880  12.265  0.1699  0.2463 -0.0964
 9889TIP3    H153862   2.953   7.850  12.344  1.0300 -0.3244 -0.7819
 9889TIP3    H253863   2.926   7.974  12.260 -2.4162  0.9560  1.9908
 9890TIP3   OH253864   8.361   6.265  13.107 -0.8483 -0.2965 -0.2344
 9890TIP3    H153865   8.281   6.259  13.054 -0.6203  1.6412 -0.8740
 9890TIP3    H253866   8.392   6.355  13.093  2.4298 -1.4756 -1.4438
 9891TIP3   OH253867   7.696   0.752  11.760  0.4813  0.0548 -0.2066
 9891TIP3    H153868   7.727   0.765  11.850  0.7654  1.2813 -0.4623
 9891TIP3    H253869   7.707   0.838  11.718 -2.2160  0.2719 -0.6397
 9892TIP3   OH253870   1.227   6.456  12.368 -0.1795  0.1716  0.1599
 9892TIP3    H153871   1.302   6.444  12.426 -0.0088 -0.6752 -0.2124
 9892TIP3    H253872   1.262   6.506  12.294 -0.2029  0.5658  0.4169
 9893TIP3   OH253873   0.533   2.030  13.844  0.3111  0.1570 -0.0945
 9893TIP3    H153874   0.565   2.015  13.755 -1.0254 -0.7311 -0.4557
 9893TIP3    H253875   0.446   1.989  13.846 -0.1947  1.1915  1.2703
 9894TIP3   OH253876   2.326   7.868  11.681  0.4963  0.5210  0.4793
 9894TIP3    H153877   2.413   7.865  11.720  1.7785  0.8644 -2.1825
 9894TIP3    H253878   2.310   7.960  11.663  0.2425  0.3155 -0.4117
 9895TIP3   OH253879   7.818   7.893  12.053  0.0527  0.4393 -0.8798
 9895TIP3    H153880   7.759   7.840  12.106 -0.2738  0.3383 -1.3408
 9895TIP3    H253881   7.899   7.896  12.104  0.2008 -0.8161 -1.0036
 9896TIP3   OH253882   6.473   2.935  11.652 -0.0426 -0.2335 -0.2785
 9896TIP3    H153883   6.507   2.922  11.563  2.6656  2.0949  0.2633
 9896TIP3    H253884   6.518   2.868  11.704  0.0135 -0.2261 -0.3166
 9897TIP3   OH253885   8.440   0.116  13.196 -0.0894  0.3010  0.3187
 9897TIP3    H153886   8.429   0.205  13.162 -0.3389  0.6770  1.3366
 9897TIP3    H253887   8.410   0.121  13.287  0.7535 -0.6128  0.6715
 9898TIP3   OH253888   0.237   2.424  12.335  0.0190  0.6459 -0.6901
 9898TIP3    H153889   0.225   2.397  12.244  0.3708 -0.3980 -0.4357
 9898TIP3    H253890   0.331   2.414  12.351 -0.3485 -1.4361  0.4593
 9899TIP3   OH253891   7.994   1.060  11.419 -0.3734  0.1130  0.3208
 9899TIP3    H153892   8.060   1.032  11.355 -0.7624  0.5327 -0.2742
 9899TIP3    H253893   7.967   1.147  11.389 -2.1999 -0.6060 -0.2674
 9900TIP3   OH253894   6.952   3.594  11.305  0.8338 -0.0008  0.3532
 9900TIP3    H153895   6.914   3.664  11.359 -0.7306 -1.1450  0.8092
 9900TIP3    H253896   6.909   3.603  11.220 -1.0211 -1.6476  1.0379
 9901TIP3   OH253897   7.187   5.217  13.050 -0.0756  0.2468 -0.0429
 9901TIP3    H153898   7.228   5.253  13.128 -1.3642  0.4562  0.5525
 9901TIP3    H253899   7.095   5.242  13.056 -0.5389 -1.1310 -0.8064
 9902TIP3   OH253900   2.082   3.078  12.233 -0.3816 -0.2157  0.0812
 9902TIP3    H153901   2.144   3.143  12.201  0.5780 -1.0811  0.1430
 9902TIP3    H253902   1.996   3.120  12.224  0.1113  0.6015 -0.9833
 9903TIP3   OH253903   7.270   6.944  11.598  0.1747 -0.2935 -0.2204
 9903TIP3    H153904   7.309   7.031  11.589 -0.3188  0.0359  0.6495
 9903TIP3    H253905   7.189   6.948  11.547 -0.2073  0.0029  0.3940
 9904TIP3   OH253906   3.396   1.717  12.600  0.0146  0.0670 -0.3742
 9904TIP3    H153907   3.341   1.639  12.594  0.0093  0.1167 -1.0664
 9904TIP3    H253908   3.470   1.690  12.655 -0.3363 -0.2150 -0.0390
 9905TIP3   OH253909   4.466   3.287  13.270  0.2316 -0.0204  0.1933
 9905TIP3    H153910   4.540   3.254  13.322  0.0376 -1.6976 -0.5405
 9905TIP3    H253911   4.398   3.307  13.335  0.5699 -0.5330  0.7168
 9906TIP3   OH253912   5.873   2.053  12.423  0.7753  0.9284  0.2309
 9906TIP3    H153913   5.948   2.106  12.448  1.3183  0.5055 -0.4786
 9906TIP3    H253914   5.873   2.054  12.327  1.4850 -1.2735  0.1499
 9907TIP3   OH253915   0.320   1.751  12.498  0.0066 -0.1151 -0.4834
 9907TIP3    H153916   0.267   1.824  12.528  0.7714  0.1698  0.2188
 9907TIP3    H253917   0.280   1.674  12.539 -0.8681 -0.1296 -1.3164
 9908TIP3   OH253918   7.025   3.806  12.648  0.1704 -0.0494 -0.3704
 9908TIP3    H153919   7.098   3.767  12.599  0.0558 -0.4310 -0.2456
 9908TIP3    H253920   6.965   3.733  12.663  1.3054 -0.5374  2.3976
 9909TIP3   OH253921   2.314   3.091  12.441  0.1041  0.0437 -0.1310
 9909TIP3    H153922   2.328   3.158  12.374  1.3624  1.0994  1.1128
 9909TIP3    H253923   2.340   3.133  12.523 -1.7152 -1.0858  1.1075
 9910TIP3   OH253924   8.313   5.453  13.169 -0.2803 -0.0894  0.0159
 9910TIP3    H153925   8.256   5.376  13.168  1.2143 -1.2414 -0.1377
 9910TIP3    H253926   8.334   5.469  13.078 -0.1668  0.1957  0.0899
 9911TIP3   OH253927   6.651   4.972  11.850  0.4106 -0.5565  0.6709
 9911TIP3    H153928   6.709   5.033  11.895  1.9201 -2.6065  1.6923
 9911TIP3    H253929   6.573   4.967  11.905 -1.0221  2.4460 -0.8639
 9912TIP3   OH253930   1.440   5.766  12.139 -0.6551 -0.0453 -0.4496
 9912TIP3    H153931   1.410   5.725  12.220  0.5936 -0.4587 -0.1655
 9912TIP3    H253932   1.498   5.701  12.099 -2.1778 -0.3549 -2.3287
 9913TIP3   OH253933   4.705   6.767  12.440  0.1521  0.0391 -0.3599
 9913TIP3    H153934   4.713   6.718  12.521  0.7119 -0.6401 -0.8242
 9913TIP3    H253935   4.625   6.734  12.399  1.0836 -1.2643 -1.1811
 9914TIP3   OH253936   6.997   5.064  13.346  0.1535  0.1729  0.2675
 9914TIP3    H153937   7.038   5.069  13.433  0.9445  0.0291 -0.0853
 9914TIP3    H253938   6.972   5.154  13.326  1.8616  0.5789 -0.2256
 9915TIP3   OH253939   3.198   4.074  12.210 -0.1879  0.5383 -0.1452
 9915TIP3    H153940   3.202   4.003  12.145  1.3293  0.4967 -0.0570
 9915TIP3    H253941   3.251   4.144  12.172  0.9084  0.4354  1.1157
 9916TIP3   OH253942   6.392   8.116  12.182  0.3599  0.6331  0.4475
 9916TIP3    H153943   6.474   8.068  12.175  0.4060  0.3597  2.4946
 9916TIP3    H253944   6.417   8.208  12.180  0.4433  0.6147 -1.4800
 9917TIP3   OH253945   7.366   3.299  11.522 -0.7790  0.8339  0.4731
 9917TIP3    H153946   7.334   3.223  11.570  1.8779 -0.2696  0.6826
 9917TIP3    H253947   7.289   3.332  11.475 -2.0384 -1.9963  0.3412
 9918TIP3   OH253948   2.118   5.212  13.327  0.3972 -0.5584 -0.1339
 9918TIP3    H153949   2.158   5.127  13.347 -0.8691 -1.2087 -0.3015
 9918TIP3    H253950   2.170   5.275  13.378  0.8223 -1.5198  0.6565
 9919TIP3   OH253951   0.328   5.966  12.794 -0.1258  0.1553 -0.1271
 9919TIP3    H153952   0.339   5.965  12.890  1.3281  0.9445 -0.2523
 9919TIP3    H253953   0.283   5.884  12.774 -2.5609  1.0167  1.4416
 9920TIP3   OH253954   5.345   2.801  13.561  0.1265  0.0247  0.2261
 9920TIP3    H153955   5.285   2.770  13.493 -1.1201  0.2830  1.1719
 9920TIP3    H253956   5.305   2.772  13.643  0.7614  1.0979  0.9355
 9921TIP3   OH253957   0.964   2.202  12.992  0.4965 -0.0893  0.8235
 9921TIP3    H153958   0.926   2.207  13.080 -0.5013 -1.9521  0.5569
 9921TIP3    H253959   0.891   2.220  12.933  0.2466 -2.3075  0.3388
 9922TIP3   OH253960   1.525   3.536  13.144  0.0269 -0.2750  1.2364
 9922TIP3    H153961   1.558   3.542  13.234 -0.9579  0.5371  1.5654
 9922TIP3    H253962   1.460   3.466  13.147  0.0688 -0.3183  1.1292
 9923TIP3   OH253963   1.272   6.961  12.239  0.0795  0.2873 -0.1560
 9923TIP3    H153964   1.235   7.042  12.275 -1.0146  0.3458 -1.3401
 9923TIP3    H253965   1.204   6.927  12.182  1.3364 -0.3571 -1.3359
 9924TIP3   OH253966   0.987   3.221  11.937  0.4273  0.0860  0.0762
 9924TIP3    H153967   1.065   3.211  11.991 -0.2099 -0.2304  0.9581
 9924TIP3    H253968   1.020   3.254  11.853  1.7384 -1.9110 -0.2616
 9925TIP3   OH253969   0.313   1.902  13.787  0.5980  0.3096 -0.1734
 9925TIP3    H153970   0.223   1.883  13.813  0.1475  1.7462 -0.6010
 9925TIP3    H253971   0.324   1.856  13.704 -0.1924  1.1557 -0.7737
 9926TIP3   OH253972   1.372   4.037  11.590 -0.6938 -0.2039  0.0922
 9926TIP3    H153973   1.340   4.110  11.536  1.2181 -0.4006 -1.4128
 9926TIP3    H253974   1.394   4.078  11.674 -2.4325  0.3643  0.3107
 9927TIP3   OH253975   3.352   0.351  13.735  0.5147  0.0683 -0.0760
 9927TIP3    H153976   3.272   0.334  13.685  0.7547 -0.2779 -0.3534
 9927TIP3    H253977   3.334   0.316  13.822  0.1224  0.5995  0.0622
 9928TIP3   OH253978   4.779   0.280  11.878 -0.0618 -0.2181 -0.3029
 9928TIP3    H153979   4.820   0.293  11.963  2.2468  1.4675 -1.5786
 9928TIP3    H253980   4.692   0.246  11.899 -0.2503  1.7550  2.8101
 9929TIP3   OH253981   5.075   6.510  11.992  0.5650  0.0421 -0.1748
 9929TIP3    H153982   5.153   6.550  11.952  1.2034 -0.9861 -0.0071
 9929TIP3    H253983   5.104   6.485  12.080 -0.2313  0.4660  0.2102
 9930TIP3   OH253984   4.851   4.875  11.926 -0.3967  0.0762  0.0251
 9930TIP3    H153985   4.809   4.884  12.011 -1.0139  1.0128 -0.3622
 9930TIP3    H253986   4.930   4.929  11.932 -0.9424  0.9306 -0.3000
 9931TIP3   OH253987   7.055   0.550  11.570  0.0384  0.3551 -1.1122
 9931TIP3    H153988   6.984   0.548  11.634  1.4101  3.2183  0.7010
 9931TIP3    H253989   7.111   0.476  11.594  0.7886  1.6619  1.4220
 9932TIP3   OH253990   4.943   3.984  11.492 -0.2907 -0.4057  0.0100
 9932TIP3    H153991   5.006   3.999  11.421  0.3291  2.6242  1.0672
 9932TIP3    H253992   4.947   4.063  11.545 -1.3857 -2.1819  2.9738
 9933TIP3   OH253993   6.952   4.315  12.237 -0.2213 -0.1075  0.1277
 9933TIP3    H153994   6.870   4.336  12.193  1.1035  1.0233 -1.9303
 9933TIP3    H253995   7.018   4.315  12.168  1.3250 -2.5835  1.4280
 9934TIP3   OH253996   0.047   3.001  12.418 -1.0849  0.4182  0.1376
 9934TIP3    H153997  -0.007   3.075  12.445 -3.0225 -0.6775 -0.5511
 9934TIP3    H253998   0.086   3.028  12.335 -1.1783  0.9252  0.2563
 9935TIP3   OH253999   3.450   0.558  12.950  0.3139 -0.5020  0.1750
 9935TIP3    H154000   3.385   0.489  12.964 -0.6909  0.4932  0.4719
 9935TIP3    H254001   3.531   0.510  12.928 -0.7214 -1.7418 -1.1057
 9936TIP3   OH254002   3.599   0.604  12.296 -0.3949  0.5439 -0.4350
 9936TIP3    H154003   3.635   0.538  12.237  1.3521  0.4701  0.6443
 9936TIP3    H254004   3.582   0.556  12.377 -0.0206  1.2201  0.0490
 9937TIP3   OH254005   2.347   1.896  11.965  0.3818 -0.4201 -0.0813
 9937TIP3    H154006   2.409   1.846  12.018 -0.3871 -0.5320  0.7440
 9937TIP3    H254007   2.351   1.985  12.001  0.2808 -0.3634 -0.2108
 9938TIP3   OH254008   7.874   2.664  12.662 -0.0682 -0.4544  0.2432
 9938TIP3    H154009   7.834   2.691  12.745  3.0688  2.4993  1.0439
 9938TIP3    H254010   7.947   2.608  12.689  0.8652  0.3799 -0.4751
 9939TIP3   OH254011   1.945   0.932  13.657 -0.0372 -0.9457 -0.0990
 9939TIP3    H154012   2.006   0.900  13.591  1.3190  0.6014  0.3519
 9939TIP3    H254013   1.990   1.005  13.698 -1.4482 -0.9466  1.5566
 9940TIP3   OH254014   1.874   1.004  12.726  0.6532  0.3621  0.0667
 9940TIP3    H154015   1.834   0.926  12.764  0.5798  1.0953  1.6019
 9940TIP3    H254016   1.812   1.033  12.659 -1.1212  1.0570  1.8953
 9941TIP3   OH254017   6.241   4.202  11.255 -0.0146  0.5154  0.2181
 9941TIP3    H154018   6.313   4.142  11.237 -0.4614  0.1750 -0.5012
 9941TIP3    H254019   6.187   4.156  11.319  0.1830  0.5984  0.4482
 9942TIP3   OH254020   2.620   7.703  11.978 -0.7166  0.0283  0.0020
 9942TIP3    H154021   2.596   7.636  11.915  0.8453 -0.3348 -0.2465
 9942TIP3    H254022   2.714   7.716  11.964 -0.7133  1.2428  1.0186
 9943TIP3   OH254023   1.844   6.086  12.143  0.0875 -0.5587 -0.3176
 9943TIP3    H154024   1.756   6.059  12.117 -0.4646  2.1061 -1.4995
 9943TIP3    H254025   1.890   6.100  12.061  1.2624 -0.7377  0.2881
 9944TIP3   OH254026   0.770   2.186  12.793  0.3114  0.0113 -0.4054
 9944TIP3    H154027   0.680   2.185  12.761  0.7067 -1.1454 -1.5381
 9944TIP3    H254028   0.815   2.247  12.736  0.2665  0.5732  0.1471
 9945TIP3   OH254029   5.454   0.606  12.211  0.0684 -0.5464  0.0017
 9945TIP3    H154030   5.457   0.650  12.126  0.3476 -1.2660 -0.3689
 9945TIP3    H254031   5.490   0.670  12.272 -0.8629  0.2799 -0.2751
 9946TIP3   OH254032   5.753   4.641  13.482  0.2138 -0.0583 -0.0391
 9946TIP3    H154033   5.712   4.560  13.512  0.3120 -0.6095 -1.3596
 9946TIP3    H254034   5.681   4.691  13.443  0.4832 -0.2780 -0.8145
 9947TIP3   OH254035   1.880   8.446  13.004 -0.1128  0.1862  0.3229
 9947TIP3    H154036   1.842   8.421  12.920  0.1322 -1.0856  0.5688
 9947TIP3    H254037   1.966   8.482  12.981  0.7735 -1.9035  0.1023
 9948TIP3   OH254038   2.331   6.853  13.441 -0.0002  0.0208 -0.4102
 9948TIP3    H154039   2.279   6.826  13.365 -0.8956  0.6971 -0.0516
 9948TIP3    H254040   2.271   6.847  13.515  0.5343  0.4646  0.0738
 9949TIP3   OH254041   0.258   4.988  11.999  0.7379 -0.0470 -0.1736
 9949TIP3    H154042   0.314   5.039  11.939 -1.5818  0.4642 -2.0802
 9949TIP3    H254043   0.190   5.050  12.024  0.1103 -1.1045  0.7535
 9950TIP3   OH254044   4.659   2.223  13.497 -0.0984  0.1404 -0.3247
 9950TIP3    H154045   4.677   2.140  13.542 -0.4647 -0.1295 -0.6741
 9950TIP3    H254046   4.565   2.221  13.480 -0.2023  0.8668  0.1311
 9951TIP3   OH254047   3.757   1.771  13.580 -0.4365 -0.2232 -0.7396
 9951TIP3    H154048   3.796   1.817  13.506  0.8655 -1.3259 -0.7809
 9951TIP3    H254049   3.813   1.695  13.593 -0.6660 -0.1025  1.3312
 9952TIP3   OH254050   8.416   5.986  12.305 -0.0362  0.0697  0.2382
 9952TIP3    H154051   8.444   5.971  12.395 -0.6787 -0.0453  0.4224
 9952TIP3    H254052   8.340   6.044  12.312 -1.3200 -1.4976 -0.0862
 9953TIP3   OH254053   5.164   8.237  12.575  0.1711  0.2574  0.0424
 9953TIP3    H154054   5.230   8.302  12.599  1.2160 -0.8721  0.3669
 9953TIP3    H254055   5.195   8.201  12.492 -0.3820  0.1692 -0.1283
 9954TIP3   OH254056   3.986   6.534  11.475 -0.2914 -0.4232 -0.2957
 9954TIP3    H154057   4.052   6.492  11.420 -0.0701 -0.1086 -0.2705
 9954TIP3    H254058   3.995   6.627  11.457 -2.1118 -0.4740 -1.8675
 9955TIP3   OH254059   7.854   5.049  13.054 -0.0486  0.4976 -0.0101
 9955TIP3    H154060   7.766   5.081  13.076 -1.1142 -0.7681 -2.0392
 9955TIP3    H254061   7.850   4.955  13.074 -0.3306 -0.2458 -3.0053
 9956TIP3   OH254062   6.987   4.867  12.236  0.3521 -0.3519  0.5090
 9956TIP3    H154063   7.061   4.909  12.193  0.9052  0.5598  2.2439
 9956TIP3    H254064   7.014   4.775  12.246  0.4252 -0.4611 -0.5447
 9957TIP3   OH254065   7.963   3.444  11.912  0.2068  0.3675 -0.2131
 9957TIP3    H154066   7.878   3.488  11.923 -1.0447 -1.3694 -2.1617
 9957TIP3    H254067   7.983   3.453  11.819  0.6670 -1.7704 -0.3620
 9958TIP3   OH254068   7.230   7.209  12.403 -0.1870  0.3295 -0.6156
 9958TIP3    H154069   7.255   7.295  12.436 -0.7192 -0.6707  2.7741
 9958TIP3    H254070   7.291   7.193  12.330  0.9373  2.8860 -0.3551
 9959TIP3   OH254071   3.785   8.174  11.819  0.0332  0.1554 -0.2850
 9959TIP3    H154072   3.727   8.098  11.832  1.5090 -0.8759  0.6069
 9959TIP3    H254073   3.856   8.140  11.765 -0.2239  1.4443 -1.4999
 9960TIP3   OH254074   5.326   2.210  12.792 -0.4162 -0.2973 -0.1801
 9960TIP3    H154075   5.392   2.180  12.855 -0.5611 -0.2225  0.0086
 9960TIP3    H254076   5.251   2.236  12.846 -1.1522 -1.7375 -0.4644
 9961TIP3   OH254077   7.343   3.361  12.227  0.2357 -0.6457 -0.3780
 9961TIP3    H154078   7.276   3.411  12.179  1.0340  0.4347 -0.3996
 9961TIP3    H254079   7.293   3.296  12.276 -1.0327  1.1998  0.9410
 9962TIP3   OH254080   3.399   3.671  12.216 -0.3922  0.4130  0.3725
 9962TIP3    H154081   3.407   3.761  12.247  0.0725  0.0549  1.3531
 9962TIP3    H254082   3.489   3.639  12.214 -0.6116 -0.2507  0.7538
 9963TIP3   OH254083   2.022   8.203  12.256  0.3514 -0.4916 -0.7924
 9963TIP3    H154084   2.003   8.254  12.178 -1.2280 -0.8500 -0.6673
 9963TIP3    H254085   2.008   8.263  12.329 -0.9455 -0.9054 -0.6734
 9964TIP3   OH254086   7.588   8.386  13.476  0.7042 -0.0011 -0.1176
 9964TIP3    H154087   7.545   8.368  13.559 -0.6626 -0.1650 -0.8366
 9964TIP3    H254088   7.634   8.305  13.454  1.3674  0.1561  0.6232
 9965TIP3   OH254089   8.020   3.265  12.391  1.1374  0.0574 -0.2206
 9965TIP3    H154090   8.017   3.257  12.295  0.5792  0.8564 -0.2748
 9965TIP3    H254091   7.992   3.178  12.422 -1.1576  0.5142 -0.8051
 9966TIP3   OH254092   3.996   1.831  13.816 -1.0513  0.3406  0.1572
 9966TIP3    H154093   3.928   1.795  13.874  0.5419 -0.3542  1.6765
 9966TIP3    H254094   3.981   1.925  13.818 -0.6433  0.4211  2.3081
 9967TIP3   OH254095   2.627   7.464  12.609 -0.0417 -0.0995  0.8574
 9967TIP3    H154096   2.674   7.381  12.598  0.0978  0.1325 -0.4182
 9967TIP3    H254097   2.543   7.451  12.566  0.3973  0.7552 -0.3034
 9968TIP3   OH254098   3.423   1.091  13.612 -0.1423 -0.9468 -0.4871
 9968TIP3    H154099   3.483   1.080  13.538  0.7567 -1.2505  0.2677
 9968TIP3    H254100   3.395   1.002  13.633 -0.7839 -0.8160 -0.7614
 9969TIP3   OH254101   8.017   4.792  12.355 -0.3620  0.2225 -0.1343
 9969TIP3    H154102   7.975   4.740  12.287  0.0189  0.7993 -0.8309
 9969TIP3    H254103   8.093   4.740  12.382  0.6896  0.8999 -1.6591
 9970TIP3   OH254104   0.977   7.596  13.131  0.2259 -0.9364 -0.0258
 9970TIP3    H154105   1.002   7.615  13.041 -2.6184  1.7426 -0.4259
 9970TIP3    H254106   0.920   7.520  13.125 -1.1640  0.1096 -0.8090
 9971TIP3   OH254107   5.153   1.088  13.715 -0.1495  0.0066  0.7362
 9971TIP3    H154108   5.248   1.097  13.719 -0.2680  1.2082  1.2387
 9971TIP3    H254109   5.121   1.144  13.785 -1.1568 -1.9660  1.9519
 9972TIP3   OH254110   3.757   7.643  13.026 -0.8000  0.3303  0.2464
 9972TIP3    H154111   3.726   7.576  13.087 -2.1787  0.9535  0.2566
 9972TIP3    H254112   3.816   7.596  12.967 -1.1284 -0.7201  0.7369
 9973TIP3   OH254113   5.697   6.098  11.683 -0.5270  0.3171  0.2705
 9973TIP3    H154114   5.698   6.022  11.625  2.6929 -2.7266  3.7008
 9973TIP3    H254115   5.614   6.090  11.731 -0.4368 -0.7775  0.2661
 9974TIP3   OH254116   4.110   1.276  13.193  0.5541  0.3443  0.3457
 9974TIP3    H154117   4.203   1.286  13.177  0.5092 -0.2900 -0.3711
 9974TIP3    H254118   4.094   1.182  13.185 -0.0347  0.3675  1.1163
 9975TIP3   OH254119   8.438   0.569  12.619 -0.1284 -0.1424  0.1551
 9975TIP3    H154120   8.369   0.563  12.685 -0.1655 -2.6053  0.0125
 9975TIP3    H254121   8.441   0.661  12.594 -2.5067  0.2473  1.0820
 9976TIP3   OH254122   5.957   3.350  11.708 -0.5880  0.5562 -0.3965
 9976TIP3    H154123   6.012   3.390  11.641 -0.8762 -0.4607 -1.2703
 9976TIP3    H254124   5.998   3.266  11.727 -0.4246  0.8870  0.8438
 9977TIP3   OH254125   5.206   3.665  13.092 -0.4629 -0.1062 -0.0755
 9977TIP3    H154126   5.125   3.714  13.081 -1.0104 -0.5853  1.5190
 9977TIP3    H254127   5.233   3.684  13.182  0.2034 -1.4201  0.0211
 9978TIP3   OH254128   8.084   6.010  11.727  0.3295 -0.1597 -0.1268
 9978TIP3    H154129   8.031   6.087  11.747 -1.2183 -1.0107 -0.7623
 9978TIP3    H254130   8.173   6.034  11.751 -0.4667  1.0429  1.7484
 9979TIP3   OH254131   7.059   3.192  13.229 -0.7641 -0.4061  0.3212
 9979TIP3    H154132   7.014   3.120  13.272 -0.8343  0.8945  2.5938
 9979TIP3    H254133   7.030   3.270  13.277 -0.2913  1.0828 -1.6969
 9980TIP3   OH254134   6.573   6.563  12.559 -0.1847  0.3472  0.0500
 9980TIP3    H154135   6.517   6.637  12.582 -0.3416  0.0483  0.6644
 9980TIP3    H254136   6.645   6.601  12.508  0.7877  1.2371  1.9682
 9981TIP3   OH254137   3.236   8.277  11.992 -0.4115 -0.0702 -0.3334
 9981TIP3    H154138   3.283   8.353  12.027  0.8641 -0.5946 -0.8555
 9981TIP3    H254139   3.199   8.308  11.909 -0.1676  0.0617 -0.3935
 9982TIP3   OH254140   6.785   4.968  13.771  0.6207  0.4774 -0.3189
 9982TIP3    H154141   6.841   4.907  13.818 -1.5344 -0.8979  0.6284
 9982TIP3    H254142   6.764   5.036  13.835 -0.2098  0.0054 -0.0705
 9983TIP3   OH254143   7.815   4.450  11.882  0.3101 -0.3687 -0.0048
 9983TIP3    H154144   7.791   4.379  11.941  0.2207  1.0050  1.7036
 9983TIP3    H254145   7.744   4.454  11.817 -0.1530 -1.2143  0.4457
 9984TIP3   OH254146   1.698   5.648  12.024 -0.3692 -0.0555 -0.5707
 9984TIP3    H154147   1.762   5.628  12.092  0.1013  0.2867 -0.9145
 9984TIP3    H254148   1.689   5.743  12.026 -1.3218 -0.1362 -0.1167
 9985TIP3   OH254149   2.021   1.491  13.186  0.6736  0.3953  0.6469
 9985TIP3    H154150   2.094   1.469  13.128  0.9743  0.3330  1.0440
 9985TIP3    H254151   1.943   1.471  13.135  0.9389 -0.1961  0.4624
 9986TIP3   OH254152   8.146   8.304  11.853  0.0652  0.5102  0.4710
 9986TIP3    H154153   8.169   8.358  11.929 -1.5606 -0.3362  1.6326
 9986TIP3    H254154   8.059   8.270  11.873 -0.2583 -0.0512 -1.6348
 9987TIP3   OH254155   5.982   7.278  13.130 -0.4040 -0.5053 -0.3607
 9987TIP3    H154156   6.001   7.216  13.059  0.2005 -0.3348 -0.3525
 9987TIP3    H254157   6.031   7.244  13.205 -1.2151 -0.8075  0.0446
 9988TIP3   OH254158   1.374   5.863  13.378 -0.2530  0.0099  0.2913
 9988TIP3    H154159   1.346   5.917  13.304  0.6678 -2.2054 -1.8271
 9988TIP3    H254160   1.294   5.817  13.405 -0.0502 -1.4593 -1.4381
 9989TIP3   OH254161   6.423   4.940  13.015 -0.5160 -0.4391  0.3811
 9989TIP3    H154162   6.343   4.992  13.017  0.0775  0.5133  0.2630
 9989TIP3    H254163   6.494   5.004  13.024  0.3270 -1.0075 -1.5349
 9990TIP3   OH254164   8.254   7.088  13.786  0.4455  0.0422 -0.5067
 9990TIP3    H154165   8.327   7.034  13.818  1.1024  0.0333 -1.9607
 9990TIP3    H254166   8.252   7.072  13.692 -1.3871  0.1397 -0.5081
 9991TIP3   OH254167   1.992   3.495  12.208  0.2222  0.0888  0.1056
 9991TIP3    H154168   2.064   3.476  12.268 -0.6571 -1.9130  0.6201
 9991TIP3    H254169   2.028   3.478  12.121 -0.0355 -2.7922  0.4447
 9992TIP3   OH254170   4.319   2.470  12.077 -0.2159  0.1089  0.2675
 9992TIP3    H154171   4.269   2.479  11.997  0.1885  2.4227  0.1845
 9992TIP3    H254172   4.336   2.376  12.086 -0.6526 -0.2428 -2.0868
 9993TIP3   OH254173   8.112   7.358  12.595 -0.2011 -0.0997 -0.1425
 9993TIP3    H154174   8.051   7.347  12.522  0.1147 -3.4533 -0.0585
 9993TIP3    H254175   8.189   7.400  12.557 -1.0826  0.6752 -1.1033
 9994TIP3   OH254176   5.122   4.369  13.280  0.1832  0.3932 -0.5738
 9994TIP3    H154177   5.208   4.328  13.269 -0.2138 -0.7744  0.4829
 9994TIP3    H254178   5.070   4.303  13.326 -0.7189  1.7917  0.4718
 9995TIP3   OH254179   6.475   7.013  11.467 -0.0212  0.0665  0.1889
 9995TIP3    H154180   6.486   6.918  11.465  1.3969  0.2087 -1.2887
 9995TIP3    H254181   6.385   7.027  11.439 -0.0102 -0.8212 -0.3409
 9996TIP3   OH254182   5.506   0.336  12.646  0.0603  0.0433 -0.3461
 9996TIP3    H154183   5.520   0.256  12.596 -2.0160 -0.5456 -0.0813
 9996TIP3    H254184   5.433   0.316  12.704  1.0011  1.3934  1.4369
 9997TIP3   OH254185   8.306   2.081  12.368 -0.1756  0.0594 -0.2312
 9997TIP3    H154186   8.242   2.055  12.435 -1.2199  0.8597 -0.8817
 9997TIP3    H254187   8.384   2.029  12.388 -1.4885 -2.0677 -0.2672
 9998TIP3   OH254188   6.012   5.318  12.376 -0.5579 -0.6577 -0.0125
 9998TIP3    H154189   5.967   5.238  12.348 -1.9354  0.0989 -0.0930
 9998TIP3    H254190   5.958   5.388  12.339  0.7176  0.3039 -0.0806
 9999TIP3   OH254191   6.538   5.479  11.326  0.2067 -0.7325  0.3179
 9999TIP3    H154192   6.486   5.420  11.273  1.2170 -0.6907 -0.7774
 9999TIP3    H254193   6.582   5.423  11.389  1.9322 -1.3700 -1.3381
10000TIP3   OH254194   5.623   4.029  12.216 -0.1904 -0.3779 -0.0512
10000TIP3    H154195   5.536   4.016  12.252 -0.0229  0.3337  0.6462
10000TIP3    H254196   5.671   3.950  12.241 -0.1889 -0.0740  0.9937
10001TIP3   OH254197   5.835   2.111  12.150  0.7890  0.5035 -0.3785
10001TIP3    H154198   5.878   2.179  12.098  1.5907 -0.1346 -0.5821
10001TIP3    H254199   5.746   2.143  12.163  1.7078  2.5584  1.2995
10002TIP3   OH254200   5.635   2.996  11.570  0.2446 -0.1569  0.2710
10002TIP3    H154201   5.700   2.961  11.630 -0.0717 -1.3492 -0.0605
10002TIP3    H254202   5.576   2.922  11.552  0.9516 -0.1663 -2.3590
10003TIP3   OH254203   7.668   2.767  13.189 -0.4498  0.2931  0.1105
10003TIP3    H154204   7.597   2.750  13.251  0.0927  2.0108  1.2605
10003TIP3    H254205   7.744   2.722  13.225 -0.4244  0.2659  0.0248
10004TIP3   OH254206   7.470   7.276  13.302  0.4015 -0.1006 -0.3544
10004TIP3    H154207   7.379   7.290  13.328  1.1856  1.8906  1.6395
10004TIP3    H254208   7.505   7.215  13.367  0.6934 -0.2353 -0.6325
10005TIP3   OH254209   4.564   6.153  12.169  0.2911 -0.5546 -0.0903
10005TIP3    H154210   4.514   6.161  12.087  1.6307 -2.1702 -1.1470
10005TIP3    H254211   4.498   6.130  12.234 -0.3024 -4.8228 -1.8458
10006TIP3   OH254212   1.052   2.225  13.805  0.6188  0.0977  0.2921
10006TIP3    H154213   0.984   2.172  13.846  0.7564 -0.2437  0.0894
10006TIP3    H254214   1.014   2.313  13.798  0.1897 -0.0982  0.1461
10007TIP3   OH254215   4.033   5.241  11.738  0.3695 -0.3551 -0.2494
10007TIP3    H154216   3.968   5.186  11.693  0.1106 -1.1205  0.9990
10007TIP3    H254217   4.112   5.187  11.741  0.4511 -0.2249  0.0065
10008TIP3   OH254218   1.552   6.230  12.762 -0.0156 -0.4362 -0.3886
10008TIP3    H154219   1.469   6.186  12.746  0.1292 -0.5071 -0.9748
10008TIP3    H254220   1.528   6.311  12.808 -0.5886  0.4161 -2.1207
10009TIP3   OH254221   0.081   4.698  12.310  0.0714 -0.0863  0.4568
10009TIP3    H154222   0.024   4.631  12.271  0.2669  0.7135 -1.2966
10009TIP3    H254223   0.157   4.701  12.252  0.3982  1.1430  0.9190
10010TIP3   OH254224   5.943   1.008  11.529  0.5140 -0.5139 -0.7237
10010TIP3    H154225   5.888   0.943  11.485 -1.1013  0.0387  0.3817
10010TIP3    H254226   5.918   1.091  11.491 -1.1375  0.0151  1.3346
10011TIP3   OH254227   4.670   7.964  12.510 -0.0942 -0.3692  0.2464
10011TIP3    H154228   4.662   7.919  12.594 -1.6391  2.3590  1.6854
10011TIP3    H254229   4.580   7.979  12.482  0.3538  1.4729 -0.3347
10012TIP3   OH254230   4.653   4.576  12.770  0.5456  0.4540 -0.6373
10012TIP3    H154231   4.694   4.647  12.819  2.5092 -0.7372 -0.4162
10012TIP3    H254232   4.726   4.536  12.721 -0.9019  0.0593 -2.5988
10013TIP3   OH254233   8.124   0.520  12.177  0.3054 -0.3298 -0.0187
10013TIP3    H154234   8.052   0.484  12.126  0.1777 -0.6945  0.4111
10013TIP3    H254235   8.139   0.607  12.140 -0.1978 -0.3448 -0.2628
10014TIP3   OH254236   7.009   6.010  11.567  0.5607 -0.6389 -0.3808
10014TIP3    H154237   6.991   6.067  11.642  0.8299 -0.0963 -0.7214
10014TIP3    H254238   7.044   6.069  11.500 -0.8235 -0.9118 -1.3774
10015TIP3   OH254239   4.744   3.593  13.774  0.2007 -0.0446  0.0172
10015TIP3    H154240   4.727   3.508  13.734  0.7517  0.0825 -0.5101
10015TIP3    H254241   4.660   3.640  13.769  0.1566 -0.1827 -0.6256
10016TIP3   OH254242   7.009   3.782  12.142  0.2888  0.3454  0.2124
10016TIP3    H154243   7.024   3.870  12.175 -1.6825  1.0078 -0.4722
10016TIP3    H254244   6.940   3.746  12.198  0.5751 -0.4885  0.0483
10017TIP3   OH254245   2.135   6.293  13.613 -0.4365 -0.7073  0.7961
10017TIP3    H154246   2.217   6.341  13.621  0.2483 -1.8417  0.7410
10017TIP3    H254247   2.070   6.360  13.590  0.5012  0.1726  0.6562
10018TIP3   OH254248   6.004   4.469  11.776  0.3497 -0.3188  0.3355
10018TIP3    H154249   6.041   4.536  11.718  0.4582 -0.8244 -0.1871
10018TIP3    H254250   6.080   4.428  11.817  0.3282 -0.6700  0.0327
10019TIP3   OH254251   4.336   2.052  11.821  0.0755  0.1620 -0.5959
10019TIP3    H154252   4.276   1.979  11.834  0.0316  0.3033  0.0121
10019TIP3    H254253   4.420   2.011  11.802  0.0270 -0.0473 -0.3608
10020TIP3   OH254254   8.207   0.953  11.277 -0.0900  0.2508  0.3227
10020TIP3    H154255   8.264   0.884  11.310  0.9803  1.1054  0.2967
10020TIP3    H254256   8.266   1.014  11.233 -0.4756  2.9650  3.2068
10021TIP3   OH254257   3.008   6.687  12.200 -0.7878  0.0718  0.7299
10021TIP3    H154258   3.076   6.750  12.174  0.4108 -1.3897  0.1104
10021TIP3    H254259   2.927   6.723  12.164 -0.2067  1.4089  0.6831
10022TIP3   OH254260   5.988   4.067  11.770 -0.7147  0.3993  0.5820
10022TIP3    H154261   5.920   4.096  11.709 -1.5293  0.3858  1.4628
10022TIP3    H254262   5.946   4.069  11.856  0.1151 -0.5274  1.0346
10023TIP3   OH254263   2.637   1.420  12.186 -0.3024  0.1625 -0.2751
10023TIP3    H154264   2.627   1.368  12.106  2.6038  0.0749 -0.6686
10023TIP3    H254265   2.550   1.459  12.200 -1.4446 -1.4898 -2.2706
10024TIP3   OH254266   3.129   4.044  13.234  0.1762 -0.8332  0.2290
10024TIP3    H154267   3.198   4.038  13.300 -0.2755 -0.0571  0.7955
10024TIP3    H254268   3.122   3.956  13.198  1.0729 -1.0474  0.5616
10025TIP3   OH254269   0.523   4.825  12.049 -0.2074 -0.1048  0.4211
10025TIP3    H154270   0.539   4.903  11.996 -0.7042  0.6092  1.2798
10025TIP3    H254271   0.589   4.830  12.118 -1.4649  0.6624  1.6297
10026TIP3   OH254272   5.360   4.856  12.987 -0.4457 -0.2652  0.2313
10026TIP3    H154273   5.419   4.927  12.963 -0.9280  0.6576  1.6629
10026TIP3    H254274   5.296   4.854  12.916  0.4453 -0.3062 -0.5895
10027TIP3   OH254275   4.384   5.308  12.894  0.0512  0.3309 -0.0388
10027TIP3    H154276   4.325   5.352  12.955  0.6684  0.3662  0.5343
10027TIP3    H254277   4.437   5.250  12.948 -0.7184 -1.1202 -0.7731
10028TIP3   OH254278   2.189   0.121  12.324 -0.6888  0.1658 -0.3933
10028TIP3    H154279   2.147   0.192  12.372  0.6577  0.2584  0.7159
10028TIP3    H254280   2.264   0.161  12.281 -0.3645 -0.4237 -0.3953
10029TIP3   OH254281   4.147   3.858  12.424  0.2370 -0.4251 -0.1534
10029TIP3    H154282   4.081   3.870  12.491  0.8241 -1.8432  0.7120
10029TIP3    H254283   4.180   3.946  12.406 -2.1747  0.3819 -0.9668
10030TIP3   OH254284   4.121   4.034  13.143  0.0817  0.2865 -0.2178
10030TIP3    H154285   4.071   4.099  13.093 -0.1026 -1.3512 -2.2721
10030TIP3    H254286   4.055   3.977  13.181  0.2919  0.4072  0.3344
10031TIP3   OH254287   6.902   2.238  12.795 -0.0023  0.3790  0.1528
10031TIP3    H154288   6.825   2.186  12.817  0.7531 -0.8010  0.0805
10031TIP3    H254289   6.870   2.306  12.736 -0.6880 -1.2161 -1.4008
10032TIP3   OH254290   6.747   0.166  11.812 -0.1120 -0.4590 -0.4232
10032TIP3    H154291   6.832   0.131  11.788 -0.5179 -1.0104 -1.1066
10032TIP3    H254292   6.727   0.231  11.744 -0.6619 -1.0373 -0.8223
10033TIP3   OH254293   5.302   2.966  12.245 -0.0669 -0.2887  0.3610
10033TIP3    H154294   5.275   2.875  12.233  0.5496 -0.5566  0.9514
10033TIP3    H254295   5.228   3.008  12.288  0.4102 -1.0053  1.9329
10034TIP3   OH254296   3.231   4.211  13.033 -0.7653 -0.1935  0.2914
10034TIP3    H154297   3.260   4.139  12.977 -2.0909  0.0134 -0.7143
10034TIP3    H254298   3.173   4.170  13.097 -0.7503 -0.1598  0.3268
10035TIP3   OH254299   0.323   7.672  12.946 -0.7458  0.1599  0.0417
10035TIP3    H154300   0.340   7.715  12.862  0.4192  1.9608  1.1303
10035TIP3    H254301   0.252   7.723  12.986  0.3468  0.8457  1.1656
10036TIP3   OH254302   2.955   0.471  12.101 -0.0720 -0.2687  0.4600
10036TIP3    H154303   2.981   0.379  12.103  0.0743 -0.2531 -0.2339
10036TIP3    H254304   3.038   0.518  12.090 -0.1039 -0.0265  1.2576
10037TIP3   OH254305   2.412   4.321  12.254  0.0011  0.0931 -0.1649
10037TIP3    H154306   2.332   4.300  12.204  0.3499 -0.2784 -0.5756
10037TIP3    H254307   2.415   4.254  12.322 -0.1216  0.2024 -0.0513
10038TIP3   OH254308   1.419   6.453  11.905 -0.4959 -0.0277 -0.2575
10038TIP3    H154309   1.430   6.547  11.894 -1.7218  0.1089 -0.4688
10038TIP3    H254310   1.360   6.445  11.980  1.0742 -0.7026  0.9696
10039TIP3   OH254311   4.144   7.590  13.013 -0.6637 -0.3920 -0.7309
10039TIP3    H154312   4.163   7.579  13.106  0.3381 -0.4565 -0.9324
10039TIP3    H254313   4.049   7.577  13.006 -0.7098 -0.6463  0.2366
10040TIP3   OH254314   6.627   0.679  12.815  0.0864 -0.8898 -0.3331
10040TIP3    H154315   6.534   0.663  12.799  0.4436 -1.9828 -1.4892
10040TIP3    H254316   6.654   0.610  12.875  0.3919 -1.2567 -0.8843
10041TIP3   OH254317   3.039   1.305  13.168 -0.4744 -0.0060 -0.5638
10041TIP3    H154318   3.023   1.211  13.166 -0.8209  0.0548 -2.4891
10041TIP3    H254319   3.119   1.318  13.118 -0.5598  0.7536 -0.5258
10042TIP3   OH254320   7.496   5.893  12.616  0.3750 -0.2867  0.6150
10042TIP3    H154321   7.466   5.802  12.607  0.2567 -0.2705  0.8470
10042TIP3    H254322   7.565   5.889  12.682  2.1828 -0.6188 -1.1779
10043TIP3   OH254323   3.892   4.358  13.092  0.2178  0.3411  0.0769
10043TIP3    H154324   3.976   4.403  13.081 -0.8321  2.2352 -0.7932
10043TIP3    H254325   3.841   4.416  13.148 -0.5435 -0.7338  0.5156
10044TIP3   OH254326   6.359   3.635  13.223  0.6822  0.0013 -0.4074
10044TIP3    H154327   6.282   3.578  13.214  0.3525  0.7306 -3.3357
10044TIP3    H254328   6.323   3.723  13.221  1.5198  0.3464 -1.4876
10045TIP3   OH254329   2.125   4.990  12.448  0.0353  0.2048  0.3280
10045TIP3    H154330   2.107   4.925  12.380 -4.2017 -0.8584  2.0834
10045TIP3    H254331   2.083   5.070  12.416  1.3710  0.8438  0.1109
10046TIP3   OH254332   5.841   4.123  12.034  0.1515  0.4525  0.0431
10046TIP3    H154333   5.770   4.096  12.093 -0.1265  3.6243  1.3499
10046TIP3    H254334   5.918   4.130  12.090  0.2988  1.8155 -0.2910
10047TIP3   OH254335   7.042   8.274  12.958  0.6825 -0.2627  0.1872
10047TIP3    H154336   6.978   8.275  13.029 -0.3412  2.2228 -0.6569
10047TIP3    H254337   7.113   8.331  12.989  0.7547 -0.0682 -0.3244
10048TIP3   OH254338   1.241   2.071  12.075 -0.4655 -0.4669  0.2975
10048TIP3    H154339   1.302   2.048  12.004  0.4070 -1.2578  1.2643
10048TIP3    H254340   1.210   1.986  12.108 -1.3957 -0.0880  0.4259
10049TIP3   OH254341   8.410   1.706  13.519 -0.4606 -0.1216 -0.1445
10049TIP3    H154342   8.408   1.692  13.425  0.6686  1.1251 -0.3880
10049TIP3    H254343   8.403   1.801  13.530  1.0078 -0.0881  0.9147
10050TIP3   OH254344   0.679   1.294  11.860  0.2005 -0.0502  0.3718
10050TIP3    H154345   0.689   1.324  11.950  0.1005 -1.3706  0.8522
10050TIP3    H254346   0.730   1.213  11.855  1.1286  0.5773 -1.0827
10051TIP3   OH254347   8.013   1.062  12.145 -0.5748 -0.2647 -0.1000
10051TIP3    H154348   8.064   1.142  12.129  0.0130 -0.8380 -1.2374
10051TIP3    H254349   8.071   1.006  12.196 -1.1731  0.2039  1.1425
10052TIP3   OH254350   4.954   6.250  13.845 -0.3021 -0.3177  0.2069
10052TIP3    H154351   4.915   6.336  13.861  0.1324 -0.1520  0.3811
10052TIP3    H254352   4.895   6.209  13.782 -0.8057 -0.1022  0.5258
10053TIP3   OH254353   4.187   1.700  13.952 -0.3671  0.5215  0.4438
10053TIP3    H154354   4.134   1.762  13.902 -0.8932  1.6365  2.2767
10053TIP3    H254355   4.215   1.749  14.029  0.9893 -0.9117  0.9228
10054TIP3   OH254356   7.310   1.712  12.989 -0.2709 -0.1122 -0.2671
10054TIP3    H154357   7.250   1.756  12.928  0.6418 -0.3324 -1.3619
10054TIP3    H254358   7.331   1.779  13.054 -1.3006  0.1147 -0.1421
10055TIP3   OH254359   0.751   4.115  13.454 -0.2729  0.6021 -0.1919
10055TIP3    H154360   0.845   4.123  13.472 -0.4747  0.2338  1.0945
10055TIP3    H254361   0.725   4.034  13.498 -1.4526  1.3706  0.5845
10056TIP3   OH254362   5.268   1.819  12.019 -0.2332  0.4640 -0.1351
10056TIP3    H154363   5.191   1.854  11.975 -0.6086 -0.6746 -0.4025
10056TIP3    H254364   5.257   1.845  12.111 -2.4204 -2.0331  0.4401
10057TIP3   OH254365   6.742   7.020  13.504  0.4149 -0.4771 -0.1812
10057TIP3    H154366   6.762   7.001  13.595 -1.3559 -1.3998  0.0573
10057TIP3    H254367   6.653   6.987  13.491 -0.0322  1.1664 -1.7873
10058TIP3   OH254368   2.626   6.019  12.118  0.1864 -0.1241  0.0020
10058TIP3    H154369   2.581   6.052  12.195 -0.1502  0.8082 -0.5760
10058TIP3    H254370   2.563   5.957  12.079  0.6035 -1.0630  0.7938
10059TIP3   OH254371   1.959   0.585  13.939  0.1557  0.2589  0.0817
10059TIP3    H154372   1.911   0.651  13.890 -0.2407 -0.0816  0.0035
10059TIP3    H254373   1.902   0.508  13.938  0.9728 -0.3587 -0.5573
10060TIP3   OH254374   0.853   4.568  12.760 -0.2183 -0.0520  0.7301
10060TIP3    H154375   0.773   4.563  12.708 -0.6462  0.5128  1.3135
10060TIP3    H254376   0.907   4.495  12.729 -0.2763  0.5243 -0.7975
10061TIP3   OH254377   3.144   5.426  12.529 -0.6091  0.2582 -0.2515
10061TIP3    H154378   3.140   5.403  12.437  0.1422 -1.0937  0.0338
10061TIP3    H254379   3.176   5.517  12.530 -0.4122  0.2065 -1.3091
10062TIP3   OH254380   0.046   1.489  12.690  0.7701 -0.5562  0.7836
10062TIP3    H154381   0.072   1.566  12.740 -0.2877  1.5308 -1.6436
10062TIP3    H254382   0.116   1.477  12.626 -0.4687  0.3616 -0.8236
10063TIP3   OH254383   4.082   4.539  13.348  0.3770  0.2871  0.2132
10063TIP3    H154384   4.116   4.540  13.259  0.9615 -3.4743  0.2683
10063TIP3    H254385   3.988   4.524  13.337  0.3790  0.2716  0.2185
10064TIP3   OH254386   7.047   4.406  11.642 -0.1650 -0.4797 -0.3633
10064TIP3    H154387   7.058   4.402  11.737  0.0629  0.1596 -0.3554
10064TIP3    H254388   7.022   4.317  11.617  1.3625 -1.0650  0.0828
10065TIP3   OH254389   3.140   1.248  13.873  0.6358  0.4318  0.6103
10065TIP3    H154390   3.095   1.263  13.790 -0.2339  1.7617  1.2884
10065TIP3    H254391   3.171   1.157  13.868  0.4754  0.4519 -1.0937
10066TIP3   OH254392   6.720   7.574  13.318 -0.4469 -0.1853  0.0113
10066TIP3    H154393   6.738   7.520  13.241  0.2242  1.1539 -0.8188
10066TIP3    H254394   6.749   7.521  13.392  1.3305 -0.5174 -0.8693
10067TIP3   OH254395   3.506   0.383  11.208 -0.3027 -0.0142 -0.0746
10067TIP3    H154396   3.430   0.412  11.257 -0.6521 -0.3227 -0.4226
10067TIP3    H254397   3.470   0.353  11.124  0.1866 -0.2663 -0.1967
10068TIP3   OH254398   0.520   1.497  11.772  0.0370  0.1112 -0.0765
10068TIP3    H154399   0.579   1.423  11.755  0.0907  0.3947 -1.1946
10068TIP3    H254400   0.579   1.572  11.783 -0.0516  0.1231  0.3409
10069TIP3   OH254401   4.679   5.497  13.495  0.6030  0.2370 -0.5863
10069TIP3    H154402   4.670   5.467  13.586 -0.5738 -1.1258 -1.1365
10069TIP3    H254403   4.771   5.479  13.474  0.1101 -2.4947 -0.6870
10070TIP3   OH254404   3.161   7.540  13.092 -0.4154 -0.5072  0.2996
10070TIP3    H154405   3.077   7.526  13.047  0.3389  2.3746 -2.3165
10070TIP3    H254406   3.222   7.480  13.049 -0.3716 -0.0332 -0.2992
10071TIP3   OH254407   2.992   5.023  13.679 -0.0541  0.6174  0.1289
10071TIP3    H154408   3.057   4.985  13.619 -0.7015 -0.2377 -0.0599
10071TIP3    H254409   2.927   4.953  13.691 -0.5142  1.1709  0.9525
10072TIP3   OH254410   5.801   4.133  11.565 -0.8992  0.3419  0.1805
10072TIP3    H154411   5.715   4.111  11.531 -1.2564  1.3786  0.3848
10072TIP3    H254412   5.793   4.223  11.597 -0.1057  0.0060  1.4203
10073TIP3   OH254413   8.084   2.680  13.505  0.0130  0.1408  0.2668
10073TIP3    H154414   8.052   2.609  13.561  0.1657 -2.2230 -2.4102
10073TIP3    H254415   8.180   2.675  13.514  0.0060  0.3101  0.4294
10074TIP3   OH254416   0.018   6.603  12.244 -0.1288  0.2678  0.5433
10074TIP3    H154417   0.003   6.564  12.330  1.5428  0.0684  0.7787
10074TIP3    H254418  -0.056   6.574  12.191  0.5691 -2.5035  0.9560
10075TIP3   OH254419   5.671   3.559  12.635 -0.2375  0.7857  0.8586
10075TIP3    H154420   5.714   3.524  12.557  0.9146  0.3146  1.6773
10075TIP3    H254421   5.622   3.635  12.603 -0.1737  0.3210 -0.3938
10076TIP3   OH254422   3.777   0.857  12.653 -0.2126 -0.1450 -0.3510
10076TIP3    H154423   3.686   0.830  12.662 -0.1815 -0.8785 -1.9085
10076TIP3    H254424   3.774   0.933  12.594  0.2126 -0.4884 -0.8247
10077TIP3   OH254425   3.016   0.467  11.653 -0.6991 -0.1524  1.1095
10077TIP3    H154426   3.063   0.510  11.582 -1.0253 -1.8857 -0.2363
10077TIP3    H254427   2.937   0.520  11.665 -0.1732  0.7068  0.8568
10078TIP3   OH254428   2.699   0.061  11.578  0.0747  0.2650  0.5656
10078TIP3    H154429   2.737   0.066  11.666  0.5079  0.7938  0.3518
10078TIP3    H254430   2.748  -0.009  11.535 -0.2413 -0.1004  0.7885
10079TIP3   OH254431   1.088   3.333  11.391 -0.0870  0.4751 -0.0938
10079TIP3    H154432   1.050   3.332  11.303  0.4244  1.0431 -0.3258
10079TIP3    H254433   1.109   3.425  11.407  1.4337  0.1490 -0.0790
10080TIP3   OH254434   5.134   5.046  13.005  0.3407 -0.0687  0.3088
10080TIP3    H154435   5.155   5.112  12.939  0.2603 -0.9258 -0.5830
10080TIP3    H254436   5.218   5.008  13.028  0.2081 -0.8525 -0.4608
10081TIP3   OH254437   4.572   7.080  12.189 -0.0921 -0.0396  0.3960
10081TIP3    H154438   4.603   7.149  12.131 -0.2068 -2.0975 -2.3489
10081TIP3    H254439   4.483   7.062  12.160  0.3005 -2.0268  0.2785
10082TIP3   OH254440   2.880   1.994  12.686 -0.0252  0.6747 -0.4208
10082TIP3    H154441   2.784   1.993  12.691 -0.0370 -1.3318 -0.2194
10082TIP3    H254442   2.909   1.954  12.768  0.9022 -0.5710 -1.3175
10083TIP3   OH254443   5.167   2.588  13.484 -0.5739  0.6477  0.2094
10083TIP3    H154444   5.223   2.556  13.415 -0.8838  1.8233 -0.6232
10083TIP3    H254445   5.137   2.509  13.530  0.0417 -0.1076 -0.6570
10084TIP3   OH254446   3.326   0.805  12.927  0.0086  0.3501 -0.0428
10084TIP3    H154447   3.379   0.727  12.940 -2.4713 -1.2083  1.3675
10084TIP3    H254448   3.333   0.854  13.009 -0.5743  0.2034  0.1025
10085TIP3   OH254449   3.433   6.513  13.683 -0.4015  0.0390  0.9030
10085TIP3    H154450   3.437   6.432  13.733  0.8000  0.5204  1.6313
10085TIP3    H254451   3.521   6.549  13.688 -0.1626  0.0439 -1.7277
10086TIP3   OH254452   5.178   1.616  12.599 -0.1751  0.0933  0.1248
10086TIP3    H154453   5.108   1.601  12.663 -1.3468 -0.0689 -1.1409
10086TIP3    H254454   5.257   1.582  12.641 -0.5300  1.6193  2.2094
10087TIP3   OH254455   3.642   3.291  11.764  0.0370 -0.0412 -0.4618
10087TIP3    H154456   3.661   3.367  11.710  0.2765 -0.6874 -1.3001
10087TIP3    H254457   3.708   3.293  11.833 -1.4375  1.8879  1.0103
10088TIP3   OH254458   4.853   3.940  12.153  0.1328 -0.2059  0.1239
10088TIP3    H154459   4.802   3.997  12.096  1.2238  1.2932  0.5641
10088TIP3    H254460   4.796   3.923  12.228 -0.0167  0.8029  0.2547
10089TIP3   OH254461   1.089   3.579  11.528 -0.1444  0.2592 -0.1571
10089TIP3    H154462   1.011   3.606  11.575  0.0695 -0.5910  0.7361
10089TIP3    H254463   1.144   3.658  11.524 -0.8401  0.7388 -0.3915
10090TIP3   OH254464   5.552   1.271  11.805  0.1167 -0.1622  0.5005
10090TIP3    H154465   5.623   1.333  11.822 -0.2859  0.9526 -1.5425
10090TIP3    H254466   5.496   1.316  11.742  0.8425 -3.3215 -2.6973
10091TIP3   OH254467   0.563   8.050  12.427  0.1775  0.4301 -0.6129
10091TIP3    H154468   0.561   8.092  12.341  0.7318 -0.0434 -0.8640
10091TIP3    H254469   0.488   7.991  12.426 -0.6620  1.4689 -0.2223
10092TIP3   OH254470   2.846   1.630  13.520  0.6019 -0.4418 -0.2043
10092TIP3    H154471   2.837   1.544  13.478 -0.9218 -0.6327  0.4543
10092TIP3    H254472   2.761   1.645  13.561  0.4470  1.8909 -1.2548
10093TIP3   OH254473   4.010   7.142  11.704  0.4650 -0.2148  0.0005
10093TIP3    H154474   4.067   7.149  11.781  0.0882  1.6178  0.1688
10093TIP3    H254475   3.946   7.075  11.728  1.2581 -0.7497  0.6685
10094TIP3   OH254476   6.580   6.212  11.891  0.5836  0.3325 -0.4167
10094TIP3    H154477   6.620   6.184  11.973  1.6298  4.0552  0.5179
10094TIP3    H254478   6.489   6.231  11.913  0.2992 -0.6554 -0.6770
10095TIP3   OH254479   7.424   0.707  13.290  0.0803 -0.5613  0.3035
10095TIP3    H154480   7.411   0.621  13.250  1.1466 -0.3755 -0.5092
10095TIP3    H254481   7.355   0.714  13.356  0.1322 -2.1430  0.5647
10096TIP3   OH254482   4.781   1.355  12.093 -0.6210 -0.0794 -0.2171
10096TIP3    H154483   4.848   1.298  12.130 -0.4001  0.3720  0.0937
10096TIP3    H254484   4.761   1.417  12.164 -0.2574  0.7379 -0.8125
10097TIP3   OH254485   2.494   2.413  13.135 -0.6025 -0.4755 -0.1639
10097TIP3    H154486   2.425   2.469  13.173  0.4929  0.4612  0.4967
10097TIP3    H254487   2.565   2.474  13.114  1.0443 -1.7142  1.5051
10098TIP3   OH254488   5.033   8.358  13.749  0.2549  0.0966 -0.0137
10098TIP3    H154489   5.006   8.419  13.680 -0.1370 -0.8102 -0.6969
10098TIP3    H254490   4.979   8.280  13.734  2.1374 -1.2118 -0.4648
10099TIP3   OH254491   0.676   7.806  12.021  0.0865  0.0042  0.9433
10099TIP3    H154492   0.731   7.762  11.956  2.3694  4.4003 -0.4652
10099TIP3    H254493   0.723   7.795  12.103  0.1550 -0.9024  0.7908
10100TIP3   OH254494   7.558   3.382  12.968  0.2625  0.5668 -0.6952
10100TIP3    H154495   7.539   3.464  13.015  1.3821  1.1273 -1.1873
10100TIP3    H254496   7.491   3.379  12.899  0.1349  1.0060 -0.5981
10101TIP3   OH254497   2.735   5.186  11.841 -0.2400 -0.2978  0.2080
10101TIP3    H154498   2.781   5.269  11.841 -0.4472 -0.1611  2.0085
10101TIP3    H254499   2.704   5.174  11.931 -0.5945 -2.1062 -0.1029
10102TIP3   OH254500   5.935   6.732  18.294  0.0299  0.2984 -0.0987
10102TIP3    H154501   5.964   6.644  18.271 -0.4878  0.3832 -1.1338
10102TIP3    H254502   5.971   6.747  18.381  3.3818  0.4872 -1.3465
10103TIP3   OH254503   7.713   6.442  12.146 -0.8749 -0.5667 -0.2419
10103TIP3    H154504   7.643   6.405  12.200  0.9866 -2.4318  1.0233
10103TIP3    H254505   7.745   6.517  12.196 -1.2274 -0.3829 -0.2889
10104TIP3   OH254506   4.339   3.446  13.055 -0.0652 -0.0584  0.1058
10104TIP3    H154507   4.363   3.424  13.145 -1.6738 -0.2909  0.4981
10104TIP3    H254508   4.337   3.542  13.054  2.7178  0.0968 -0.4814
10105TIP3   OH254509   2.516   8.382  13.619  0.3815 -0.4934 -0.7576
10105TIP3    H154510   2.478   8.437  13.687 -0.3645 -0.9907 -0.7636
10105TIP3    H254511   2.444   8.369  13.556  1.2188  0.4528 -1.9527
10106TIP3   OH254512   8.114   0.727  12.608 -0.4759 -0.0173  0.1703
10106TIP3    H154513   8.141   0.817  12.626  0.0451 -0.1645  0.1325
10106TIP3    H254514   8.129   0.680  12.690 -1.1354  0.0170  0.3151
10107TIP3   OH254515   4.228   7.819  11.375  0.1119  0.0267 -0.1592
10107TIP3    H154516   4.154   7.878  11.391  1.1024  0.7257  2.3311
10107TIP3    H254517   4.212   7.783  11.289 -1.7408  2.2103 -0.8203
10108TIP3   OH254518   2.064   0.756  12.776  0.6372 -0.6193  0.1624
10108TIP3    H154519   2.065   0.757  12.872  0.7595  0.6379  0.1642
10108TIP3    H254520   2.119   0.830  12.750 -2.8920  1.9902 -0.7949
10109TIP3   OH254521   4.490   1.397  12.069 -0.4505  0.7866 -0.1689
10109TIP3    H154522   4.426   1.328  12.053 -0.0149 -0.2056  2.0291
10109TIP3    H254523   4.570   1.366  12.026 -0.2290 -0.1599  0.8863
10110TIP3   OH254524   6.830   2.734  11.952 -0.6048  0.5335  0.1272
10110TIP3    H154525   6.751   2.740  12.007 -0.6426  0.0188  0.1313
10110TIP3    H254526   6.899   2.774  12.005 -0.5467 -0.3610  0.7355
10111TIP3   OH254527   5.202   3.214  11.874 -0.1046  0.3292  0.0294
10111TIP3    H154528   5.186   3.121  11.890 -1.1599  0.2490 -1.3402
10111TIP3    H254529   5.268   3.216  11.805 -1.6229  0.5280 -1.4823
10112TIP3   OH254530   4.915   2.512  12.940  0.0350  0.0936  0.0446
10112TIP3    H154531   4.953   2.504  12.852  0.9154  2.9382  0.0689
10112TIP3    H254532   4.830   2.552  12.926 -0.8419 -1.5596  0.3858
10113TIP3   OH254533   2.059   4.002  12.575 -0.2035 -0.5960 -0.2399
10113TIP3    H154534   2.048   4.027  12.483  2.0352  0.6014 -0.2598
10113TIP3    H254535   2.086   3.910  12.572  0.5668 -0.3615 -0.8653
10114TIP3   OH254536   1.765   2.546  12.427  0.2360  0.1118 -0.0387
10114TIP3    H154537   1.706   2.534  12.501  0.6326 -0.3806  0.2083
10114TIP3    H254538   1.828   2.612  12.458 -0.4716  1.0104 -0.4856
10115TIP3   OH254539   1.564   4.211  12.660 -0.2173 -0.1494 -0.4903
10115TIP3    H154540   1.511   4.234  12.737  0.7746  0.3672  0.0613
10115TIP3    H254541   1.591   4.120  12.676 -0.1278 -0.0883 -0.2771
10116TIP3   OH254542   3.493   1.175  11.809 -0.0856 -0.0506 -0.3405
10116TIP3    H154543   3.415   1.131  11.774 -0.6277  0.6056  0.0140
10116TIP3    H254544   3.460   1.226  11.884  0.5457  0.8456 -0.6587
10117TIP3   OH254545   5.453   8.044  11.533  0.2301  0.0685  0.3825
10117TIP3    H154546   5.363   8.067  11.558  0.2253  1.0145 -0.4603
10117TIP3    H254547   5.498   8.128  11.526  1.0654 -0.3775  0.3332
10118TIP3   OH254548   1.610   2.461  11.925 -0.8008 -0.2027 -0.1054
10118TIP3    H154549   1.586   2.395  11.989  0.0189 -0.8412 -0.4446
10118TIP3    H254550   1.537   2.523  11.926 -3.0828 -2.6566 -1.9543
10119TIP3   OH254551   5.791   0.288  11.465 -0.5029  0.0609 -0.1632
10119TIP3    H154552   5.737   0.347  11.518 -2.8402 -0.7368 -1.4962
10119TIP3    H254553   5.869   0.339  11.444 -1.0821  1.5835  1.1990
10120TIP3   OH254554   5.577   1.546  13.741  0.5519 -0.5902  0.4483
10120TIP3    H154555   5.622   1.631  13.741  0.6599 -0.5644 -1.9049
10120TIP3    H254556   5.515   1.553  13.668  1.0094 -2.7464 -0.1985
10121TIP3   OH254557   7.575   3.669  11.489  0.6780  0.0355  0.0073
10121TIP3    H154558   7.602   3.581  11.463  1.1792 -0.4612  2.0599
10121TIP3    H254559   7.481   3.671  11.474  1.0003  0.1189 -2.5782
10122TIP3   OH254560   1.999   1.872  12.242 -0.3917 -0.0129 -0.0632
10122TIP3    H154561   1.913   1.890  12.280  0.9861  1.6815  2.6085
10122TIP3    H254562   2.030   1.795  12.289 -0.8085 -1.2434 -1.7502
10123TIP3   OH254563   6.785   8.076  13.462  0.1870 -0.0976  0.5274
10123TIP3    H154564   6.723   8.099  13.531  0.1456  1.7337 -0.0698
10123TIP3    H254565   6.790   7.980  13.464 -0.5301 -0.1220  2.4169
10124TIP3   OH254566   4.700   7.077  11.532  0.3399 -0.0706 -0.0877
10124TIP3    H154567   4.689   7.078  11.627 -0.2224  0.9908 -0.1481
10124TIP3    H254568   4.650   7.153  11.501 -0.7540 -1.2608 -1.3835
10125TIP3   OH254569   1.076   0.346  13.900  0.5557  0.3332 -0.0270
10125TIP3    H154570   1.064   0.261  13.860  0.1355  0.7374 -0.7872
10125TIP3    H254571   1.171   0.359  13.904  0.6133 -0.0689 -0.1105
10126TIP3   OH254572   0.322   8.159  12.667  0.2675 -0.8124  0.1071
10126TIP3    H154573   0.395   8.192  12.719 -0.3756 -0.5388  0.8401
10126TIP3    H254574   0.250   8.150  12.728 -0.3246 -1.0865 -0.6110
10127TIP3   OH254575   3.811   4.734  12.571  0.1133 -0.0816 -0.0366
10127TIP3    H154576   3.719   4.759  12.577  0.3717  0.8150  0.5387
10127TIP3    H254577   3.840   4.768  12.487  0.3093  1.0888  0.4831
10128TIP3   OH254578   5.707   3.245  11.686  0.1812  0.0791  0.6659
10128TIP3    H154579   5.690   3.182  11.616 -1.0220  0.6940  0.3872
10128TIP3    H254580   5.785   3.292  11.658  1.4575 -1.6354  1.1437
10129TIP3   OH254581   7.261   1.935  12.537 -0.2625  0.6683  0.5008
10129TIP3    H154582   7.348   1.973  12.528  0.2016 -0.4630 -0.0409
10129TIP3    H254583   7.215   1.994  12.596 -1.0127  4.5021 -3.4011
10130TIP3   OH254584   6.635   1.568  12.172  0.0599  0.6759 -0.3400
10130TIP3    H154585   6.592   1.548  12.255  1.4415  0.6566  0.4109
10130TIP3    H254586   6.564   1.586  12.111 -0.9868  2.2428  1.2380
10131TIP3   OH254587   5.416   1.470  12.699  0.3725  0.4805 -0.6247
10131TIP3    H154588   5.388   1.382  12.673  1.0140  0.1888 -0.3622
10131TIP3    H254589   5.511   1.471  12.681  0.2718  1.3172 -1.1666
10132TIP3   OH254590   2.321   0.099  11.911 -0.0606 -0.1425  0.8047
10132TIP3    H154591   2.337   0.007  11.890 -0.6485 -0.3715  1.3297
10132TIP3    H254592   2.244   0.098  11.967  0.6999  0.5462  1.9125
10133TIP3   OH254593   6.741   0.727  12.583 -0.2210 -0.0379 -0.0230
10133TIP3    H154594   6.788   0.811  12.586  1.4201 -0.9210 -0.0741
10133TIP3    H254595   6.697   0.722  12.668 -0.1895  0.7680  0.0560
10134TIP3   OH254596   5.843   2.881  11.812  0.6735  0.1964  0.0124
10134TIP3    H154597   5.865   2.953  11.872  0.9746 -0.4241  0.6596
10134TIP3    H254598   5.918   2.876  11.753  0.0756  1.2556 -0.8714
10135TIP3   OH254599   8.149   7.148  13.095  0.1513  0.3458 -0.1011
10135TIP3    H154600   8.218   7.201  13.056 -0.2660  2.1399  1.4292
10135TIP3    H254601   8.076   7.209  13.108 -0.7871 -0.8900  0.6678
10136TIP3   OH254602   7.914   4.800  13.170 -0.2692  0.2836  0.2476
10136TIP3    H154603   7.899   4.707  13.154  2.9929 -0.3385  0.0666
10136TIP3    H254604   7.867   4.818  13.251 -1.2367 -1.4042  0.1228
10137TIP3   OH254605   4.327   1.353  13.451  0.5212  0.4038 -0.0163
10137TIP3    H154606   4.270   1.429  13.460  2.7066  2.4748 -2.1695
10137TIP3    H254607   4.298   1.311  13.370 -0.0772 -0.5302  0.6736
10138TIP3   OH254608   8.433   3.537  12.644 -0.0577 -0.2090  0.1360
10138TIP3    H154609   8.382   3.608  12.603 -0.2395 -1.5341 -2.1190
10138TIP3    H254610   8.490   3.505  12.574  1.3143 -1.1296  1.6108
10139TIP3   OH254611   0.121   1.265  11.604  0.5497  0.0164  0.5280
10139TIP3    H154612   0.133   1.174  11.576  3.0677  0.3070  0.3610
10139TIP3    H254613   0.127   1.261  11.700 -2.8186 -0.3364  0.8308
10140TIP3   OH254614   5.103   2.671  11.746 -0.4032 -0.6317  0.2668
10140TIP3    H154615   5.019   2.707  11.719 -0.9262 -0.9559  1.4171
10140TIP3    H254616   5.083   2.581  11.773  0.3078 -0.7013  0.5784
10141TIP3   OH254617   7.682   7.917  13.023 -0.3488  0.4163 -0.2059
10141TIP3    H154618   7.735   7.994  13.000  0.1224  0.1624  0.0067
10141TIP3    H254619   7.638   7.942  13.104  0.7246  0.0453  0.5125
10142TIP3   OH254620   2.721   3.644  13.473 -0.8085 -0.4353  0.0714
10142TIP3    H154621   2.733   3.684  13.386  0.4202  1.1264  0.9060
10142TIP3    H254622   2.656   3.700  13.516 -0.4343 -0.4024  0.6081
10143TIP3   OH254623   6.491   6.822  12.895 -0.3409 -0.7888 -0.1256
10143TIP3    H154624   6.465   6.785  12.979  1.1259 -1.8580 -0.1084
10143TIP3    H254625   6.484   6.749  12.833  1.9698 -1.0012 -0.2145
10144TIP3   OH254626   4.969   4.218  13.584  0.0619  0.0044  0.3006
10144TIP3    H154627   4.900   4.269  13.542  1.7143  2.3135  0.2264
10144TIP3    H254628   4.975   4.137  13.532 -1.2037  0.6410 -0.8895
10145TIP3   OH254629   4.835   7.690  11.621 -0.2569 -0.1921  0.6569
10145TIP3    H154630   4.762   7.729  11.572 -0.9918  0.0154  1.8867
10145TIP3    H254631   4.910   7.744  11.598 -0.9543  1.0254  1.1346
10146TIP3   OH254632   0.187   3.669  13.734 -0.2038 -0.0725  0.4735
10146TIP3    H154633   0.124   3.692  13.802  0.7853  0.8699  1.1107
10146TIP3    H254634   0.196   3.574  13.740 -1.9483 -0.2964 -0.0066
10147TIP3   OH254635   7.005   7.966  13.917  0.2475  0.2801  0.3191
10147TIP3    H154636   6.930   7.906  13.922 -0.3672  1.0830  1.3363
10147TIP3    H254637   7.082   7.909  13.918 -0.3278 -0.5150  0.6024
10148TIP3   OH254638   5.794   4.321  11.855  0.2361  0.2817  0.1864
10148TIP3    H154639   5.818   4.252  11.917  0.9534  1.2550  1.0251
10148TIP3    H254640   5.877   4.349  11.817 -0.2833 -1.1496 -2.2189
10149TIP3   OH254641   6.881   6.888  12.975  0.1471 -0.1498  0.2298
10149TIP3    H154642   6.805   6.870  13.030  0.9939 -1.2003  1.1269
10149TIP3    H254643   6.894   6.807  12.925 -0.8323  0.9217 -1.8440
10150TIP3   OH254644   1.409   1.763  11.820  0.2399  0.1487  0.0575
10150TIP3    H154645   1.476   1.771  11.888  1.5367  2.5480 -1.3678
10150TIP3    H254646   1.435   1.686  11.769  1.4764  0.5827  0.0088
10151TIP3   OH254647   7.132   5.872  12.327 -0.0270  0.0603  0.3704
10151TIP3    H154648   7.216   5.891  12.286 -0.5951  1.2079 -0.3159
10151TIP3    H254649   7.068   5.921  12.275 -0.9857  0.1089  1.5462
10152TIP3   OH254650   6.884   0.691  13.559 -0.2301  0.1764 -0.8136
10152TIP3    H154651   6.925   0.623  13.613 -0.6115 -1.1402 -2.1175
10152TIP3    H254652   6.917   0.773  13.596  0.4991 -0.7046  0.6164
10153TIP3   OH254653   2.734   1.846  13.091  0.1033  0.0234 -0.4983
10153TIP3    H154654   2.704   1.861  13.180  0.9882 -1.1141  0.0242
10153TIP3    H254655   2.656   1.858  13.037 -1.2428 -2.4419  0.7413
10154TIP3   OH254656   0.180   0.330  12.407 -0.1596 -0.3881  0.7338
10154TIP3    H154657   0.190   0.364  12.318 -0.4549 -0.4801  0.6649
10154TIP3    H254658   0.267   0.297  12.430  0.1022  0.3000  0.7560
10155TIP3   OH254659   5.072   3.673  12.406  0.0393  0.1170  0.2465
10155TIP3    H154660   5.036   3.629  12.329 -2.2803  0.8095  0.8623
10155TIP3    H254661   4.995   3.704  12.454  1.3540 -0.6706  3.0901
10156TIP3   OH254662   5.319   1.044  13.484  0.2974  0.4129 -0.1014
10156TIP3    H154663   5.275   0.982  13.541  0.2161  1.8396  1.4452
10156TIP3    H254664   5.385   1.086  13.539 -1.2723  3.4644 -0.3275
10157TIP3   OH254665   4.224   7.275  12.241 -0.6925 -0.0032 -0.3619
10157TIP3    H154666   4.297   7.333  12.264 -1.7492  0.4755  2.0946
10157TIP3    H254667   4.179   7.320  12.169  1.5352 -0.4830 -2.1928
10158TIP3   OH254668   1.759   1.551  13.511  0.1647  0.3198  0.1803
10158TIP3    H154669   1.689   1.541  13.447  0.2565 -0.2700  0.1691
10158TIP3    H254670   1.723   1.515  13.593  0.8538 -1.1143 -0.1110
10159TIP3   OH254671   6.793   1.497  12.689  0.2042 -0.4080  0.4053
10159TIP3    H154672   6.716   1.447  12.663 -2.1703  2.1592  1.8253
10159TIP3    H254673   6.828   1.533  12.608 -1.3763 -0.0016 -0.1240
10160TIP3   OH254674   4.964   0.614  13.714  0.1971  0.4460  0.5111
10160TIP3    H154675   5.007   0.529  13.729 -0.3215  0.4422  2.1695
10160TIP3    H254676   4.881   0.591  13.674  1.8021  0.4783 -3.1777
10161TIP3   OH254677   2.858   3.027  13.793 -0.0039  0.1958 -0.2835
10161TIP3    H154678   2.861   2.960  13.725 -1.6622 -2.2372  1.8333
10161TIP3    H254679   2.769   3.064  13.786 -0.1724 -0.0489  0.5172
10162TIP3   OH254680   4.419   0.109  12.593 -0.2998  0.1784  0.0243
10162TIP3    H154681   4.413   0.076  12.682  1.4986  1.6991  0.7862
10162TIP3    H254682   4.329   0.107  12.561 -0.7959 -1.6893  1.3470
10163TIP3   OH254683   0.660   6.163  12.542 -0.3594  0.6808  0.4565
10163TIP3    H154684   0.742   6.115  12.533 -0.2799  0.5948  1.4773
10163TIP3    H254685   0.679   6.250  12.508 -0.6463 -0.1115 -1.9018
10164TIP3   OH254686   4.542   0.265  12.370  0.9198 -0.1821  1.2680
10164TIP3    H154687   4.501   0.241  12.453 -0.9494 -0.3894  0.3411
10164TIP3    H254688   4.635   0.266  12.388  0.5073  0.8570  3.6570
10165TIP3   OH254689   6.906   0.220  13.833  0.1991  0.2102 -0.7698
10165TIP3    H154690   6.931   0.197  13.923  1.2896  2.1497 -0.5134
10165TIP3    H254691   6.865   0.141  13.799  0.0154 -0.6831  1.3343
10166TIP3   OH254692   5.229   0.961  13.164 -0.1070  0.1172  0.5358
10166TIP3    H154693   5.194   1.044  13.132 -0.7576 -0.0092  0.9062
10166TIP3    H254694   5.253   0.978  13.255 -0.0707 -0.0458  0.5573
10167TIP3   OH254695   0.506   1.920  12.779  0.8296  0.3296  0.1152
10167TIP3    H154696   0.506   1.843  12.836  0.7005 -0.6459 -1.1654
10167TIP3    H254697   0.416   1.929  12.750  1.2730 -0.5079 -1.6324
10168TIP3   OH254698   2.988   0.207  12.532  0.6444 -0.5329 -0.8274
10168TIP3    H154699   2.924   0.273  12.507 -1.0668 -2.4261 -1.6842
10168TIP3    H254700   2.946   0.159  12.604  1.0529 -1.8267 -1.4261
10169TIP3   OH254701   8.115   2.914  12.148  0.0975  0.3066  0.1476
10169TIP3    H154702   8.037   2.967  12.134  0.5098  0.9706  0.3178
10169TIP3    H254703   8.188   2.975  12.136  0.5422  0.6196  3.5443
10170TIP3   OH254704   4.968   4.020  12.851  0.2433 -0.0677 -0.0237
10170TIP3    H154705   4.932   4.089  12.795  0.5260  1.2394  1.3260
10170TIP3    H254706   5.050   3.995  12.808  1.0544  1.7614  0.3639
10171TIP3   OH254707   4.625   1.859  12.855  0.2214  0.4221 -0.3379
10171TIP3    H154708   4.637   1.793  12.923 -0.7792  1.9385  1.4271
10171TIP3    H254709   4.544   1.904  12.880  0.3603  1.6812 -1.9903
10172TIP3   OH254710   5.057   0.631  13.130 -0.2954 -0.0803 -0.7620
10172TIP3    H154711   4.975   0.614  13.176 -0.1207 -1.3552 -0.8625
10172TIP3    H254712   5.097   0.544  13.120  0.8796  0.4693 -1.0635
10173TIP3   OH254713   0.771   0.793  12.484 -0.2951 -0.4144  0.3420
10173TIP3    H154714   0.759   0.728  12.553  2.2467  0.7180  2.0345
10173TIP3    H254715   0.686   0.835  12.474 -0.8593 -0.9005  2.5545
10174TIP3   OH254716   4.819   1.056  12.195 -0.2181 -0.8789 -0.2962
10174TIP3    H154717   4.827   0.972  12.239 -2.4528 -0.5967  0.8007
10174TIP3    H254718   4.907   1.074  12.161  0.8655 -2.5515  1.4129
10175TIP3   OH254719   8.282   7.152  12.798 -0.0955  0.5790  0.2283
10175TIP3    H154720   8.324   7.166  12.883  0.9770 -0.0266 -0.1827
10175TIP3    H254721   8.189   7.169  12.814 -0.0918 -0.7163  1.8008
10176TIP3   OH254722   3.132   2.417  14.104 -0.4497  0.1690  0.0093
10176TIP3    H154723   3.115   2.371  14.186 -3.0855  1.3756  0.2503
10176TIP3    H254724   3.172   2.351  14.047  1.2194 -0.7485  2.1372
10177TIP3   OH254725   3.337   3.132  12.667 -0.4408  0.5558 -0.3363
10177TIP3    H154726   3.257   3.100  12.708  0.7303 -1.5644  0.4647
10177TIP3    H254727   3.362   3.208  12.719 -1.6737  0.9578 -0.3118
10178TIP3   OH254728   3.992   3.052  14.159 -0.5822  0.5461 -0.3156
10178TIP3    H154729   4.062   3.054  14.224 -0.7672 -0.7652 -0.0392
10178TIP3    H254730   4.031   3.090  14.080 -0.3409  2.1025  0.5224
10179TIP3   OH254731   8.313   3.908  12.127  0.6590  0.3685 -0.2477
10179TIP3    H154732   8.298   3.870  12.214 -0.2553 -0.5580 -0.7806
10179TIP3    H254733   8.246   3.976  12.119 -0.3092 -0.6024 -0.8008
10180TIP3   OH254734   7.812   5.627  13.952  0.1539  0.6916 -0.2840
10180TIP3    H154735   7.838   5.666  14.036  0.7337 -1.5831  0.6657
10180TIP3    H254736   7.891   5.632  13.898  0.3904  0.3536  0.0256
10181TIP3   OH254737   6.828   3.339  13.638  0.6901  0.1710  0.4538
10181TIP3    H154738   6.779   3.268  13.596  0.9506 -0.9227  1.9139
10181TIP3    H254739   6.784   3.353  13.722  1.2912  1.0133  0.6452
10182TIP3   OH254740   4.791   5.441  14.137 -0.2207 -0.2704  0.2643
10182TIP3    H154741   4.750   5.508  14.082 -0.7935 -0.6440  0.2207
10182TIP3    H254742   4.837   5.490  14.205  1.0684  0.2205 -0.9301
10183TIP3   OH254743   1.045   6.290  13.052 -0.1637  0.3738 -0.0539
10183TIP3    H154744   1.081   6.324  13.133 -1.2035  0.6720  0.2959
10183TIP3    H254745   1.120   6.254  13.005  0.9306  2.7925 -0.2748
10184TIP3   OH254746   0.557   7.216  13.563 -0.1580  0.0728 -0.0520
10184TIP3    H154747   0.508   7.286  13.606 -2.1417  0.1784 -2.2886
10184TIP3    H254748   0.628   7.261  13.516  0.2846  0.2417  0.7597
10185TIP3   OH254749   0.551   2.507  12.719  0.6218 -0.6884 -0.5481
10185TIP3    H154750   0.643   2.483  12.729 -0.0148 -2.5406  2.3217
10185TIP3    H254751   0.538   2.580  12.779 -0.1344 -1.7525  0.6428
10186TIP3   OH254752   4.148   6.487  13.183 -0.4713 -0.2348  0.9524
10186TIP3    H154753   4.137   6.560  13.245 -1.5186  0.5369 -0.0968
10186TIP3    H254754   4.228   6.508  13.136 -1.1172  0.6299  0.1938
10187TIP3   OH254755   7.224   1.078  12.171  0.1923 -0.2516  0.0320
10187TIP3    H154756   7.254   1.160  12.131 -2.0229  1.0489  0.8302
10187TIP3    H254757   7.219   1.016  12.098  1.0048  0.5859 -0.7615
10188TIP3   OH254758   2.032   5.706  13.618 -0.1427  0.4625 -0.0253
10188TIP3    H154759   2.113   5.736  13.659  0.5740 -0.5464 -0.6250
10188TIP3    H254760   1.974   5.782  13.619  0.2068  0.7589  1.8886
10189TIP3   OH254761   4.226   4.087  12.561  0.1792 -0.2367 -0.3109
10189TIP3    H154762   4.169   4.138  12.618  0.2177 -0.5193 -0.0189
10189TIP3    H254763   4.253   4.012  12.614  2.2269  0.7775  0.1856
10190TIP3   OH254764   4.741   3.962  13.007 -0.0990  0.2675  0.2611
10190TIP3    H154765   4.815   3.978  12.950 -0.1495  0.0961  0.1455
10190TIP3    H254766   4.676   4.028  12.983 -1.5428 -1.8612 -2.3427
10191TIP3   OH254767   0.170   8.425  12.285 -0.6053  0.3336  0.4246
10191TIP3    H154768   0.174   8.371  12.207 -1.5984 -0.0486  0.6233
10191TIP3    H254769   0.109   8.496  12.263  1.2298  1.8470 -0.0923
10192TIP3   OH254770   6.640   6.490  12.827  0.8157  0.2006  0.7038
10192TIP3    H154771   6.671   6.576  12.855  0.8849  0.7985 -1.0314
10192TIP3    H254772   6.675   6.480  12.738 -0.8291 -0.7208  0.1044
10193TIP3   OH254773   4.831   2.711  11.649 -0.2278 -0.0003 -0.2610
10193TIP3    H154774   4.775   2.717  11.726  0.3537  0.2193  0.1534
10193TIP3    H254775   4.771   2.707  11.575 -0.8025 -0.6332  0.2301
10194TIP3   OH254776   7.085   1.239  11.931 -0.0228  0.1009 -0.1519
10194TIP3    H154777   7.098   1.269  12.020  0.5154  0.5119 -0.3618
10194TIP3    H254778   6.990   1.247  11.916 -0.2274 -0.7294  0.6359
10195TIP3   OH254779   6.051   0.077  12.010  0.4616  0.1194 -0.1917
10195TIP3    H154780   5.976   0.083  11.951 -0.1540 -1.1138  0.4055
10195TIP3    H254781   6.116   0.026  11.962  1.3101  1.9681 -1.0624
10196TIP3   OH254782   6.832   5.894  12.571  0.6782 -0.3520 -0.4009
10196TIP3    H154783   6.787   5.810  12.563  1.7331 -1.0332  0.4662
10196TIP3    H254784   6.925   5.872  12.570  0.9686  0.6631  0.9981
10197TIP3   OH254785   4.696   1.430  12.357 -0.0721 -0.0664 -0.4278
10197TIP3    H154786   4.715   1.509  12.407  0.2343  0.1037 -0.8082
10197TIP3    H254787   4.601   1.423  12.357 -0.0674 -0.2361  0.4374
10198TIP3   OH254788   4.862   7.756  12.470  0.4355  0.1973 -0.1306
10198TIP3    H154789   4.835   7.785  12.383  0.4003  0.7179  0.0497
10198TIP3    H254790   4.845   7.831  12.527  1.1628  0.1276  0.1943
10199TIP3   OH254791   6.013   5.020  14.178  0.2089 -0.0531  0.8743
10199TIP3    H154792   6.105   5.029  14.152  0.7572 -0.5192  2.5081
10199TIP3    H254793   5.963   5.041  14.099  1.6445  3.0295  0.6310
10200TIP3   OH254794   2.770   6.800  12.883 -0.0214  0.5424  0.0137
10200TIP3    H154795   2.860   6.770  12.896  0.4439  1.9413  0.1916
10200TIP3    H254796   2.754   6.861  12.955 -0.3064  2.0268 -1.2406
10201TIP3   OH254797   7.846   4.936  11.377 -0.0891 -0.0107  0.2313
10201TIP3    H154798   7.794   4.997  11.325 -0.7615  1.0207  2.0372
10201TIP3    H254799   7.782   4.885  11.426  0.5663  0.0067  1.1239
10202TIP3   OH254800   4.494   1.230  13.659  0.1140 -0.2353  0.6203
10202TIP3    H154801   4.502   1.259  13.750  1.8421 -0.3728  0.5466
10202TIP3    H254802   4.411   1.268  13.629  0.3201  1.2135  1.7497
10203TIP3   OH254803   1.900   5.709  12.270  0.2568  0.0092 -0.0013
10203TIP3    H154804   1.930   5.642  12.333 -0.3356  1.1275  1.5429
10203TIP3    H254805   1.847   5.768  12.323  1.9396  2.5488 -0.9755
10204TIP3   OH254806   0.543   6.865  12.709 -0.0173  0.4272  0.1179
10204TIP3    H154807   0.544   6.891  12.617  3.4548 -0.9679 -0.3704
10204TIP3    H254808   0.573   6.942  12.756  1.2043  0.2231 -0.2969
10205TIP3   OH254809   3.043   5.612  12.153 -0.4212 -0.0788  0.3005
10205TIP3    H154810   3.013   5.635  12.241  1.1303  3.1515  0.1322
10205TIP3    H254811   3.139   5.612  12.160 -0.2622  0.8337 -1.5088
10206TIP3   OH254812   3.334   4.303  12.170 -0.1701  0.4497 -0.5782
10206TIP3    H154813   3.394   4.254  12.225  1.0775  1.4124 -1.0351
10206TIP3    H254814   3.314   4.382  12.220 -1.7241 -0.2147 -0.0876
10207TIP3   OH254815   1.310   2.016  11.807 -0.0817 -0.2397 -0.3113
10207TIP3    H154816   1.347   2.056  11.728 -0.4987  0.6624 -0.0636
10207TIP3    H254817   1.345   1.927  11.807  0.4810 -0.0348 -1.1415
10208TIP3   OH254818   4.943   1.564  12.708 -0.1714  0.6760  0.0457
10208TIP3    H154819   4.938   1.630  12.778 -1.0595 -0.4302  1.0853
10208TIP3    H254820   4.857   1.523  12.708  0.5085 -0.8333 -0.1930
10209TIP3   OH254821   2.121   4.974  12.817 -0.5317  0.2786  0.7577
10209TIP3    H154822   2.108   4.938  12.729 -0.8544  0.8308  0.5778
10209TIP3    H254823   2.082   4.908  12.875 -1.5730  0.5654  0.3990
10210TIP3   OH254824   3.268   2.235  12.229  0.1012 -0.9428  0.0911
10210TIP3    H154825   3.238   2.208  12.316 -0.0445  0.3380  0.4686
10210TIP3    H254826   3.228   2.173  12.169 -0.9967 -0.9777  0.8299
10211TIP3   OH254827   0.592   6.073  12.808 -0.1176  0.2847  0.1279
10211TIP3    H154828   0.500   6.047  12.809 -0.1473  0.3840  1.2712
10211TIP3    H254829   0.603   6.120  12.726 -0.9343 -0.2638 -0.3043
10212TIP3   OH254830   4.557   8.049  13.565 -0.5259 -0.6953 -0.5866
10212TIP3    H154831   4.501   8.001  13.626 -0.9342 -0.3030 -0.6439
10212TIP3    H254832   4.570   7.988  13.492 -2.1091 -0.2773 -1.2560
10213TIP3   OH254833   8.073   4.359  12.762  0.3549 -0.1219 -0.2952
10213TIP3    H154834   8.145   4.336  12.704  2.1550  0.2768  1.6894
10213TIP3    H254835   8.085   4.453  12.779 -2.1987  0.6327 -1.9256
10214TIP3   OH254836   6.317   0.206  13.453  0.2046  0.5266 -0.2383
10214TIP3    H154837   6.342   0.282  13.401  0.5906  0.0343 -0.7795
10214TIP3    H254838   6.259   0.242  13.520 -1.6702  0.9515 -1.9830
10215TIP3   OH254839   5.828   6.361  12.705 -0.0445 -0.3726  0.8012
10215TIP3    H154840   5.905   6.416  12.719 -0.0316  0.8250 -2.8630
10215TIP3    H254841   5.859   6.271  12.716  1.0301  0.1544  2.4346
10216TIP3   OH254842   7.421   4.175  12.722 -0.0337  0.2515  0.1761
10216TIP3    H154843   7.483   4.128  12.667  0.1754 -0.8524  1.2978
10216TIP3    H254844   7.458   4.169  12.810 -1.9829 -0.9768  0.9897
10217TIP3   OH254845   6.004   2.678  12.369 -0.1098 -0.3621  0.2192
10217TIP3    H154846   5.924   2.659  12.418 -0.2450  0.4486  0.3369
10217TIP3    H254847   6.074   2.640  12.422 -0.1343  1.4814  1.6993
10218TIP3   OH254848   3.256   2.192  14.321 -0.1216  0.0045  0.1468
10218TIP3    H154849   3.207   2.133  14.264 -1.1111  0.2892  0.6804
10218TIP3    H254850   3.226   2.170  14.409  0.3571  0.5145  0.4404
10219TIP3   OH254851   4.110   3.005  13.284  0.1009  0.8428 -0.0106
10219TIP3    H154852   4.106   3.028  13.376 -0.2703 -0.1930  0.2491
10219TIP3    H254853   4.178   3.061  13.248 -0.4605  1.9851  0.6606
10220TIP3   OH254854   7.083   3.315  12.989 -0.4741  0.0620  0.1621
10220TIP3    H154855   7.029   3.364  13.050  1.9007  0.0545  2.4192
10220TIP3    H254856   7.097   3.231  13.032  0.4104 -0.3598 -0.9065
10221TIP3   OH254857   7.972   1.782  12.107  0.0853 -0.3271  0.2331
10221TIP3    H154858   8.049   1.794  12.163  1.3320  0.5153 -1.5514
10221TIP3    H254859   7.916   1.856  12.126 -0.3778 -1.0154  1.6487
10222TIP3   OH254860   0.276   5.156  12.601 -0.3508 -0.4863  0.0580
10222TIP3    H154861   0.333   5.231  12.617 -1.9060  0.5078  1.2605
10222TIP3    H254862   0.256   5.160  12.508 -1.4528  1.4219  0.3263
10223TIP3   OH254863   5.519   0.781  12.869  0.5927  0.1146 -0.0889
10223TIP3    H154864   5.485   0.754  12.955  0.1658  0.1344 -0.2467
10223TIP3    H254865   5.535   0.698  12.823 -0.2721  0.1064 -0.4017
10224TIP3   OH254866   8.020   5.194  13.631  0.3686 -0.3112  0.4799
10224TIP3    H154867   7.973   5.263  13.584 -0.6909 -0.3620  1.4148
10224TIP3    H254868   7.964   5.117  13.623  0.5131 -0.4999  1.2059
10225TIP3   OH254869   5.276   6.386  13.613 -0.0561  0.3015 -0.2942
10225TIP3    H154870   5.326   6.444  13.555  0.2397  0.9914  0.6288
10225TIP3    H254871   5.264   6.437  13.693  0.6556 -1.0872  0.7313
10226TIP3   OH254872   7.629   5.821  13.859 -0.1599 -0.4143 -0.1441
10226TIP3    H154873   7.661   5.757  13.922  1.2130  1.4372  1.1269
10226TIP3    H254874   7.569   5.876  13.908 -1.7805 -0.9927 -1.3690
10227TIP3   OH254875   0.808   4.206  12.866  0.1099 -0.0371  0.1269
10227TIP3    H154876   0.726   4.245  12.836  0.0004 -2.1053 -2.7118
10227TIP3    H254877   0.782   4.129  12.915  0.3035 -0.5572 -0.5617
10228TIP3   OH254878   6.025   4.451  13.580  0.3705 -0.4356 -0.0563
10228TIP3    H154879   6.001   4.360  13.596  1.9969 -0.6825  1.2587
10228TIP3    H254880   6.015   4.463  13.486 -3.0554 -0.9668  0.0958
10229TIP3   OH254881   2.100   3.947  12.848 -0.5234  0.2238  0.1071
10229TIP3    H154882   2.022   3.969  12.900 -1.2444  2.9526 -1.8539
10229TIP3    H254883   2.077   3.974  12.759  1.8982 -0.9864 -0.9787
10230TIP3   OH254884   7.334   4.630  11.527 -0.0121 -0.5343  0.0923
10230TIP3    H154885   7.336   4.725  11.533 -0.6185 -0.6180  2.3724
10230TIP3    H254886   7.331   4.600  11.618 -1.7244 -2.6732 -0.5882
10231TIP3   OH254887   1.492   2.711  12.567  0.1797 -0.5778 -0.0524
10231TIP3    H154888   1.440   2.636  12.539  0.2934 -0.0511 -1.8086
10231TIP3    H254889   1.567   2.673  12.612 -1.5111 -1.3572  2.2640
10232TIP3   OH254890   5.422   0.721  13.534 -0.3172  0.4979  0.2452
10232TIP3    H154891   5.482   0.716  13.609 -1.0890  0.2367  0.8586
10232TIP3    H254892   5.480   0.727  13.458  0.4843  0.6491  0.8496
10233TIP3   OH254893   3.909   2.351  12.060  0.0576  0.4676  0.3392
10233TIP3    H154894   3.953   2.356  12.144 -3.3847 -1.8586  2.5490
10233TIP3    H254895   3.848   2.425  12.060 -0.9429 -0.3346  0.6002
10234TIP3   OH254896   1.052   1.027  13.182 -0.0612 -0.0241  0.1897
10234TIP3    H154897   1.067   1.089  13.253 -2.3172 -0.7234  1.3847
10234TIP3    H254898   1.078   0.942  13.218  0.5964 -0.1396 -0.5242
10235TIP3   OH254899   4.732   0.589  13.197 -0.2683 -0.3468 -0.5284
10235TIP3    H154900   4.673   0.535  13.145  0.3517 -1.0111 -0.5569
10235TIP3    H254901   4.726   0.676  13.158 -1.8331 -0.1886 -0.0370
10236TIP3   OH254902   0.439   6.557  11.859 -0.9787 -0.3998  0.3268
10236TIP3    H154903   0.409   6.641  11.823 -1.5101 -0.8517 -0.3170
10236TIP3    H254904   0.378   6.493  11.822 -0.8149 -1.0232  1.1221
10237TIP3   OH254905   0.544   2.078  12.990  0.3615  0.5172  0.2567
10237TIP3    H154906   0.537   2.159  12.940 -0.1592  0.5186  0.3228
10237TIP3    H254907   0.523   2.009  12.927 -0.3366  0.5218  0.4733
10238TIP3   OH254908   0.848   0.409  13.748 -0.0809 -0.4200  0.6244
10238TIP3    H154909   0.935   0.418  13.709 -0.2322 -0.6048  0.2313
10238TIP3    H254910   0.863   0.409  13.842  0.2566  0.4567  0.5750
10239TIP3   OH254911   4.821   6.046  12.877 -0.0226  0.1115  0.5993
10239TIP3    H154912   4.884   6.075  12.943  0.5324  0.2595  0.0172
10239TIP3    H254913   4.860   6.072  12.794 -0.0888 -1.2351  0.1307
10240TIP3   OH254914   6.945   0.808  11.511  0.2487  0.3847  0.4330
10240TIP3    H154915   7.013   0.857  11.465 -0.0946  1.5323  1.1152
10240TIP3    H254916   6.990   0.729  11.543  1.0981  0.8088  0.3194
10241TIP3   OH254917   0.481   3.204  11.737  0.0597  0.1032  0.2192
10241TIP3    H154918   0.547   3.162  11.791 -0.3830  0.2040  0.8545
10241TIP3    H254919   0.528   3.232  11.659  0.6277 -0.4028  0.3718
10242TIP3   OH254920   5.971   4.954  13.614  0.4004  0.0172  0.7505
10242TIP3    H154921   6.038   5.020  13.634  1.3482  0.0987 -2.1543
10242TIP3    H254922   5.890   5.004  13.607  0.7006  0.5246  0.8295
10243TIP3   OH254923   0.776   4.173  13.180 -0.6942 -0.0143 -0.1328
10243TIP3    H154924   0.748   4.139  13.265  0.4984 -2.6767 -0.7238
10243TIP3    H254925   0.758   4.102  13.118  0.6987  0.9291 -1.7035
10244TIP3   OH254926   2.483   0.589  13.868  0.0014  0.0204  0.3184
10244TIP3    H154927   2.397   0.547  13.873  1.0313 -2.3285 -0.1912
10244TIP3    H254928   2.464   0.681  13.850 -2.4176 -0.7388 -1.6191
10245TIP3   OH254929   3.730   1.928  12.580 -0.2988  0.1132 -0.9653
10245TIP3    H154930   3.671   1.909  12.507 -1.9933  0.0728  0.3340
10245TIP3    H254931   3.692   2.007  12.621  0.1682 -0.2720  0.2723
10246TIP3   OH254932   0.905   6.295  12.675 -0.1641  0.8528 -0.2476
10246TIP3    H154933   0.908   6.312  12.581 -0.9450  1.3322 -0.2002
10246TIP3    H254934   0.913   6.200  12.683 -2.0268  0.5873 -0.9368
10247TIP3   OH254935   7.444   6.290  11.479  0.0754 -0.2147 -0.0878
10247TIP3    H154936   7.500   6.308  11.554  0.0826  0.2354 -0.1971
10247TIP3    H254937   7.504   6.257  11.411 -0.0560 -1.4604  0.3847
10248TIP3   OH254938   3.335   1.205  11.549  0.1830  0.2919 -0.9071
10248TIP3    H154939   3.362   1.127  11.500  1.2586  0.5355 -0.7223
10248TIP3    H254940   3.240   1.196  11.559  0.2358 -0.7515 -1.3001
10249TIP3   OH254941   6.040   0.961  12.339  0.5265 -0.3039  0.0364
10249TIP3    H154942   6.011   1.052  12.340  1.1793 -0.0862  0.0279
10249TIP3    H254943   6.063   0.944  12.248  1.1779 -0.2142  0.1762
10250TIP3   OH254944   5.085   7.356  12.566  0.3001  0.4082  0.2632
10250TIP3    H154945   5.157   7.413  12.593  1.6923 -0.2585 -1.8009
10250TIP3    H254946   5.126   7.272  12.547 -1.1754 -0.2876 -0.0262
10251TIP3   OH254947   0.203   3.952  11.419 -0.0509  0.0698  0.4723
10251TIP3    H154948   0.268   3.993  11.476 -0.0991 -0.1889  0.7183
10251TIP3    H254949   0.166   3.881  11.473 -1.8383  1.3436  1.0183
10252TIP3   OH254950   7.609   7.796  12.191  0.3460 -0.5974 -0.3242
10252TIP3    H154951   7.674   7.802  12.261  0.4256  1.0264 -0.4986
10252TIP3    H254952   7.539   7.741  12.227  0.5479 -0.0746  0.9041
10253TIP3   OH254953   8.373   2.975  11.588  0.0247  0.6252  0.1340
10253TIP3    H154954   8.445   2.917  11.564  0.0827  0.5154  0.5661
10253TIP3    H254955   8.400   3.061  11.555  0.1847  0.5131 -0.0290
10254TIP3   OH254956   0.976   1.578  11.956  0.9302  0.3329  0.0159
10254TIP3    H154957   0.901   1.633  11.978  2.0531  2.2506 -0.7176
10254TIP3    H254958   0.996   1.600  11.865  2.2449 -0.2685  0.1330
10255TIP3   OH254959   8.319   2.723  13.137 -0.6552  0.1763  0.4172
10255TIP3    H154960   8.280   2.799  13.180  0.3591  0.5132  0.7833
10255TIP3    H254961   8.380   2.688  13.202 -0.4001 -0.3681 -0.1053
10256TIP3   OH254962   5.041   0.948  12.524 -0.5849 -0.3028  0.2471
10256TIP3    H154963   4.989   1.000  12.585 -1.9872 -0.7249 -0.5526
10256TIP3    H254964   5.079   0.879  12.578  0.3878  0.8563  1.1110
10257TIP3   OH254965   8.443   0.570  11.825  0.6455  0.5299 -0.5944
10257TIP3    H154966   8.425   0.652  11.870 -0.1529 -0.1151  0.2990
10257TIP3    H254967   8.428   0.502  11.891  1.0097 -0.3538 -1.3906
10258TIP3   OH254968   0.104   6.748  11.860  0.1079  0.5704  0.3982
10258TIP3    H154969   0.156   6.738  11.940  1.0808 -0.6111 -0.3484
10258TIP3    H254970   0.140   6.826  11.818  2.0911 -0.8121 -0.6306
10259TIP3   OH254971   3.284   5.128  12.731  0.0762 -0.3917  0.6375
10259TIP3    H154972   3.194   5.120  12.700  0.6697  0.1387 -1.3747
10259TIP3    H254973   3.332   5.165  12.657  2.1676 -1.6127  1.2862
10260TIP3   OH254974   3.240   3.934  12.950  0.3290  0.3105 -0.7551
10260TIP3    H154975   3.246   3.847  12.911  0.5763 -0.5516  1.0973
10260TIP3    H254976   3.150   3.941  12.981  1.2500 -0.9559  2.5880
10261TIP3   OH254977   6.599   2.027  12.747 -0.1047 -0.2449  0.1697
10261TIP3    H154978   6.636   2.115  12.745 -1.1132  0.2267  1.3414
10261TIP3    H254979   6.553   2.019  12.663 -0.8314  0.7248  0.4578
10262TIP3   OH254980   1.939   6.795  13.316  0.4201 -0.1223  0.0157
10262TIP3    H154981   1.941   6.866  13.380  3.3075 -1.0669  1.1388
10262TIP3    H254982   2.023   6.801  13.271 -0.5071 -1.0627 -1.9584
10263TIP3   OH254983   5.666   8.218  13.165  0.5477  0.0406 -0.7790
10263TIP3    H154984   5.700   8.137  13.203  0.5524 -1.4699 -3.7032
10263TIP3    H254985   5.741   8.258  13.121  0.2883  1.0595 -0.3199
10264TIP3   OH254986   6.641   2.453  12.279 -0.1559 -0.6904 -0.0618
10264TIP3    H154987   6.727   2.481  12.310  0.6728 -2.6032 -0.4540
10264TIP3    H254988   6.597   2.418  12.356 -0.5825  0.2685  0.1351
10265TIP3   OH254989   0.041   4.288  11.648  0.3711  0.3828 -0.3369
10265TIP3    H154990   0.004   4.285  11.736 -0.0445  1.5253 -0.4535
10265TIP3    H254991   0.103   4.215  11.645  1.4890  1.2037  1.4050
10266TIP3   OH254992   2.447   4.027  13.450 -0.5339 -0.0688 -0.1127
10266TIP3    H154993   2.455   3.976  13.369 -1.5665 -1.8183  0.8354
10266TIP3    H254994   2.374   3.987  13.497  0.6884  0.2340  2.1675
10267TIP3   OH254995   2.701   7.468  13.148 -0.3212  0.6847  0.3171
10267TIP3    H154996   2.670   7.422  13.227  0.5615 -0.1363  0.2008
10267TIP3    H254997   2.649   7.548  13.146 -4.2526 -1.5848 -1.1263
10268TIP3   OH254998   0.457   2.976  12.957  0.3989  0.1803  0.4461
10268TIP3    H154999   0.437   2.918  12.884  0.8520  1.2216 -0.5385
10268TIP3    H255000   0.374   3.019  12.977 -0.4334 -2.1499  2.4869
10269TIP3   OH255001   8.055   3.027  13.063  0.1688 -0.0132 -0.8226
10269TIP3    H155002   8.047   2.970  13.139 -0.2739 -2.0462 -2.3132
10269TIP3    H255003   8.150   3.032  13.047  0.3073  0.8862  0.1384
10270TIP3   OH255004   0.314   2.295  13.548  0.2842  0.3351 -0.1582
10270TIP3    H155005   0.387   2.317  13.491 -0.8920 -0.1449 -1.9393
10270TIP3    H255006   0.353   2.283  13.634  1.9285  2.4792 -0.5407
10271TIP3   OH255007   4.396   5.827  12.636 -0.5573 -0.1437 -0.2370
10271TIP3    H155008   4.332   5.880  12.684  1.1077  1.2863  0.5394
10271TIP3    H255009   4.428   5.764  12.700  0.4033  0.6276  0.0732
10272TIP3   OH255010   6.946   0.911  13.699  0.3831  0.1081 -0.2109
10272TIP3    H155011   6.905   0.944  13.779  1.7690  0.7910  0.2484
10272TIP3    H255012   7.035   0.889  13.725  0.5852 -0.5442 -1.3735
10273TIP3   OH255013   2.089   2.556  11.737 -0.4526 -0.4879  0.2337
10273TIP3    H155014   2.105   2.650  11.744 -1.0197 -0.2516 -1.3806
10273TIP3    H255015   1.999   2.545  11.767 -0.7796 -0.3398 -0.6679
10274TIP3   OH255016   4.927   5.389  13.443  0.2417 -0.8718 -0.3453
10274TIP3    H155017   5.000   5.422  13.495  0.6043 -0.5046 -1.0739
10274TIP3    H255018   4.968   5.352  13.365 -0.3656 -0.4077 -0.8964
10275TIP3   OH255019   6.625   2.118  11.683  0.4191 -0.0310  0.3796
10275TIP3    H155020   6.674   2.109  11.601  0.0373 -1.8971  0.2959
10275TIP3    H255021   6.692   2.114  11.751  0.5284 -1.5300  0.2273
10276TIP3   OH255022   8.323   4.142  12.841  0.5336  0.0939 -0.3073
10276TIP3    H155023   8.405   4.093  12.849 -0.4983 -1.5067  1.2155
10276TIP3    H255024   8.318   4.166  12.748  1.7124 -1.6205 -0.8584
10277TIP3   OH255025   4.012   1.991  12.103 -0.4518 -0.5184  0.2985
10277TIP3    H155026   3.958   2.068  12.118  0.0524 -0.2453  0.7215
10277TIP3    H255027   3.988   1.962  12.015 -0.3340  0.3741 -0.0355
10278TIP3   OH255028   5.866   3.939  12.371 -0.0777 -0.0765  0.2231
10278TIP3    H155029   5.859   4.033  12.353 -1.3775  0.1510  1.6927
10278TIP3    H255030   5.957   3.926  12.396  0.5123  0.4752 -1.4746
10279TIP3   OH255031   8.217   6.142  13.300  0.7983 -0.7171 -0.4673
10279TIP3    H155032   8.145   6.116  13.243  1.9034 -0.9816 -1.7876
10279TIP3    H255033   8.266   6.206  13.249  1.4466 -0.4751  0.4427
10280TIP3   OH255034   7.036   7.240  11.931  0.3373  0.0321  0.1144
10280TIP3    H155035   7.013   7.318  11.881 -0.1857 -0.9728 -1.2979
10280TIP3    H255036   7.125   7.218  11.903  1.1945  1.1061  1.8608
10281TIP3   OH255037   5.161   5.055  13.695  0.1318 -0.8440 -0.1695
10281TIP3    H155038   5.210   5.078  13.617  0.2632 -1.8993 -0.4072
10281TIP3    H255039   5.227   5.052  13.765 -0.0235  0.3386  0.0460
10282TIP3   OH255040   1.917   0.217  11.897  0.8443  0.1469  0.3181
10282TIP3    H155041   1.934   0.311  11.907 -0.1328  0.2595  1.0621
10282TIP3    H255042   1.990   0.175  11.942  1.6352  0.5202 -0.5636
10283TIP3   OH255043   7.145   0.723  12.114 -0.6420 -0.1507  0.3876
10283TIP3    H155044   7.071   0.781  12.095 -0.7399 -0.8434 -1.5053
10283TIP3    H255045   7.111   0.635  12.101  0.5259 -0.4807 -0.6045
10284TIP3   OH255046   8.071   1.669  12.391  0.2680 -0.1160 -0.2388
10284TIP3    H155047   8.162   1.668  12.420  0.2216  1.6903  0.0557
10284TIP3    H255048   8.063   1.590  12.338  2.5629  0.6570 -1.9275
10285TIP3   OH255049   5.398   0.770  13.100  0.0801  0.3435  0.3279
10285TIP3    H155050   5.329   0.719  13.057  1.1307  0.6807 -1.9129
10285TIP3    H255051   5.353   0.849  13.131 -1.4680 -1.5279  3.4070
10286TIP3   OH255052   8.241   3.440  11.613 -0.6414  1.0297  0.0315
10286TIP3    H155053   8.243   3.345  11.627 -0.9815  1.0074 -0.0581
10286TIP3    H255054   8.153   3.457  11.579 -0.6548  1.4057  0.2457
10287TIP3   OH255055   6.995   3.962  11.853  0.6231  0.2369  0.0413
10287TIP3    H155056   7.051   3.891  11.884 -0.2670 -0.5965 -0.2170
10287TIP3    H255057   7.044   4.042  11.872  2.0101 -0.4800 -0.4272
10288TIP3   OH255058   5.437   8.394  13.159  0.0596  0.2607  0.4595
10288TIP3    H155059   5.499   8.321  13.162  2.5030  2.2016  0.7154
10288TIP3    H255060   5.421   8.416  13.251 -1.1742 -0.3069  0.3982
10289TIP3   OH255061   6.737   5.059  11.418  0.7058  0.2043  0.2294
10289TIP3    H155062   6.759   5.112  11.495  1.4585  0.6329 -0.2684
10289TIP3    H255063   6.772   5.109  11.344 -0.1174 -0.1438 -0.4094
10290TIP3   OH255064   2.141   2.655  12.169 -0.3795 -0.5758 -0.3364
10290TIP3    H155065   2.210   2.680  12.231 -0.0024 -3.7690  0.7135
10290TIP3    H255066   2.180   2.583  12.119 -2.1716 -0.8816 -1.3546
10291TIP3   OH255067   4.061   1.765  11.656  0.1065 -0.0677 -0.0556
10291TIP3    H155068   4.075   1.700  11.586 -1.6068 -0.6834  0.1293
10291TIP3    H255069   4.109   1.729  11.731  2.1930  0.7322 -0.9256
10292TIP3   OH255070   0.182   0.321  13.350  0.1928 -0.3065 -0.5740
10292TIP3    H155071   0.117   0.349  13.286 -1.2404 -0.5100  0.7330
10292TIP3    H255072   0.147   0.240  13.387  0.3423  0.4437  1.3314
10293TIP3   OH255073   7.269   0.246  13.877  0.1144  0.1832  0.6298
10293TIP3    H155074   7.240   0.288  13.795 -1.6547  0.4091  1.3332
10293TIP3    H255075   7.362   0.225  13.861  0.3791  2.0517 -0.6781
10294TIP3   OH255076   4.410   5.368  11.841  0.1808  0.0685  0.1898
10294TIP3    H155077   4.449   5.456  11.839  0.3964  0.1385  3.1731
10294TIP3    H255078   4.485   5.309  11.841  0.0362 -0.1685 -1.6963
10295TIP3   OH255079   2.654   2.228  13.382 -0.2309 -0.6631 -0.3042
10295TIP3    H155080   2.654   2.320  13.355  0.2907 -0.2728  0.9882
10295TIP3    H255081   2.614   2.229  13.469  1.4678 -1.4075  0.5188
10296TIP3   OH255082   4.396   1.789  11.963 -0.0237  0.7805 -0.1345
10296TIP3    H155083   4.472   1.796  12.020 -1.3039 -2.0651  2.1587
10296TIP3    H255084   4.431   1.751  11.882  0.8268 -2.6496  1.6756
10297TIP3   OH255085   6.632   1.518  11.832 -0.1364  0.4714 -0.7186
10297TIP3    H155086   6.656   1.433  11.796 -1.1105  1.0689 -2.9505
10297TIP3    H255087   6.715   1.558  11.858  0.6055 -0.0883 -2.1364
10298TIP3   OH255088   8.043   2.241  12.653 -0.3151 -0.2074 -0.0328
10298TIP3    H155089   7.976   2.247  12.721  0.9202  0.3387  1.1712
10298TIP3    H255090   8.008   2.292  12.580 -1.6058 -0.7071  0.2019
10299TIP3   OH255091   4.255   5.522  12.550 -0.0194  0.0797  0.2769
10299TIP3    H155092   4.167   5.541  12.580 -0.1144  1.0105 -0.5481
10299TIP3    H255093   4.284   5.449  12.604 -1.5773 -0.7470  0.0271
10300TIP3   OH255094   7.106   3.520  11.832 -0.0204  0.0278 -0.0449
10300TIP3    H155095   7.038   3.543  11.769 -0.1382 -2.3109 -0.8715
10300TIP3    H255096   7.131   3.603  11.872 -1.7941  1.2305 -1.2981
10301TIP3   OH255097   7.504   4.715  12.572  1.2101  0.0544 -0.0813
10301TIP3    H155098   7.510   4.629  12.612  0.3679  0.5535  1.1697
10301TIP3    H255099   7.506   4.776  12.646 -0.9416  0.9894 -0.7239
10302TIP3   OH255100   2.637   1.077  11.662  0.3949  0.4320  0.0187
10302TIP3    H155101   2.634   1.095  11.756  0.9924 -1.9003  0.5541
10302TIP3    H255102   2.570   1.134  11.624 -1.3674 -0.1090  2.1377
10303TIP3   OH255103   3.721   5.865  12.857 -0.1036 -0.0978  0.5304
10303TIP3    H155104   3.687   5.822  12.778 -1.2051 -2.0133  1.9671
10303TIP3    H255105   3.687   5.954  12.852 -0.9870 -0.4795 -0.6831
10304TIP3   OH255106   7.381   3.017  12.245 -0.1630  0.5425  0.0424
10304TIP3    H155107   7.399   3.058  12.330 -1.4061  0.2191  0.4960
10304TIP3    H255108   7.326   2.942  12.267 -2.9655  2.0472 -1.2289
10305TIP3   OH255109   1.640   0.287  11.979 -0.0163 -0.1318  0.3593
10305TIP3    H155110   1.639   0.248  12.067 -0.2607  2.3831  1.5856
10305TIP3    H255111   1.727   0.269  11.946  0.3937 -0.3762  1.5071
10306TIP3   OH255112   5.735   0.703  11.695  0.5791  0.2268  0.2410
10306TIP3    H155113   5.709   0.701  11.787  1.6473 -0.6805  0.5539
10306TIP3    H255114   5.704   0.620  11.659 -1.1101  1.1824 -0.6274
10307TIP3   OH255115   4.363   2.728  11.792 -0.0446 -0.2407 -0.3285
10307TIP3    H155116   4.455   2.724  11.766 -0.1948  0.7013 -1.0534
10307TIP3    H255117   4.338   2.820  11.779 -1.3947 -0.7022 -1.2386
10308TIP3   OH255118   1.279   1.519  12.952 -0.0551 -0.4757 -0.0640
10308TIP3    H155119   1.210   1.551  13.010  0.2720 -0.3635  0.2726
10308TIP3    H255120   1.358   1.521  13.006  0.3617  0.1627 -0.6850
10309TIP3   OH255121   0.504   4.274  12.740 -0.5583  0.2027 -0.0600
10309TIP3    H155122   0.420   4.289  12.784 -1.5856 -0.2726 -1.7520
10309TIP3    H255123   0.515   4.349  12.682  0.6135  0.6673  0.7314
10310TIP3   OH255124   5.287   3.448  12.959 -0.4506  0.2131 -0.2462
10310TIP3    H155125   5.242   3.453  12.875 -1.4454 -0.7053  0.2037
10310TIP3    H255126   5.267   3.532  13.002 -0.7136  0.3023 -0.5413
10311TIP3   OH255127   0.170   2.008  12.737  0.2775  0.2598 -0.0255
10311TIP3    H155128   0.125   1.937  12.691  1.9497 -0.3571 -0.8052
10311TIP3    H255129   0.150   1.993  12.829 -2.1776  0.8282 -0.4096
10312TIP3   OH255130   1.104   2.590  12.409  0.0345  0.7773 -0.2108
10312TIP3    H155131   1.021   2.556  12.441 -0.1244  1.7992  0.5393
10312TIP3    H255132   1.122   2.665  12.466  0.9624  1.1861 -1.0168
10313TIP3   OH255133   4.344   4.175  12.297  0.1791 -0.1231  0.1278
10313TIP3    H155134   4.309   4.148  12.381  0.1275  0.1048  0.1786
10313TIP3    H255135   4.433   4.204  12.316  0.2046 -0.1717  0.0859
10314TIP3   OH255136   8.152   6.516  12.405 -0.3311  0.5100 -0.0163
10314TIP3    H155137   8.134   6.433  12.449  2.1765  0.1495  0.5116
10314TIP3    H255138   8.099   6.580  12.451 -1.1041 -0.5536  0.6206
10315TIP3   OH255139   4.313   4.304  13.291  0.0669 -0.0335  0.1125
10315TIP3    H155140   4.389   4.279  13.238  2.0132 -0.8920  3.1027
10315TIP3    H255141   4.339   4.386  13.333 -1.7673  1.0672 -0.7547
10316TIP3   OH255142   4.257   7.696  12.292  0.4997 -0.1392  0.7674
10316TIP3    H155143   4.318   7.635  12.334  1.3329 -0.3158 -0.6341
10316TIP3    H255144   4.173   7.649  12.291  1.5350 -2.1705 -2.0259
10317TIP3   OH255145   0.823   2.962  13.564 -0.3385 -0.1493 -0.8508
10317TIP3    H155146   0.780   3.040  13.530 -0.3866 -0.1646 -0.8249
10317TIP3    H255147   0.775   2.889  13.525  0.3085 -0.1644 -1.6389
10318TIP3   OH255148   4.527   0.577  12.331  0.5943 -0.3679 -0.0922
10318TIP3    H155149   4.506   0.484  12.325  0.4675 -0.4416  1.2470
10318TIP3    H255150   4.532   0.595  12.425  0.1778  1.0769 -0.3166
10319TIP3   OH255151   6.581   0.453  12.479 -0.0332  1.1335 -0.5832
10319TIP3    H155152   6.574   0.546  12.497  0.2158  1.1372 -0.4934
10319TIP3    H255153   6.520   0.411  12.539  0.3561  1.1894 -0.1458
10320TIP3   OH255154   2.437   7.989  12.315  0.2358 -0.1060  0.3166
10320TIP3    H155155   2.381   8.050  12.266 -0.7985 -0.9107  0.4802
10320TIP3    H255156   2.383   7.912  12.328  1.5351 -1.0787  0.1218
10321TIP3   OH255157   4.457   5.511  12.307 -0.3844 -0.7543  0.4361
10321TIP3    H155158   4.416   5.530  12.391 -0.2620 -0.3245  0.4020
10321TIP3    H255159   4.403   5.442  12.269 -0.9001 -0.4024  0.5249
10322TIP3   OH255160   1.478   1.659  13.822  0.4888  0.0098  0.5520
10322TIP3    H155161   1.481   1.747  13.786  0.6709 -0.4304 -0.5823
10322TIP3    H255162   1.388   1.647  13.851  0.4685  0.5742  0.7157
10323TIP3   OH255163   2.583   4.281  12.926  0.3773 -0.3560 -0.0859
10323TIP3    H155164   2.509   4.221  12.933  0.4763 -0.4205  0.4763
10323TIP3    H255165   2.604   4.303  13.017 -0.9839  2.1864 -0.2992
10324TIP3   OH255166   5.894   6.698  13.153 -0.2821 -0.5205 -0.3723
10324TIP3    H155167   5.892   6.653  13.238 -0.5191  0.6131  0.2516
10324TIP3    H255168   5.986   6.722  13.141 -0.1951 -0.9578 -0.5928
10325TIP3   OH255169   3.971   2.116  12.639  0.0948  0.4431  0.6674
10325TIP3    H155170   3.941   2.032  12.604  1.4377  0.4185 -0.5145
10325TIP3    H255171   4.006   2.095  12.725  0.1204 -0.1618  0.5178
10326TIP3   OH255172   7.717   0.489  11.889 -0.0129  0.0805  0.3306
10326TIP3    H155173   7.747   0.553  11.825 -0.3141  0.1208  0.2281
10326TIP3    H255174   7.624   0.475  11.869 -0.4539  1.0525  1.5417
10327TIP3   OH255175   2.918   0.171  12.982  0.8972 -0.1840  0.3552
10327TIP3    H155176   2.854   0.161  12.911  0.8473 -0.4266  0.4351
10327TIP3    H255177   2.985   0.229  12.946  0.1699  0.8278  0.5694
10328TIP3   OH255178   6.918   1.546  12.463  0.1833 -0.0653  0.0699
10328TIP3    H155179   7.013   1.556  12.457  0.0646  1.3249  0.0936
10328TIP3    H255180   6.887   1.564  12.374 -0.0415 -0.7984 -0.0010
10329TIP3   OH255181   0.893   6.075  12.038 -0.1219 -0.2385 -0.4954
10329TIP3    H155182   0.887   6.046  12.129  0.5389  2.2267  0.4107
10329TIP3    H255183   0.807   6.114  12.020 -0.7181 -1.9029 -1.4166
10330TIP3   OH255184   2.031   2.782  12.788 -0.5205  0.0280 -0.2323
10330TIP3    H155185   2.017   2.714  12.722  1.9569 -1.7728  0.9446
10330TIP3    H255186   2.119   2.765  12.822  0.3770  4.0167 -0.0264
10331TIP3   OH255187   6.569   3.473  13.142  0.2835  0.4294  0.0107
10331TIP3    H155188   6.527   3.530  13.206 -0.1108  4.2413 -3.2058
10331TIP3    H255189   6.502   3.459  13.074  1.6869 -0.4195 -1.2726
10332TIP3   OH255190   1.172   7.229  12.256 -0.2934  0.3444  0.3267
10332TIP3    H155191   1.103   7.230  12.190  0.8114  1.3185 -0.8639
10332TIP3    H255192   1.181   7.321  12.283  3.3896  1.1128 -2.7299
10333TIP3   OH255193   1.467   1.040  12.752 -0.6454 -0.4333 -0.0727
10333TIP3    H155194   1.395   1.052  12.691 -0.4467 -0.1540 -0.2602
10333TIP3    H255195   1.426   1.031  12.838 -0.9000 -0.1803 -0.1667
10334TIP3   OH255196   8.068   7.735  12.856 -0.4440  0.0345  0.0177
10334TIP3    H155197   8.160   7.755  12.841 -0.6469  0.5863 -0.5649
10334TIP3    H255198   8.064   7.640  12.861  0.2035  0.0242  0.3699
10335TIP3   OH255199   4.595   6.064  13.022  0.0121 -0.6025 -0.0199
10335TIP3    H155200   4.685   6.048  12.994 -0.2482 -0.3369 -1.0257
10335TIP3    H255201   4.587   6.159  13.024 -0.3167 -0.6292 -0.1422
10336TIP3   OH255202   6.152   0.183  13.719 -0.0857 -0.0281  0.0609
10336TIP3    H155203   6.107   0.212  13.798  2.1948  0.5313  1.2128
10336TIP3    H255204   6.162   0.088  13.730  2.0462  0.3095  1.4909
10337TIP3   OH255205   8.197   0.826  12.349 -0.1294  0.0116  0.4486
10337TIP3    H155206   8.284   0.866  12.344 -1.0648  2.2357  0.9851
10337TIP3    H255207   8.200   0.770  12.427  0.7011  0.3408  0.6593
10338TIP3   OH255208   4.909   4.515  13.563  0.5635  0.1408 -0.2176
10338TIP3    H155209   4.897   4.449  13.495  1.8029 -1.7294  1.2978
10338TIP3    H255210   4.825   4.516  13.611  0.6377 -0.5661 -0.0639
10339TIP3   OH255211   1.232   0.859  12.703 -0.3918  0.3139 -0.4631
10339TIP3    H155212   1.156   0.807  12.675 -0.1209 -0.2517 -0.1757
10339TIP3    H255213   1.214   0.878  12.795 -0.5701  0.8756 -0.6159
10340TIP3   OH255214   1.135   4.426  12.916  0.1120  0.2567  0.9417
10340TIP3    H155215   1.077   4.409  12.842 -1.2900  1.4966  1.7072
10340TIP3    H255216   1.147   4.340  12.956 -0.5192 -0.1491  0.2857
10341TIP3   OH255217   5.735   4.331  13.357  0.1136 -0.9867 -0.7771
10341TIP3    H155218   5.827   4.360  13.357 -0.7738  2.2231 -0.5667
10341TIP3    H255219   5.704   4.350  13.445 -1.7698  2.0179 -1.9514
10342TIP3   OH255220   7.903   6.659  13.010 -0.1752 -0.2100 -0.2883
10342TIP3    H155221   7.918   6.615  13.094  0.9265 -0.6546 -0.7064
10342TIP3    H255222   7.812   6.638  12.989 -0.9271  1.0725  1.4568
10343TIP3   OH255223   5.964   4.881  13.120 -0.1927  0.0449 -0.3276
10343TIP3    H155224   6.039   4.826  13.143 -0.5260 -0.1970  0.1994
10343TIP3    H255225   5.889   4.823  13.128 -0.6963  0.8636  1.4878
10344TIP3   OH255226   5.837   0.163  13.173 -0.4526  0.4870  0.6387
10344TIP3    H155227   5.857   0.091  13.113  0.0832  2.4335 -1.6969
10344TIP3    H255228   5.757   0.136  13.217 -0.9320 -1.0370 -1.0417
10345TIP3   OH255229   3.761   3.178  14.014 -0.1209 -0.0024 -0.0414
10345TIP3    H155230   3.687   3.229  14.046  1.8187  2.9391  0.1944
10345TIP3    H255231   3.817   3.166  14.091  0.0967 -1.3705 -0.3865
10346TIP3   OH255232   4.393   0.651  11.850  0.1880 -0.0638 -0.3801
10346TIP3    H155233   4.335   0.726  11.860  0.8004  0.4941 -0.9148
10346TIP3    H255234   4.374   0.596  11.926 -0.2962  0.6102 -0.0021
10347TIP3   OH255235   7.295   5.001  13.990  0.4356  0.0650  1.3694
10347TIP3    H155236   7.281   4.947  13.912  1.7827  1.4436  0.1187
10347TIP3    H255237   7.385   4.982  14.016  0.5025  0.7600  1.6643
10348TIP3   OH255238   5.893   6.995  12.962  0.0522  0.1322 -0.4460
10348TIP3    H155239   5.937   7.069  12.921  0.3456  0.2490  0.0727
10348TIP3    H255240   5.955   6.964  13.029  0.2475 -1.0334 -1.1297
10349TIP3   OH255241   0.083   6.362  12.872  0.3410  0.0396  0.4174
10349TIP3    H155242   0.011   6.332  12.817  0.5454 -1.6494  1.0057
10349TIP3    H255243   0.044   6.428  12.929 -0.9896 -1.4284  1.2975
10350TIP3   OH255244   3.411   7.151  12.669  0.5858  0.7605  0.0366
10350TIP3    H155245   3.410   7.103  12.753 -1.8005  1.1782  0.3094
10350TIP3    H255246   3.467   7.098  12.613  1.6856  0.0876  1.6726
10351TIP3   OH255247   6.362   0.643  12.760  0.7752  0.2102  0.1441
10351TIP3    H155248   6.336   0.734  12.745 -0.9430  0.2032  2.4764
10351TIP3    H255249   6.279   0.596  12.768  1.6319 -1.6393 -1.2235
10352TIP3   OH255250   5.983   4.275  13.107 -0.2851 -0.4924 -0.1051
10352TIP3    H155251   6.018   4.239  13.025 -3.0048  0.0387 -1.6308
10352TIP3    H255252   6.030   4.228  13.176  2.1908 -0.8914 -1.9195
10353TIP3   OH255253   7.611   5.482  13.801 -0.1545  0.2849  0.2759
10353TIP3    H155254   7.686   5.495  13.859 -0.7007 -1.0625  1.3535
10353TIP3    H255255   7.539   5.529  13.842  0.1934  2.1120 -1.0871
10354TIP3   OH255256   6.532   1.480  13.183 -0.2217 -0.0154  0.1839
10354TIP3    H155257   6.583   1.466  13.103  1.1102 -2.3301  1.3429
10354TIP3    H255258   6.482   1.399  13.195 -0.0701  0.0984  1.9007
10355TIP3   OH255259   4.830   2.305  11.998  0.2431  0.4481 -0.3190
10355TIP3    H155260   4.797   2.394  12.014  0.9676  0.6640  0.0225
10355TIP3    H255261   4.760   2.248  12.029 -1.0114  0.8838 -2.1999
10356TIP3   OH255262   6.047   2.288  12.025  0.2719 -0.0582  0.2281
10356TIP3    H155263   6.134   2.301  11.988  0.7512 -0.9363  0.9857
10356TIP3    H255264   6.036   2.360  12.088  0.1471  0.4630 -0.3828
10357TIP3   OH255265   4.658   3.691  13.183  0.0062 -0.1068 -0.2868
10357TIP3    H155266   4.622   3.780  13.180  0.1691 -0.0510 -0.5879
10357TIP3    H255267   4.631   3.657  13.269 -2.8210 -0.9252 -1.3769
10358TIP3   OH255268   7.609   6.099  11.367 -0.1241 -0.4337  0.7323
10358TIP3    H155269   7.687   6.106  11.423 -1.6235 -1.0138  2.9967
10358TIP3    H255270   7.617   6.013  11.326  0.4339 -0.4888  0.9419
10359TIP3   OH255271   6.530   7.160  12.268  0.2451  0.7705  0.6706
10359TIP3    H155272   6.435   7.149  12.275  0.2173  0.8062  0.3321
10359TIP3    H255273   6.565   7.102  12.336  0.0076  0.3192  0.4142
10360TIP3   OH255274   3.298   2.679  11.885 -0.0398 -0.5342  0.3052
10360TIP3    H155275   3.278   2.752  11.827  2.2780 -0.9301 -1.1088
10360TIP3    H255276   3.225   2.676  11.947 -0.0395  3.2305  0.6838
10361TIP3   OH255277   5.822   3.006  12.346  0.4088  0.1760 -0.1717
10361TIP3    H155278   5.740   3.005  12.296  0.2865  1.8191 -0.0386
10361TIP3    H255279   5.886   2.965  12.288 -0.2416 -0.0844 -0.7253
10362TIP3   OH255280   5.032   1.406  12.965  0.0492  0.0672  0.1066
10362TIP3    H155281   4.963   1.466  12.994  0.5675  1.4367 -1.3773
10362TIP3    H255282   5.030   1.411  12.870  2.4770  0.5036  0.0226
10363TIP3   OH255283   4.994   4.453  13.863  0.0376  0.1988 -0.2079
10363TIP3    H155284   4.955   4.472  13.778  0.9116 -0.5161 -0.7726
10363TIP3    H255285   5.050   4.377  13.849  1.3743  0.9771  0.6581
10364TIP3   OH255286   7.986   6.001  13.755 -0.2833  0.5903  0.2329
10364TIP3    H155287   8.047   5.983  13.684  3.1219  0.8597  2.8538
10364TIP3    H255288   8.006   5.935  13.822 -1.6325  1.7834  1.9098
10365TIP3   OH255289   7.026   6.161  12.977  0.8914  0.5870  0.5160
10365TIP3    H155290   7.094   6.213  13.019 -0.7391  2.7905  0.6375
10365TIP3    H255291   6.963   6.225  12.945 -0.9466 -1.2995  0.0724
10366TIP3   OH255292   7.406   5.943  13.214 -0.0131 -0.1693  0.1556
10366TIP3    H155293   7.413   6.022  13.267  0.2707 -0.8450  1.1524
10366TIP3    H255294   7.338   5.963  13.150  1.7161  1.7480 -1.1930
10367TIP3   OH255295   1.185   3.162  12.114  0.2098 -0.5300  0.0563
10367TIP3    H155296   1.251   3.095  12.096  0.4251 -0.3024 -0.0212
10367TIP3    H255297   1.236   3.237  12.144 -0.0889 -0.6437  0.8582
10368TIP3   OH255298   3.579   7.154  11.855  0.1913  0.0585  0.4547
10368TIP3    H155299   3.505   7.206  11.885 -1.0852 -1.6004  0.3122
10368TIP3    H255300   3.561   7.137  11.762  0.6339 -0.5024  0.4614
10369TIP3   OH255301   0.562   1.389  13.090 -0.0873  0.2188  0.2833
10369TIP3    H155302   0.624   1.346  13.031 -0.2194  3.1859 -2.3370
10369TIP3    H255303   0.607   1.470  13.116 -1.4198  0.6262  1.4012
10370TIP3   OH255304   2.100   5.555  11.916  0.6012  0.2991  0.1865
10370TIP3    H155305   2.115   5.545  12.010  1.8311 -1.6053 -0.1555
10370TIP3    H255306   2.185   5.580  11.880  0.6604 -1.0384 -0.6535
10371TIP3   OH255307   1.252   3.410  12.212 -0.3229  0.0893  0.3093
10371TIP3    H155308   1.262   3.504  12.196  2.9596 -0.1792  0.0457
10371TIP3    H255309   1.230   3.404  12.305  1.2731  1.1116  0.7875
10372TIP3   OH255310   7.636   1.449  13.881  0.4363  0.1842 -0.2804
10372TIP3    H155311   7.648   1.484  13.792  0.2585  2.5827  0.5476
10372TIP3    H255312   7.630   1.527  13.936 -1.2035 -1.1915  1.6381
10373TIP3   OH255313   4.871   0.156  12.745 -0.8542  0.7116  0.3034
10373TIP3    H155314   4.829   0.078  12.710  1.1829 -0.3119  0.0193
10373TIP3    H255315   4.945   0.171  12.687  0.6264  0.9875  2.1894
10374TIP3   OH255316   5.857   4.661  11.919  0.0054  0.3317 -0.0484
10374TIP3    H155317   5.911   4.662  11.998 -1.2146 -1.2999  0.8712
10374TIP3    H255318   5.890   4.587  11.868 -1.2847 -0.6831  0.5218
10375TIP3   OH255319   0.508   8.017  11.988  0.3480  0.2196 -0.1220
10375TIP3    H155320   0.547   7.929  11.988 -0.3006 -0.0912  0.8411
10375TIP3    H255321   0.458   8.021  11.907  0.1574 -0.4124 -0.0410
10376TIP3   OH255322   7.350   1.263  11.528 -0.1097 -0.7576 -0.6325
10376TIP3    H155323   7.414   1.193  11.511 -0.1844 -0.7747 -0.8394
10376TIP3    H255324   7.275   1.217  11.567  1.0009 -0.4336  2.1130
10377TIP3   OH255325   7.678   0.237  11.708  0.8656  0.1869  0.9178
10377TIP3    H155326   7.764   0.274  11.692  0.1820  1.7553  0.7216
10377TIP3    H255327   7.696   0.152  11.750  2.4774  0.5431  1.0128
10378TIP3   OH255328   7.477   2.485  11.576  0.4523  0.1768 -0.0824
10378TIP3    H155329   7.391   2.526  11.583 -0.1483 -0.6686 -1.9775
10378TIP3    H255330   7.485   2.432  11.656 -1.5108 -1.0121 -0.6233
10379TIP3   OH255331   3.751   4.272  12.718  0.1810 -0.3977 -0.3615
10379TIP3    H155332   3.792   4.353  12.746 -2.0539  0.6082  0.2187
10379TIP3    H255333   3.816   4.230  12.662  1.4890  1.6695 -0.4871
10380TIP3   OH255334   6.000   1.620  12.755 -0.2492  0.7794  1.0772
10380TIP3    H155335   6.058   1.658  12.821  1.3173  1.0190 -0.3792
10380TIP3    H255336   6.018   1.526  12.758 -1.4213  0.5524  2.1063
10381TIP3   OH255337   4.126   8.074  11.677  0.3601 -0.0325  0.7324
10381TIP3    H155338   4.117   8.153  11.624 -1.0848 -0.6789 -0.0294
10381TIP3    H255339   4.209   8.086  11.724  1.4901  0.7585 -1.3311
10382TIP3   OH255340   0.464   4.307  13.239 -0.6253  0.3864 -0.0349
10382TIP3    H155341   0.533   4.373  13.243 -0.4554  0.1545  2.3475
10382TIP3    H255342   0.501   4.236  13.186  0.4497  0.8397  0.0844
10383TIP3   OH255343   3.844   3.197  13.232 -0.4358  0.0735 -0.2072
10383TIP3    H155344   3.781   3.136  13.270  1.0730 -1.0616  0.5892
10383TIP3    H255345   3.865   3.160  13.147 -2.6118  1.7690 -1.5929
10384TIP3   OH255346   3.965   2.470  12.310 -0.0621 -0.7064 -0.1315
10384TIP3    H155347   3.979   2.549  12.362  0.7113 -1.7530  1.3236
10384TIP3    H255348   3.870   2.469  12.294 -0.0667  0.5773 -0.3225
10385TIP3   OH255349   0.381   7.592  12.206  0.0832 -0.2204 -0.0707
10385TIP3    H155350   0.294   7.553  12.221 -0.1005  0.0323 -0.4407
10385TIP3    H255351   0.431   7.571  12.284 -1.2125  2.1886  1.5320
10386TIP3   OH255352   1.318   8.127  12.401 -0.3796 -0.6032 -0.0958
10386TIP3    H155353   1.383   8.057  12.401  0.2063 -0.0804  0.7338
10386TIP3    H255354   1.347   8.187  12.332  1.1439  0.5981  1.4967
10387TIP3   OH255355   3.857   3.000  13.833 -0.4918 -0.0156 -0.4672
10387TIP3    H155356   3.946   2.993  13.866 -0.7954  0.7949  0.5654
10387TIP3    H255357   3.814   3.062  13.892 -1.4494  0.3963 -1.5538
10388TIP3   OH255358   4.641   2.141  12.119 -0.0583 -0.5391  0.6958
10388TIP3    H155359   4.564   2.196  12.102 -0.5698 -1.1729  0.8848
10388TIP3    H255360   4.633   2.118  12.212  1.5245  1.1172  1.2885
10389TIP3   OH255361   8.389   5.505  12.897 -0.2793  0.2399 -0.1082
10389TIP3    H155362   8.359   5.596  12.888 -1.7149 -0.2805 -1.1651
10389TIP3    H255363   8.449   5.493  12.823 -0.3731  0.2333 -0.1842
10390TIP3   OH255364   2.347   1.229  12.417  0.0716  0.4491  0.4883
10390TIP3    H155365   2.256   1.208  12.438  0.5251 -0.2899  1.8756
10390TIP3    H255366   2.349   1.235  12.322 -1.0178 -1.5844  0.2805
10391TIP3   OH255367   5.700   7.763  13.463  0.2964  0.1277  0.1622
10391TIP3    H155368   5.771   7.795  13.520  0.5599 -0.7284  0.3395
10391TIP3    H255369   5.680   7.676  13.497 -0.7545  0.2992  0.0183
10392TIP3   OH255370   2.501   2.093  12.053 -0.5403 -0.6568  0.1975
10392TIP3    H155371   2.535   2.127  12.136  0.0129 -1.2173  0.2080
10392TIP3    H255372   2.571   2.108  11.990 -0.9236 -0.3223 -0.1558
10393TIP3   OH255373   6.739   8.065  11.661  0.8192 -0.1861  0.1608
10393TIP3    H155374   6.818   8.044  11.611  2.2387  0.9165  1.8357
10393TIP3    H255375   6.704   7.980  11.686  1.4972 -0.7006 -0.5751
10394TIP3   OH255376   0.510   0.029  13.609 -0.1293 -0.4569  0.2187
10394TIP3    H155377   0.561   0.110  13.606 -0.6401 -0.1537 -1.8091
10394TIP3    H255378   0.561  -0.029  13.665  0.9612  0.7843  0.5764
10395TIP3   OH255379   1.062   4.804  12.228 -0.1136 -0.1817  0.1694
10395TIP3    H155380   1.102   4.743  12.167  0.2424  0.6564 -0.4571
10395TIP3    H255381   1.025   4.749  12.296 -0.3259 -1.1305 -0.6861
10396TIP3   OH255382   1.678   5.280  11.917 -0.1523  0.4983  0.2857
10396TIP3    H155383   1.746   5.313  11.976  0.3368  1.2327 -0.6611
10396TIP3    H255384   1.595   5.307  11.958  0.0801 -0.6576  1.5963
10397TIP3   OH255385   1.569   3.906  12.723 -0.5418  0.2206  0.0980
10397TIP3    H155386   1.536   3.849  12.792  1.4822 -0.7145  0.3463
10397TIP3    H255387   1.541   3.864  12.642 -1.5797  0.4861  0.2995
10398TIP3   OH255388   7.602   5.207  12.314  0.8553 -0.1004  0.6172
10398TIP3    H155389   7.556   5.271  12.259  1.0101 -0.4005  0.1285
10398TIP3    H255390   7.551   5.126  12.303  1.5470 -0.4632 -0.0069
10399TIP3   OH255391   3.427   5.870  11.774 -0.2259  0.3892 -0.2388
10399TIP3    H155392   3.494   5.805  11.750  0.4762  1.3251 -0.8836
10399TIP3    H255393   3.371   5.876  11.697 -0.5693  0.2220 -0.0063
10400TIP3   OH255394   4.239   1.041  12.781  0.1060  0.3594  0.4941
10400TIP3    H155395   4.296   1.118  12.791 -0.3343  0.8505 -0.6037
10400TIP3    H255396   4.186   1.060  12.704  0.2161 -1.2054 -0.0003
10401TIP3   OH255397   1.367   2.176  13.362  0.1261 -0.7308  0.0176
10401TIP3    H155398   1.440   2.190  13.422 -0.1594 -1.2992  0.5095
10401TIP3    H255399   1.290   2.203  13.412 -0.1604 -1.6223  0.0646
10402TIP3   OH255400   3.345   7.864  11.966  0.3177 -0.4096 -0.0011
10402TIP3    H155401   3.289   7.920  11.911  0.8641  0.7341  0.5835
10402TIP3    H255402   3.331   7.896  12.055  1.5681 -0.3803  0.2053
10403TIP3   OH255403   1.673   5.881  13.062 -0.9565 -0.1925 -0.3057
10403TIP3    H155404   1.691   5.815  13.129  0.6128  0.1822 -0.3249
10403TIP3    H255405   1.663   5.831  12.981 -1.8648 -0.5624  0.0252
10404TIP3   OH255406   1.428   5.186  12.972  0.1125  0.0104  0.2053
10404TIP3    H155407   1.464   5.106  13.011  0.7750  0.5810  0.8060
10404TIP3    H255408   1.461   5.187  12.883  1.5952  0.4967  0.7312
10405TIP3   OH255409   3.979   7.691  12.231 -0.8004 -0.0267 -0.1123
10405TIP3    H155410   3.890   7.699  12.266 -1.6688  0.6674 -2.3119
10405TIP3    H255411   3.986   7.761  12.167  0.8291 -0.9695 -1.0325
10406TIP3   OH255412   2.088   4.706  12.934  0.1811  0.3170  0.1324
10406TIP3    H155413   2.151   4.661  12.877  0.4732  0.8337  0.0445
10406TIP3    H255414   2.003   4.678  12.901  0.2684 -2.7985  2.0962
10407TIP3   OH255415   3.257   7.830  13.388  0.1308 -0.7355  0.7934
10407TIP3    H155416   3.323   7.760  13.385  0.3254 -0.5314 -1.2478
10407TIP3    H255417   3.175   7.785  13.406  0.1309 -1.6417 -1.2354
10408TIP3   OH255418   4.923   5.267  11.773 -0.3625  0.0308  0.4847
10408TIP3    H155419   4.937   5.172  11.773 -2.1224 -0.2657  1.0557
10408TIP3    H255420   4.953   5.296  11.859  1.6106  0.2748 -0.2338
10409TIP3   OH255421   5.007   3.782  13.854 -0.1867 -0.2126  0.0967
10409TIP3    H155422   4.992   3.843  13.781  1.7990 -0.9763 -1.0413
10409TIP3    H255423   4.947   3.710  13.836 -0.0636 -0.1724 -0.5273
10410TIP3   OH255424   6.770   7.810  13.522  0.4077 -0.0540 -0.0935
10410TIP3    H155425   6.729   7.847  13.600 -0.1386 -0.0487 -0.3778
10410TIP3    H255426   6.847   7.763  13.555  0.2961  0.1220  0.4237
10411TIP3   OH255427   2.863   0.439  12.715 -0.2712  0.2245  0.8080
10411TIP3    H155428   2.833   0.349  12.728  1.5461 -0.2282  2.1974
10411TIP3    H255429   2.823   0.465  12.632 -4.1076 -0.3978  2.2486
10412TIP3   OH255430   7.776   2.041  13.415 -0.4719  0.2427 -0.3362
10412TIP3    H155431   7.706   2.044  13.349  1.6054  1.2735 -2.7018
10412TIP3    H255432   7.854   2.017  13.365  1.2155  0.9887  1.7987
10413TIP3   OH255433   8.342   1.918  11.464 -0.5066 -0.0356 -0.6925
10413TIP3    H155434   8.425   1.898  11.420  0.3473 -2.0294  1.6095
10413TIP3    H255435   8.281   1.853  11.428 -0.2972 -0.4455 -0.3201
10414TIP3   OH255436   4.256   2.892  12.133 -0.4980  0.7388  0.5394
10414TIP3    H155437   4.215   2.822  12.082  2.4858 -2.4639  2.1326
10414TIP3    H255438   4.194   2.910  12.204 -2.2067  1.2980 -1.0217
10415TIP3   OH255439   0.657   5.044  12.436  0.5963  0.0238  0.1571
10415TIP3    H155440   0.587   5.108  12.447 -0.9425 -1.4952 -0.4069
10415TIP3    H255441   0.666   5.004  12.522  1.5114  0.8939  0.4916
10416TIP3   OH255442   7.381   7.231  12.192  0.3340  0.0608  0.6609
10416TIP3    H155443   7.351   7.215  12.103  0.5893 -1.8116  0.8816
10416TIP3    H255444   7.450   7.297  12.182  2.3833 -2.1653 -0.9115
10417TIP3   OH255445   2.808   0.170  12.255  0.0365  0.1259 -0.0050
10417TIP3    H155446   2.896   0.204  12.271  0.3588 -0.8117  0.3095
10417TIP3    H255447   2.803   0.160  12.160  1.1286 -1.9397  0.0900
10418TIP3   OH255448   3.097   5.894  12.704  0.2869 -0.1347  0.4260
10418TIP3    H155449   3.029   5.952  12.739 -0.5158  1.1161 -2.8357
10418TIP3    H255450   3.176   5.948  12.702  0.6099 -0.5560  1.2155
10419TIP3   OH255451   3.761   7.911  13.078  0.1870  0.0973 -0.0204
10419TIP3    H155452   3.753   7.818  13.099  1.6168  0.1418  0.8624
10419TIP3    H255453   3.851   7.921  13.046  0.1848  1.2403  0.2745
10420TIP3   OH255454   4.737   3.043  14.141  0.0876 -0.3724  0.0774
10420TIP3    H155455   4.772   3.056  14.053 -0.6327 -0.1496 -0.1803
10420TIP3    H255456   4.704   2.953  14.140  2.0694 -1.1681  0.8254
10421TIP3   OH255457   3.558   6.672  12.823  0.2182 -0.5452 -0.2046
10421TIP3    H155458   3.614   6.661  12.900  1.7877  0.4309 -1.1408
10421TIP3    H255459   3.472   6.642  12.851  1.1224 -1.7909  1.4118
10422TIP3   OH255460   3.992   7.904  12.016 -0.0685 -0.5359  0.3224
10422TIP3    H155461   3.908   7.890  11.972  0.7551  0.5395 -1.6861
10422TIP3    H255462   3.999   7.999  12.024  0.2156 -0.6665  2.0736
10423TIP3   OH255463   7.851   2.838  11.790 -0.2083 -0.0201  0.3476
10423TIP3    H155464   7.808   2.897  11.729 -0.5770 -0.7347 -0.1034
10423TIP3    H255465   7.939   2.828  11.756 -0.3361 -0.2170  0.0687
10424TIP3   OH255466   4.934   2.478  13.667  0.2771  0.0166  0.3516
10424TIP3    H155467   5.008   2.432  13.706  1.3525  0.6007 -0.9243
10424TIP3    H255468   4.951   2.570  13.684 -0.4325  0.1293  0.4881
10425TIP3   OH255469   0.899   3.390  12.395 -0.2168  0.1139  0.2038
10425TIP3    H155470   0.901   3.451  12.321 -0.2202 -0.4831 -0.2931
10425TIP3    H255471   0.991   3.381  12.421 -0.3989  2.3352  1.9782
10426TIP3   OH255472   3.829   4.312  13.720  0.5711 -0.2639 -0.3798
10426TIP3    H155473   3.771   4.297  13.794 -1.3741 -0.4559 -1.8833
10426TIP3    H255474   3.917   4.310  13.758 -0.3874  0.4039  2.0211
10427TIP3   OH255475   0.776   0.228  11.755  0.1859 -0.3787 -0.2791
10427TIP3    H155476   0.766   0.133  11.743  0.7984 -0.6587  1.2812
10427TIP3    H255477   0.687   0.259  11.772 -0.2029 -0.4568 -1.9308
10428TIP3   OH255478   1.310   8.424  11.852  0.4002  0.1484  0.2809
10428TIP3    H155479   1.339   8.369  11.778  0.9168  1.4954 -0.5535
10428TIP3    H255480   1.238   8.375  11.891 -0.3412 -0.2993 -1.5402
10429TIP3   OH255481   1.507   4.632  13.493 -0.6544  0.3013  0.2543
10429TIP3    H155482   1.448   4.576  13.543 -0.0116  1.0973  1.9872
10429TIP3    H255483   1.454   4.709  13.471 -1.2961 -0.5638 -1.4247
10430TIP3   OH255484   1.586   4.059  13.112  0.0828  0.0596  0.1448
10430TIP3    H155485   1.492   4.069  13.123  0.2530  0.8671  0.9303
10430TIP3    H255486   1.624   4.094  13.193  1.1043  0.8510 -0.6463
10431TIP3   OH255487   8.038   3.807  12.797  0.8335 -0.3211  0.0627
10431TIP3    H155488   8.040   3.813  12.893  0.4741  0.6314  0.0224
10431TIP3    H255489   7.984   3.729  12.779 -0.0968  0.1680  0.6309
10432TIP3   OH255490   5.409   2.033  13.038 -0.5932 -0.2972  0.1005
10432TIP3    H155491   5.443   1.959  13.088  0.0760 -1.0566 -1.4307
10432TIP3    H255492   5.315   2.019  13.035 -0.4833 -1.0257 -0.0661
10433TIP3   OH255493   5.960   7.759  13.085  0.1018  0.2177 -0.0933
10433TIP3    H155494   5.989   7.722  13.002 -0.6343  1.9446 -1.1925
10433TIP3    H255495   5.875   7.718  13.101  0.7315 -0.9305  0.4005
10434TIP3   OH255496   5.191   8.102  11.651 -0.1739 -0.1412 -0.3277
10434TIP3    H155497   5.209   8.135  11.739 -0.9384  1.9038 -0.8847
10434TIP3    H255498   5.096   8.105  11.644 -0.1914 -1.4247 -0.8343
10435TIP3   OH255499   7.596   5.007  13.561 -0.3468  0.0175  0.1097
10435TIP3    H155500   7.689   4.987  13.562 -0.2005  0.4005 -2.1298
10435TIP3    H255501   7.584   5.070  13.632  1.7637  2.6519 -1.6865
10436TIP3   OH255502   0.930   5.777  12.129  0.1730  0.2846 -0.2043
10436TIP3    H155503   0.901   5.769  12.038 -0.7034 -0.1201  0.0979
10436TIP3    H255504   0.870   5.841  12.167 -1.1683 -1.4456  0.7461
10437TIP3   OH255505   2.510   8.369  12.242  0.8530 -0.2928  0.7540
10437TIP3    H155506   2.560   8.435  12.290  0.6176 -0.3100  1.0305
10437TIP3    H255507   2.422   8.374  12.280  0.7110 -0.4331  0.4467
10438TIP3   OH255508   6.273   0.045  11.457 -0.1063  0.0020 -0.0054
10438TIP3    H155509   6.214  -0.028  11.477  0.1114  0.2981  1.8973
10438TIP3    H255510   6.215   0.121  11.453 -0.1742 -0.0812 -0.7965
10439TIP3   OH255511   6.166   0.868  13.742  0.1846  0.1580  0.2895
10439TIP3    H155512   6.082   0.885  13.699 -0.1360  0.4557  1.0309
10439TIP3    H255513   6.227   0.855  13.669  0.0156  2.3412 -0.3170
   8.44854   8.44854  30.00000
